 Gaussian 16, Revision C.01,
 Gaussian 16:  ES64L-G16RevC.01  3-Jul-2019

 ----------------------------------------------------------------------
 # B3LYP/6-31G* empiricaldispersion=gd3bj guess=read geom=check nosymm
 integral(ultrafinegrid)
 ----------------------------------------------------------------------

 ------------------------------------------------------
 Candidate Structure: Conf:669 Charge calc in gas phase
 ------------------------------------------------------
 Structure from the checkpoint file:  "conf-669.chk"
 Charge =  1 Multiplicity = 1

                          Input orientation:
 ---------------------------------------------------------------------
 Center     Atomic      Atomic             Coordinates (Angstroms)
 Number     Number       Type             X           Y           Z
 ---------------------------------------------------------------------
      1          7           0       -8.751437   -6.966470   -6.994552
      2          1           0       -8.397874   -7.764367   -7.528730
      3          1           0       -9.640499   -6.669237   -7.406108
      4          1           0       -8.868267   -7.252052   -5.973363
      5          6           0       -7.754634   -5.832158   -6.878058
      6          1           0       -6.931880   -6.032507   -7.566085
      7          6           0       -7.291488   -5.941927   -5.403280
      8          6           0       -8.420603   -4.483656   -7.174510
      9          1           0       -7.672231   -3.705123   -6.983685
     10          1           0       -9.219040   -4.322046   -6.437346
     11          8           0       -7.919215   -6.710340   -4.658731
     12          6           0       -8.969547   -4.311757   -8.604303
     13          1           0       -9.749174   -5.073087   -8.783284
     14          6           0       -9.646913   -2.939853   -8.721357
     15          1           0       -8.917067   -2.135203   -8.574446
     16          1           0      -10.440735   -2.817145   -7.976637
     17          1           0      -10.090774   -2.812061   -9.712927
     18          6           0       -7.880441   -4.483657   -9.670151
     19          1           0       -7.068405   -3.763235   -9.514908
     20          1           0       -7.442085   -5.489191   -9.676109
     21          1           0       -8.291578   -4.308473  -10.668542
     22          7           0       -6.262632   -5.179794   -5.061526
     23          1           0       -5.886114   -4.479339   -5.701086
     24          6           0       -5.788397   -4.970237   -3.692492
     25          1           0       -6.591258   -5.255296   -3.005472
     26          6           0       -5.513136   -3.456564   -3.638412
     27          6           0       -4.519654   -5.814236   -3.388363
     28          1           0       -3.739020   -5.470642   -4.080518
     29          8           0       -5.251523   -2.846030   -4.677403
     30          6           0       -4.026134   -5.587942   -1.952569
     31          1           0       -4.819076   -5.804770   -1.223434
     32          1           0       -3.659742   -4.570298   -1.801216
     33          1           0       -3.199154   -6.270752   -1.735779
     34          6           0       -4.789088   -7.301959   -3.643396
     35          1           0       -5.595470   -7.673248   -3.001222
     36          1           0       -3.888247   -7.884469   -3.427775
     37          1           0       -5.067202   -7.496459   -4.683678
     38          7           0       -5.590877   -2.860122   -2.432634
     39          1           0       -5.653502   -3.442823   -1.608289
     40          6           0       -5.125299   -1.491107   -2.247053
     41          1           0       -5.676358   -0.850515   -2.944116
     42          6           0       -3.628569   -1.419117   -2.576672
     43          6           0       -5.416245   -1.038721   -0.792842
     44          1           0       -4.936652   -1.764881   -0.122887
     45          8           0       -2.861741   -2.350277   -2.276085
     46          6           0       -4.805015    0.331976   -0.480937
     47          1           0       -5.144626    1.098275   -1.189387
     48          1           0       -3.713951    0.303577   -0.486253
     49          1           0       -5.114916    0.649280    0.518874
     50          6           0       -6.929324   -1.030459   -0.536941
     51          1           0       -7.423921   -0.279775   -1.165225
     52          1           0       -7.395942   -1.998865   -0.744665
     53          1           0       -7.132221   -0.778444    0.508314
     54          7           0       -3.212205   -0.283071   -3.156370
     55          1           0       -3.852262    0.494794   -3.287412
     56          6           0       -1.805634    0.082860   -3.324215
     57          1           0       -1.261726   -0.764098   -3.752338
     58          6           0       -1.238866    0.426625   -1.935835
     59          6           0       -1.743244    1.301394   -4.250332
     60          1           0       -2.067745    1.015743   -5.254422
     61          1           0       -0.706395    1.654868   -4.306406
     62          8           0       -1.158587    1.591598   -1.523549
     63          8           0       -2.636126    2.304080   -3.794899
     64          1           0       -2.269014    2.596777   -2.938391
     65          7           0       -0.881831   -0.646671   -1.201693
     66          1           0       -1.112036   -1.552778   -1.599403
     67          6           0       -0.623515   -0.565363    0.239628
     68          1           0       -1.156427    0.314880    0.613431
     69          6           0        0.890692   -0.375682    0.407488
     70          6           0       -1.165501   -1.821106    0.947350
     71          1           0       -0.555293   -2.678795    0.633189
     72          8           0        1.647702   -1.316341    0.649083
     73          6           0       -1.091304   -1.669982    2.457441
     74          1           0       -0.066354   -1.498299    2.796179
     75          1           0       -1.721609   -0.831620    2.777296
     76          1           0       -1.472250   -2.577865    2.932921
     77          8           0       -2.536481   -2.025249    0.597009
     78          1           0       -2.589462   -2.369002   -0.311974
     79          7           0        1.318768    0.884959    0.157016
     80          1           0        0.623435    1.587317   -0.072040
     81          6           0        2.738968    1.215325   -0.015372
     82          1           0        3.211891    0.321386   -0.438720
     83          6           0        3.398890    1.484562    1.354274
     84          6           0        2.914847    2.407561   -0.956951
     85          1           0        3.987184    2.545179   -1.120033
     86          1           0        2.563654    3.314555   -0.454656
     87          8           0        3.856978    2.589982    1.653286
     88          6           0        2.205819    2.258750   -2.316572
     89          1           0        2.435653    3.141461   -2.919441
     90          1           0        1.119990    2.217274   -2.188746
     91          6           0        2.706830    1.050563   -3.097972
     92          7           0        1.898387   -0.072927   -3.037550
     93          1           0        1.297935   -0.193691   -2.232220
     94          1           0        2.342287   -0.920747   -3.372199
     95          8           0        3.737370    1.069515   -3.748404
     96          7           0        3.418375    0.415015    2.175795
     97          1           0        2.960963   -0.440120    1.865410
     98          6           0        3.809861    0.527295    3.576844
     99          1           0        3.539029    1.538780    3.908665
    100          6           0        5.338402    0.383938    3.728343
    101          6           0        3.049503   -0.508947    4.421019
    102          1           0        3.410101   -1.506224    4.154563
    103          8           0        5.861025   -0.567935    4.305394
    104          6           0        3.235416   -0.279074    5.916130
    105          1           0        4.286434   -0.376007    6.193163
    106          1           0        2.895470    0.726390    6.199721
    107          1           0        2.648392   -1.012814    6.476285
    108          8           0        1.661785   -0.507870    4.062055
    109          1           0        1.284465    0.329721    4.376901
    110          7           0        6.044914    1.390949    3.166383
    111          1           0        5.529975    2.177575    2.779245
    112          6           0        7.469058    1.513321    3.418688
    113          1           0        7.962199    0.595176    3.080213
    114          6           0        7.693531    1.687773    4.934868
    115          6           0        8.025182    2.724842    2.669935
    116          1           0        9.105295    2.803969    2.824060
    117          1           0        7.831752    2.637458    1.596082
    118          1           0        7.556954    3.641148    3.044066
    119          8           0        6.979136    2.436692    5.595432
    120          7           0        8.733508    0.987453    5.441020
    121          1           0        9.322755    0.420709    4.843890
    122          6           0        9.127892    1.040105    6.833207
    123          1           0        8.724477    1.966778    7.250247
    124          6           0       10.657999    1.041906    6.871777
    125          6           0        8.611594   -0.179365    7.633394
    126          1           0        9.080404   -1.073991    7.202741
    127          1           0        8.981256   -0.098070    8.665925
    128          8           0       11.322459    0.524667    5.975785
    129          6           0        7.084839   -0.357370    7.645294
    130          1           0        6.743594   -0.374667    6.603528
    131          6           0        6.730531   -1.709657    8.277121
    132          1           0        7.054891   -1.754852    9.325260
    133          1           0        7.206648   -2.538979    7.741271
    134          1           0        5.647226   -1.875844    8.257600
    135          6           0        6.373615    0.789782    8.373220
    136          1           0        6.734415    0.881875    9.407081
    137          1           0        5.293964    0.603107    8.418641
    138          1           0        6.519623    1.741363    7.855924
    139          7           0       11.212903    1.594108    7.979266
    140          1           0       10.624280    1.991341    8.697305
    141          6           0       12.648233    1.542597    8.210447
    142          1           0       13.006849    0.581680    7.826024
    143          6           0       12.987725    1.577893    9.691491
    144          6           0       13.403056    2.662033    7.474066
    145          1           0       14.475606    2.580081    7.667166
    146          1           0       13.218264    2.562022    6.402223
    147          1           0       13.055362    3.645914    7.805650
    148          8           0       14.108906    1.468833   10.126910
    149          8           0       11.904920    1.778421   10.486505
    150          1           0       12.239960    1.805928   11.402690
 ---------------------------------------------------------------------

 SCF Done:  E(RB3LYP) =  -3455.80324042     A.U. after    1 cycles

 Alpha  occ. eigenvalues --  -19.27956 -19.24228 -19.23579 -19.22825 -19.22174
 Alpha  occ. eigenvalues --  -19.22155 -19.20980 -19.19447 -19.19259 -19.17789
 Alpha  occ. eigenvalues --  -19.16798 -19.16261 -19.14925 -19.14790 -19.13421
 Alpha  occ. eigenvalues --  -14.60878 -14.50497 -14.47478 -14.46700 -14.45491
 Alpha  occ. eigenvalues --  -14.43360 -14.40696 -14.40281 -14.39704 -14.38264
 Alpha  occ. eigenvalues --  -14.38224 -10.44583 -10.41598 -10.40392 -10.39475
 Alpha  occ. eigenvalues --  -10.38549 -10.36172 -10.36151 -10.35431 -10.34482
 Alpha  occ. eigenvalues --  -10.33767 -10.33626 -10.33609 -10.33200 -10.32754
 Alpha  occ. eigenvalues --  -10.31949 -10.31666 -10.31646 -10.30784 -10.30720
 Alpha  occ. eigenvalues --  -10.30706 -10.30244 -10.29983 -10.29360 -10.29073
 Alpha  occ. eigenvalues --  -10.29046 -10.28028 -10.27654 -10.27194 -10.27004
 Alpha  occ. eigenvalues --  -10.26756 -10.26293 -10.26197 -10.25902 -10.25796
 Alpha  occ. eigenvalues --  -10.24697 -10.24418 -10.22500 -10.21650 -10.21316
 Alpha  occ. eigenvalues --  -10.21076 -10.20975 -10.20170 -10.19051 -10.18341
 Alpha  occ. eigenvalues --   -1.20414  -1.15889  -1.14823  -1.14823  -1.14538
 Alpha  occ. eigenvalues --   -1.13503  -1.11198  -1.09740  -1.08604  -1.08443
 Alpha  occ. eigenvalues --   -1.08121  -1.07390  -1.07114  -1.06855  -1.06462
 Alpha  occ. eigenvalues --   -1.05688  -1.05187  -1.04093  -1.03101  -1.01752
 Alpha  occ. eigenvalues --   -0.99733  -0.96908  -0.96365  -0.96312  -0.95291
 Alpha  occ. eigenvalues --   -0.95087  -0.94962  -0.92475  -0.90349  -0.89485
 Alpha  occ. eigenvalues --   -0.87156  -0.85457  -0.84051  -0.83753  -0.83474
 Alpha  occ. eigenvalues --   -0.82257  -0.81471  -0.81298  -0.80468  -0.79966
 Alpha  occ. eigenvalues --   -0.79585  -0.78953  -0.78057  -0.77181  -0.77113
 Alpha  occ. eigenvalues --   -0.76455  -0.75032  -0.74149  -0.74084  -0.73365
 Alpha  occ. eigenvalues --   -0.72526  -0.71292  -0.71114  -0.70344  -0.69677
 Alpha  occ. eigenvalues --   -0.69522  -0.69198  -0.69059  -0.68664  -0.68060
 Alpha  occ. eigenvalues --   -0.68054  -0.67336  -0.66504  -0.65780  -0.65527
 Alpha  occ. eigenvalues --   -0.64965  -0.64294  -0.63869  -0.63502  -0.63113
 Alpha  occ. eigenvalues --   -0.62553  -0.62434  -0.61327  -0.61177  -0.60800
 Alpha  occ. eigenvalues --   -0.60785  -0.60694  -0.60059  -0.59759  -0.59549
 Alpha  occ. eigenvalues --   -0.58788  -0.58594  -0.58461  -0.58209  -0.57616
 Alpha  occ. eigenvalues --   -0.57464  -0.57194  -0.56658  -0.56547  -0.55986
 Alpha  occ. eigenvalues --   -0.55686  -0.55407  -0.54743  -0.54437  -0.54226
 Alpha  occ. eigenvalues --   -0.54007  -0.53526  -0.53494  -0.53098  -0.52615
 Alpha  occ. eigenvalues --   -0.52588  -0.51990  -0.51932  -0.51731  -0.51622
 Alpha  occ. eigenvalues --   -0.51375  -0.51276  -0.51021  -0.50644  -0.50617
 Alpha  occ. eigenvalues --   -0.50536  -0.50169  -0.49920  -0.49666  -0.49527
 Alpha  occ. eigenvalues --   -0.49491  -0.49303  -0.49045  -0.48735  -0.48510
 Alpha  occ. eigenvalues --   -0.48277  -0.48114  -0.47878  -0.47832  -0.47626
 Alpha  occ. eigenvalues --   -0.47395  -0.47031  -0.46674  -0.46600  -0.46571
 Alpha  occ. eigenvalues --   -0.46281  -0.46147  -0.46089  -0.45967  -0.45824
 Alpha  occ. eigenvalues --   -0.45708  -0.45388  -0.45239  -0.45171  -0.45087
 Alpha  occ. eigenvalues --   -0.44889  -0.44771  -0.44222  -0.43776  -0.43666
 Alpha  occ. eigenvalues --   -0.43664  -0.43433  -0.43251  -0.43081  -0.42737
 Alpha  occ. eigenvalues --   -0.42689  -0.42514  -0.42270  -0.42101  -0.42069
 Alpha  occ. eigenvalues --   -0.41881  -0.41863  -0.41772  -0.41129  -0.41059
 Alpha  occ. eigenvalues --   -0.40960  -0.40741  -0.40658  -0.40388  -0.40130
 Alpha  occ. eigenvalues --   -0.40016  -0.39998  -0.39814  -0.39493  -0.39405
 Alpha  occ. eigenvalues --   -0.39008  -0.38312  -0.38208  -0.37992  -0.37498
 Alpha  occ. eigenvalues --   -0.37355  -0.36655  -0.36581  -0.35874  -0.35805
 Alpha  occ. eigenvalues --   -0.35687  -0.34598  -0.34460  -0.34292  -0.34028
 Alpha  occ. eigenvalues --   -0.34002  -0.33871  -0.32586  -0.32179  -0.31982
 Alpha  occ. eigenvalues --   -0.31952  -0.31443  -0.29855  -0.29481  -0.29414
 Alpha  occ. eigenvalues --   -0.29023  -0.28852  -0.27645  -0.27033  -0.26767
 Alpha virt. eigenvalues --   -0.13097  -0.12349  -0.09850  -0.09101  -0.07800
 Alpha virt. eigenvalues --   -0.07701  -0.05595  -0.05092  -0.03335  -0.03282
 Alpha virt. eigenvalues --   -0.03057  -0.02865  -0.02635  -0.02235  -0.02024

 Mulliken charges:
               1
     1  N   -0.758034
     2  H    0.417400
     3  H    0.413550
     4  H    0.434813
     5  C   -0.119192
     6  H    0.218829
     7  C    0.654643
     8  C   -0.298965
     9  H    0.195928
    10  H    0.174375
    11  O   -0.541500
    12  C   -0.100321
    13  H    0.115375
    14  C   -0.448073
    15  H    0.167461
    16  H    0.159989
    17  H    0.177374
    18  C   -0.454794
    19  H    0.169565
    20  H    0.130676
    21  H    0.186902
    22  N   -0.595422
    23  H    0.371697
    24  C   -0.082634
    25  H    0.185935
    26  C    0.646769
    27  C   -0.068480
    28  H    0.153041
    29  O   -0.548668
    30  C   -0.501456
    31  H    0.142261
    32  H    0.192830
    33  H    0.173882
    34  C   -0.445763
    35  H    0.164016
    36  H    0.170970
    37  H    0.130076
    38  N   -0.604052
    39  H    0.350067
    40  C   -0.037085
    41  H    0.171607
    42  C    0.659574
    43  C   -0.125167
    44  H    0.170854
    45  O   -0.581043
    46  C   -0.475612
    47  H    0.143527
    48  H    0.174936
    49  H    0.172558
    50  C   -0.448061
    51  H    0.153818
    52  H    0.140845
    53  H    0.172907
    54  N   -0.579993
    55  H    0.364462
    56  C   -0.083635
    57  H    0.188785
    58  C    0.635452
    59  C   -0.065389
    60  H    0.167565
    61  H    0.175389
    62  O   -0.559265
    63  O   -0.633155
    64  H    0.424320
    65  N   -0.625735
    66  H    0.366961
    67  C   -0.053407
    68  H    0.179604
    69  C    0.632534
    70  C    0.101479
    71  H    0.148778
    72  O   -0.539854
    73  C   -0.487716
    74  H    0.217645
    75  H    0.141812
    76  H    0.162457
    77  O   -0.664081
    78  H    0.418599
    79  N   -0.615048
    80  H    0.363647
    81  C   -0.082232
    82  H    0.189799
    83  C    0.636678
    84  C   -0.291618
    85  H    0.189535
    86  H    0.173719
    87  O   -0.545271
    88  C   -0.382753
    89  H    0.183161
    90  H    0.156180
    91  C    0.557210
    92  N   -0.776677
    93  H    0.359903
    94  H    0.335661
    95  O   -0.480759
    96  N   -0.616241
    97  H    0.387170
    98  C   -0.088662
    99  H    0.169295
   100  C    0.654293
   101  C    0.117917
   102  H    0.168684
   103  O   -0.539086
   104  C   -0.490851
   105  H    0.208591
   106  H    0.134637
   107  H    0.159226
   108  O   -0.626034
   109  H    0.386663
   110  N   -0.611861
   111  H    0.373147
   112  C   -0.026226
   113  H    0.156222
   114  C    0.641160
   115  C   -0.480658
   116  H    0.166153
   117  H    0.163581
   118  H    0.175835
   119  O   -0.546038
   120  N   -0.593519
   121  H    0.345648
   122  C   -0.075934
   123  H    0.174245
   124  C    0.629438
   125  C   -0.250435
   126  H    0.143790
   127  H    0.127973
   128  O   -0.541207
   129  C   -0.093644
   130  H    0.182365
   131  C   -0.442930
   132  H    0.132933
   133  H    0.141807
   134  H    0.137966
   135  C   -0.470497
   136  H    0.120866
   137  H    0.134061
   138  H    0.184902
   139  N   -0.617046
   140  H    0.351954
   141  C   -0.039348
   142  H    0.209131
   143  C    0.588733
   144  C   -0.446733
   145  H    0.178564
   146  H    0.183966
   147  H    0.151295
   148  O   -0.452326
   149  O   -0.582731
   150  H    0.420318
 Sum of Mulliken charges =   1.00000

 Dipole moment (field-independent basis, Debye):
    X=            -39.9268    Y=            -24.3715    Z=            -27.1953  Tot=             54.1083
 Quadrupole moment (field-independent basis, Debye-Ang):
   XX=           -141.2727   YY=           -258.0326   ZZ=           -170.4185
   XY=            221.7588   XZ=            269.2717   YZ=            198.8392

 Normal termination of Gaussian 16 at Sun Jul 24 19:01:07 2022.
