 Gaussian 16, Revision C.01,
 Gaussian 16:  ES64L-G16RevC.01  3-Jul-2019

 ----------------------------------------------------------------------
 # B3LYP/6-31G* empiricaldispersion=gd3bj guess=read geom=check nosymm
 integral(ultrafinegrid)
 ----------------------------------------------------------------------

 ------------------------------------------------------
 Candidate Structure: Conf:549 Charge calc in gas phase
 ------------------------------------------------------
 Structure from the checkpoint file:  "conf-549.chk"
 Charge =  1 Multiplicity = 1

                          Input orientation:
 ---------------------------------------------------------------------
 Center     Atomic      Atomic             Coordinates (Angstroms)
 Number     Number       Type             X           Y           Z
 ---------------------------------------------------------------------
      1          7           0       -8.480488   -7.303040    0.423787
      2          1           0       -8.716842   -8.238620    0.080569
      3          1           0       -9.072116   -7.086774    1.230674
      4          1           0       -7.449133   -7.287325    0.680518
      5          6           0       -8.536252   -6.237364   -0.654283
      6          1           0       -9.196781   -6.584189   -1.449859
      7          6           0       -7.056908   -6.154518   -1.101481
      8          6           0       -9.031901   -4.922339   -0.027796
      9          1           0       -8.358272   -4.668978    0.801816
     10          1           0      -10.028626   -5.106295    0.399145
     11          8           0       -6.202345   -6.569860   -0.303171
     12          6           0       -9.124328   -3.721619   -0.991455
     13          1           0       -8.128201   -3.519201   -1.397078
     14          6           0      -10.074749   -3.985113   -2.165600
     15          1           0      -11.093818   -4.183958   -1.811255
     16          1           0       -9.766860   -4.833086   -2.790108
     17          1           0      -10.108166   -3.112673   -2.823328
     18          6           0       -9.559433   -2.479236   -0.204442
     19          1           0      -10.564338   -2.606032    0.216354
     20          1           0       -8.869219   -2.263503    0.618577
     21          1           0       -9.578676   -1.604628   -0.861206
     22          7           0       -6.826754   -5.621215   -2.293401
     23          1           0       -7.583662   -5.192717   -2.828294
     24          6           0       -5.518914   -5.141504   -2.749452
     25          1           0       -4.854372   -5.095593   -1.881567
     26          6           0       -5.835378   -3.732886   -3.291288
     27          6           0       -4.902763   -6.069684   -3.826835
     28          1           0       -5.576448   -6.042313   -4.694304
     29          8           0       -6.964429   -3.502322   -3.740391
     30          6           0       -3.518328   -5.569552   -4.261311
     31          1           0       -2.828306   -5.534486   -3.408351
     32          1           0       -3.547861   -4.575553   -4.714675
     33          1           0       -3.089881   -6.255721   -4.997877
     34          6           0       -4.819522   -7.510886   -3.310437
     35          1           0       -4.193662   -7.571112   -2.412851
     36          1           0       -4.379411   -8.158664   -4.074816
     37          1           0       -5.807498   -7.911348   -3.063156
     38          7           0       -4.852318   -2.827685   -3.210029
     39          1           0       -3.915217   -3.096474   -2.926801
     40          6           0       -4.945610   -1.481103   -3.763417
     41          1           0       -5.782773   -1.467097   -4.466958
     42          6           0       -3.613754   -1.242802   -4.477138
     43          6           0       -5.188950   -0.423822   -2.647383
     44          1           0       -4.337306   -0.478489   -1.957844
     45          8           0       -2.575795   -1.754414   -4.025688
     46          6           0       -5.243873    0.999624   -3.216615
     47          1           0       -5.994893    1.082219   -4.014282
     48          1           0       -4.279131    1.334798   -3.603300
     49          1           0       -5.532736    1.699255   -2.426176
     50          6           0       -6.471327   -0.759211   -1.875255
     51          1           0       -7.343826   -0.759229   -2.538885
     52          1           0       -6.409880   -1.741789   -1.396558
     53          1           0       -6.638114   -0.014622   -1.090239
     54          7           0       -3.638649   -0.461897   -5.566370
     55          1           0       -4.479797    0.057764   -5.804279
     56          6           0       -2.428263    0.101739   -6.166585
     57          1           0       -1.733933   -0.708301   -6.406688
     58          6           0       -1.819777    1.089595   -5.156218
     59          6           0       -2.871835    0.855798   -7.432658
     60          1           0       -3.205740    0.141899   -8.191208
     61          1           0       -2.017753    1.416311   -7.836741
     62          8           0       -2.371288    2.180002   -4.954528
     63          8           0       -3.973451    1.695469   -7.137526
     64          1           0       -3.650335    2.287326   -6.424595
     65          7           0       -0.722313    0.668715   -4.508042
     66          1           0       -0.299260   -0.222317   -4.737772
     67          6           0       -0.161699    1.361601   -3.363247
     68          1           0       -0.591143    2.365227   -3.352693
     69          6           0        1.357268    1.354505   -3.520018
     70          6           0       -0.541003    0.609404   -2.044678
     71          1           0        0.089205   -0.291544   -2.001383
     72          8           0        1.921554    0.340998   -3.923738
     73          6           0       -0.292715    1.468912   -0.814278
     74          1           0        0.757425    1.760519   -0.724864
     75          1           0       -0.908010    2.374805   -0.857630
     76          1           0       -0.569994    0.910991    0.084181
     77          8           0       -1.910665    0.238807   -2.056191
     78          1           0       -2.004830   -0.509089   -2.673806
     79          7           0        1.993734    2.494665   -3.154590
     80          1           0        1.471456    3.212186   -2.663495
     81          6           0        3.426370    2.530023   -2.911903
     82          1           0        3.801748    1.514174   -3.062939
     83          6           0        3.613417    2.974192   -1.460263
     84          6           0        4.138810    3.488836   -3.892193
     85          1           0        3.746478    4.502037   -3.747760
     86          1           0        3.876060    3.163642   -4.902486
     87          8           0        2.772610    3.699752   -0.908248
     88          6           0        5.671377    3.493953   -3.766342
     89          1           0        5.992587    3.853954   -2.784356
     90          1           0        6.077972    4.178587   -4.518086
     91          6           0        6.225911    2.103181   -4.071706
     92          7           0        6.910794    1.496482   -3.053235
     93          1           0        7.252080    1.991251   -2.233416
     94          1           0        7.335261    0.602826   -3.267433
     95          8           0        5.997687    1.547696   -5.136473
     96          7           0        4.745105    2.572728   -0.857747
     97          1           0        5.382208    1.936277   -1.325980
     98          6           0        5.127722    3.048205    0.457684
     99          1           0        4.726762    4.062795    0.567215
    100          6           0        6.659716    3.097627    0.491488
    101          6           0        4.496268    2.169821    1.579452
    102          1           0        4.970561    1.180480    1.542115
    103          8           0        7.341868    2.426104   -0.293334
    104          6           0        4.668602    2.769410    2.975614
    105          1           0        5.711272    2.794327    3.305468
    106          1           0        4.267744    3.790652    3.011874
    107          1           0        4.098704    2.164724    3.686082
    108          8           0        3.122605    1.951739    1.296091
    109          1           0        2.764464    2.755415    0.874035
    110          7           0        7.200842    3.905982    1.415369
    111          1           0        6.636627    4.387538    2.110877
    112          6           0        8.628317    3.959045    1.679423
    113          1           0        9.030863    2.941225    1.618042
    114          6           0        8.763847    4.480138    3.120362
    115          6           0        9.365408    4.850074    0.668316
    116          1           0       10.442495    4.860968    0.862588
    117          1           0        9.199842    4.461945   -0.339557
    118          1           0        8.991943    5.877436    0.721679
    119          8           0        7.780619    4.895414    3.740423
    120          7           0       10.008784    4.462376    3.625841
    121          1           0       10.807705    4.121903    3.099967
    122          6           0       10.329152    4.960858    4.953308
    123          1           0        9.767025    5.884815    5.116538
    124          6           0       11.835549    5.239182    4.935565
    125          6           0        9.947004    3.922138    6.034610
    126          1           0        8.896351    3.666565    5.853858
    127          1           0       10.538653    3.016696    5.849422
    128          8           0       12.576424    4.669096    4.133369
    129          6           0       10.106516    4.356643    7.501942
    130          1           0       11.161923    4.590480    7.693314
    131          6           0        9.269527    5.599093    7.837122
    132          1           0        8.209102    5.421842    7.619857
    133          1           0        9.571789    6.486057    7.267376
    134          1           0        9.362903    5.853033    8.897957
    135          6           0        9.719691    3.190113    8.420550
    136          1           0        8.665632    2.918311    8.282635
    137          1           0        9.861576    3.457205    9.473374
    138          1           0       10.325530    2.300829    8.212376
    139          7           0       12.283757    6.118952    5.857290
    140          1           0       11.660954    6.495894    6.561924
    141          6           0       13.702474    6.332280    6.085472
    142          1           0       14.222896    5.374545    5.969267
    143          6           0       13.852849    6.787053    7.527669
    144          6           0       14.312027    7.340960    5.098659
    145          1           0       15.381391    7.464076    5.287593
    146          1           0       14.169368    6.963075    4.083805
    147          1           0       13.818917    8.313998    5.188650
    148          8           0       12.925563    7.012274    8.277755
    149          8           0       15.143170    6.926344    7.876789
    150          1           0       15.155302    7.232709    8.803542
 ---------------------------------------------------------------------

 SCF Done:  E(RB3LYP) =  -3455.81798947     A.U. after    1 cycles

 Alpha  occ. eigenvalues --  -19.26706 -19.25685 -19.21746 -19.20714 -19.20239
 Alpha  occ. eigenvalues --  -19.19966 -19.18725 -19.18268 -19.18144 -19.17649
 Alpha  occ. eigenvalues --  -19.17586 -19.17259 -19.17161 -19.16492 -19.14258
 Alpha  occ. eigenvalues --  -14.60256 -14.49242 -14.45667 -14.44521 -14.42572
 Alpha  occ. eigenvalues --  -14.41726 -14.41644 -14.41408 -14.41137 -14.40916
 Alpha  occ. eigenvalues --  -14.38683 -10.43390 -10.40609 -10.38830 -10.38111
 Alpha  occ. eigenvalues --  -10.37511 -10.35421 -10.35205 -10.34415 -10.34254
 Alpha  occ. eigenvalues --  -10.34140 -10.34061 -10.33685 -10.33301 -10.32110
 Alpha  occ. eigenvalues --  -10.31526 -10.30559 -10.30476 -10.29936 -10.29434
 Alpha  occ. eigenvalues --  -10.29179 -10.29075 -10.28957 -10.28924 -10.28855
 Alpha  occ. eigenvalues --  -10.28343 -10.28090 -10.28063 -10.27896 -10.27144
 Alpha  occ. eigenvalues --  -10.26685 -10.26238 -10.25982 -10.24647 -10.23768
 Alpha  occ. eigenvalues --  -10.23486 -10.23447 -10.23329 -10.23266 -10.23071
 Alpha  occ. eigenvalues --  -10.23044 -10.21915 -10.21820 -10.21537 -10.21225
 Alpha  occ. eigenvalues --   -1.19260  -1.16775  -1.14239  -1.13696  -1.12559
 Alpha  occ. eigenvalues --   -1.10425  -1.10359  -1.09670  -1.09363  -1.08714
 Alpha  occ. eigenvalues --   -1.08447  -1.07779  -1.07441  -1.06414  -1.06216
 Alpha  occ. eigenvalues --   -1.06095  -1.05382  -1.02280  -1.00768  -0.98734
 Alpha  occ. eigenvalues --   -0.98627  -0.98325  -0.98185  -0.97782  -0.97611
 Alpha  occ. eigenvalues --   -0.94825  -0.93332  -0.90932  -0.88312  -0.87905
 Alpha  occ. eigenvalues --   -0.86174  -0.85368  -0.84286  -0.83646  -0.83266
 Alpha  occ. eigenvalues --   -0.82750  -0.81903  -0.81257  -0.80080  -0.78682
 Alpha  occ. eigenvalues --   -0.78507  -0.78028  -0.77786  -0.77100  -0.76268
 Alpha  occ. eigenvalues --   -0.75043  -0.74678  -0.74094  -0.73202  -0.72570
 Alpha  occ. eigenvalues --   -0.72376  -0.71965  -0.71661  -0.70715  -0.70344
 Alpha  occ. eigenvalues --   -0.68968  -0.68122  -0.68088  -0.67638  -0.67362
 Alpha  occ. eigenvalues --   -0.67164  -0.66077  -0.65968  -0.65196  -0.64958
 Alpha  occ. eigenvalues --   -0.64626  -0.64476  -0.64115  -0.63825  -0.63381
 Alpha  occ. eigenvalues --   -0.63223  -0.63153  -0.62343  -0.61744  -0.60931
 Alpha  occ. eigenvalues --   -0.60635  -0.59922  -0.59424  -0.58919  -0.58305
 Alpha  occ. eigenvalues --   -0.57703  -0.57068  -0.57023  -0.56680  -0.56244
 Alpha  occ. eigenvalues --   -0.56049  -0.55917  -0.55684  -0.55257  -0.54991
 Alpha  occ. eigenvalues --   -0.54595  -0.54474  -0.54236  -0.53924  -0.53773
 Alpha  occ. eigenvalues --   -0.53617  -0.53273  -0.53182  -0.53012  -0.52834
 Alpha  occ. eigenvalues --   -0.52586  -0.52033  -0.51452  -0.51312  -0.51170
 Alpha  occ. eigenvalues --   -0.50736  -0.50494  -0.50321  -0.50258  -0.50059
 Alpha  occ. eigenvalues --   -0.49678  -0.49503  -0.49389  -0.49173  -0.49045
 Alpha  occ. eigenvalues --   -0.48801  -0.48768  -0.48429  -0.48303  -0.48083
 Alpha  occ. eigenvalues --   -0.47821  -0.47710  -0.47546  -0.47388  -0.47363
 Alpha  occ. eigenvalues --   -0.47259  -0.46750  -0.46676  -0.46435  -0.46302
 Alpha  occ. eigenvalues --   -0.46116  -0.46082  -0.45963  -0.45684  -0.45370
 Alpha  occ. eigenvalues --   -0.45135  -0.44786  -0.44739  -0.44685  -0.44506
 Alpha  occ. eigenvalues --   -0.44301  -0.44152  -0.43981  -0.43927  -0.43769
 Alpha  occ. eigenvalues --   -0.43750  -0.43471  -0.43386  -0.43034  -0.42970
 Alpha  occ. eigenvalues --   -0.42912  -0.42609  -0.42546  -0.42508  -0.42491
 Alpha  occ. eigenvalues --   -0.42169  -0.41886  -0.41784  -0.41700  -0.41307
 Alpha  occ. eigenvalues --   -0.41208  -0.41102  -0.40989  -0.40690  -0.40328
 Alpha  occ. eigenvalues --   -0.40043  -0.40030  -0.39868  -0.39857  -0.39799
 Alpha  occ. eigenvalues --   -0.38756  -0.38752  -0.37923  -0.37615  -0.37594
 Alpha  occ. eigenvalues --   -0.37420  -0.36925  -0.36730  -0.36155  -0.35707
 Alpha  occ. eigenvalues --   -0.34993  -0.34034  -0.33869  -0.33375  -0.32920
 Alpha  occ. eigenvalues --   -0.32892  -0.32258  -0.32188  -0.31813  -0.31651
 Alpha  occ. eigenvalues --   -0.31297  -0.31101  -0.30919  -0.30733  -0.30387
 Alpha  occ. eigenvalues --   -0.30141  -0.30025  -0.29726  -0.29444  -0.28030
 Alpha virt. eigenvalues --   -0.12426  -0.11072  -0.07938  -0.06912  -0.06412
 Alpha virt. eigenvalues --   -0.05003  -0.04711  -0.04595  -0.04484  -0.03643
 Alpha virt. eigenvalues --   -0.03360  -0.02669  -0.02320  -0.02189  -0.01097

 Mulliken charges:
               1
     1  N   -0.752817
     2  H    0.416644
     3  H    0.413430
     4  H    0.431964
     5  C   -0.122117
     6  H    0.213894
     7  C    0.646465
     8  C   -0.285201
     9  H    0.172801
    10  H    0.162771
    11  O   -0.541457
    12  C   -0.113322
    13  H    0.168523
    14  C   -0.456866
    15  H    0.153914
    16  H    0.132232
    17  H    0.192500
    18  C   -0.451543
    19  H    0.153358
    20  H    0.156339
    21  H    0.178247
    22  N   -0.599517
    23  H    0.385505
    24  C   -0.074489
    25  H    0.186053
    26  C    0.633349
    27  C   -0.076874
    28  H    0.150623
    29  O   -0.555506
    30  C   -0.474772
    31  H    0.154504
    32  H    0.168971
    33  H    0.172223
    34  C   -0.446022
    35  H    0.162820
    36  H    0.168808
    37  H    0.131531
    38  N   -0.598435
    39  H    0.361537
    40  C   -0.068331
    41  H    0.182515
    42  C    0.639807
    43  C   -0.082725
    44  H    0.169024
    45  O   -0.579712
    46  C   -0.492326
    47  H    0.137117
    48  H    0.200149
    49  H    0.162136
    50  C   -0.452502
    51  H    0.153389
    52  H    0.132806
    53  H    0.158793
    54  N   -0.582976
    55  H    0.363737
    56  C   -0.087454
    57  H    0.171565
    58  C    0.643176
    59  C   -0.056929
    60  H    0.164002
    61  H    0.160789
    62  O   -0.553523
    63  O   -0.636197
    64  H    0.427045
    65  N   -0.589520
    66  H    0.356990
    67  C   -0.072097
    68  H    0.182995
    69  C    0.620250
    70  C    0.122424
    71  H    0.138498
    72  O   -0.531588
    73  C   -0.469433
    74  H    0.167764
    75  H    0.155226
    76  H    0.163950
    77  O   -0.664782
    78  H    0.434877
    79  N   -0.596179
    80  H    0.351221
    81  C   -0.088761
    82  H    0.208334
    83  C    0.640994
    84  C   -0.258902
    85  H    0.149325
    86  H    0.191835
    87  O   -0.579021
    88  C   -0.366677
    89  H    0.143948
    90  H    0.180298
    91  C    0.572572
    92  N   -0.787252
    93  H    0.387579
    94  H    0.339486
    95  O   -0.499245
    96  N   -0.598394
    97  H    0.366540
    98  C   -0.118427
    99  H    0.178596
   100  C    0.629159
   101  C    0.180534
   102  H    0.138208
   103  O   -0.565829
   104  C   -0.478169
   105  H    0.155687
   106  H    0.146024
   107  H    0.171389
   108  O   -0.646745
   109  H    0.417807
   110  N   -0.609033
   111  H    0.369944
   112  C   -0.046363
   113  H    0.184051
   114  C    0.627968
   115  C   -0.448441
   116  H    0.159971
   117  H    0.181085
   118  H    0.163433
   119  O   -0.549856
   120  N   -0.625405
   121  H    0.358490
   122  C   -0.051278
   123  H    0.179308
   124  C    0.615286
   125  C   -0.256047
   126  H    0.166654
   127  H    0.143739
   128  O   -0.542655
   129  C   -0.094059
   130  H    0.132857
   131  C   -0.452110
   132  H    0.155171
   133  H    0.133666
   134  H    0.158379
   135  C   -0.444423
   136  H    0.144329
   137  H    0.149922
   138  H    0.144727
   139  N   -0.621511
   140  H    0.369255
   141  C   -0.031135
   142  H    0.203099
   143  C    0.586016
   144  C   -0.449409
   145  H    0.176135
   146  H    0.188548
   147  H    0.157920
   148  O   -0.469260
   149  O   -0.557802
   150  H    0.423901
 Sum of Mulliken charges =   1.00000

 Dipole moment (field-independent basis, Debye):
    X=            -21.4868    Y=            -19.5526    Z=              4.9862  Tot=             29.4762
 Quadrupole moment (field-independent basis, Debye-Ang):
   XX=             42.9253   YY=           -187.4767   ZZ=           -368.8217
   XY=            320.7118   XZ=            101.8158   YZ=             48.6694

 Normal termination of Gaussian 16 at Sun Jul 24 19:00:59 2022.
