 Gaussian 16, Revision C.01,
 Gaussian 16:  ES64L-G16RevC.01  3-Jul-2019

 ----------------------------------------------------------------------
 # B3LYP/6-31G* empiricaldispersion=gd3bj guess=read geom=check nosymm
 integral(ultrafinegrid)
 ----------------------------------------------------------------------

 ------------------------------------------------------
 Candidate Structure: Conf:961 Charge calc in gas phase
 ------------------------------------------------------
 Structure from the checkpoint file:  "conf-961.chk"
 Charge =  1 Multiplicity = 1

                          Input orientation:
 ---------------------------------------------------------------------
 Center     Atomic      Atomic             Coordinates (Angstroms)
 Number     Number       Type             X           Y           Z
 ---------------------------------------------------------------------
      1          7           0        0.139137    1.109339   -5.612582
      2          1           0       -0.043967    1.621909   -4.694885
      3          1           0        0.179535    1.779830   -6.385395
      4          1           0        1.032727    0.598586   -5.567547
      5          6           0       -0.960149    0.088658   -5.794344
      6          1           0       -1.874433    0.562124   -5.439643
      7          6           0       -0.528495   -1.084830   -4.898646
      8          6           0       -1.077456   -0.340946   -7.254015
      9          1           0       -0.099889   -0.713316   -7.581468
     10          1           0       -1.325755    0.539679   -7.864104
     11          8           0        0.559398   -1.612707   -5.121331
     12          6           0       -2.138858   -1.434442   -7.485451
     13          1           0       -1.821723   -2.324950   -6.925133
     14          6           0       -3.530404   -1.018801   -6.987684
     15          1           0       -3.847567   -0.073246   -7.445791
     16          1           0       -3.574031   -0.904744   -5.898126
     17          1           0       -4.272075   -1.777517   -7.255592
     18          6           0       -2.174098   -1.801050   -8.973822
     19          1           0       -2.501338   -0.947605   -9.580267
     20          1           0       -1.187364   -2.113201   -9.332580
     21          1           0       -2.873085   -2.623872   -9.152881
     22          7           0       -1.383724   -1.401556   -3.919150
     23          1           0       -2.264869   -0.903685   -3.816011
     24          6           0       -1.226657   -2.512192   -2.995560
     25          1           0       -0.972676   -3.407334   -3.575202
     26          6           0       -2.616410   -2.666070   -2.347489
     27          6           0       -0.143049   -2.321586   -1.858834
     28          1           0       -0.687797   -2.106712   -0.933814
     29          8           0       -3.517408   -1.852980   -2.596509
     30          6           0        0.642160   -3.628476   -1.679409
     31          1           0        1.229953   -3.845080   -2.578808
     32          1           0        0.001482   -4.500794   -1.493836
     33          1           0        1.329403   -3.549102   -0.831757
     34          6           0        0.833019   -1.161520   -2.085747
     35          1           0        1.515891   -1.370326   -2.911915
     36          1           0        1.428087   -1.020240   -1.177155
     37          1           0        0.321007   -0.218831   -2.291909
     38          7           0       -2.764681   -3.645693   -1.428303
     39          1           0       -1.938217   -4.175135   -1.186014
     40          6           0       -3.759644   -3.490298   -0.360306
     41          1           0       -4.752650   -3.697077   -0.773600
     42          6           0       -3.680171   -2.023039    0.082281
     43          6           0       -3.495178   -4.473764    0.805115
     44          1           0       -3.595743   -5.478318    0.371910
     45          8           0       -2.595285   -1.482250    0.279258
     46          6           0       -2.095222   -4.340675    1.424530
     47          1           0       -1.924649   -3.334631    1.816098
     48          1           0       -1.286505   -4.561375    0.717862
     49          1           0       -1.996775   -5.054235    2.248074
     50          6           0       -4.573228   -4.302943    1.885570
     51          1           0       -4.432964   -3.374351    2.450813
     52          1           0       -5.583990   -4.309631    1.460182
     53          1           0       -4.513379   -5.125026    2.604477
     54          7           0       -4.844920   -1.316425    0.177781
     55          1           0       -5.711960   -1.770651   -0.079042
     56          6           0       -4.737237    0.130777    0.013137
     57          1           0       -3.773337    0.268625   -0.480015
     58          6           0       -4.460590    0.936372    1.282582
     59          6           0       -5.758015    0.697456   -0.964243
     60          1           0       -5.839437    1.773560   -0.806174
     61          1           0       -6.752207    0.249481   -0.824029
     62          8           0       -4.258918    2.149233    1.177286
     63          8           0       -5.305625    0.512459   -2.310992
     64          1           0       -5.003682   -0.410397   -2.414475
     65          7           0       -4.231538    0.215847    2.397656
     66          1           0       -4.332498   -0.791860    2.341311
     67          6           0       -3.225315    0.623390    3.378886
     68          1           0       -3.389484    1.669360    3.648843
     69          6           0       -1.847702    0.447726    2.704271
     70          6           0       -3.338670   -0.298652    4.606716
     71          1           0       -2.477287   -0.084977    5.252422
     72          8           0       -1.141825   -0.549132    2.920651
     73          6           0       -4.634758   -0.095954    5.372253
     74          1           0       -4.695866    0.922930    5.768411
     75          1           0       -5.501005   -0.269859    4.726254
     76          1           0       -4.679565   -0.799437    6.207706
     77          8           0       -3.292785   -1.657380    4.157651
     78          1           0       -2.386956   -1.756617    3.802272
     79          7           0       -1.495715    1.404133    1.819944
     80          1           0       -2.131368    2.182004    1.678184
     81          6           0       -0.293490    1.288960    0.982886
     82          1           0       -0.147581    0.215463    0.817927
     83          6           0        0.914744    1.835264    1.773935
     84          6           0       -0.452241    2.007045   -0.356559
     85          1           0        0.462002    1.846573   -0.931986
     86          1           0       -0.513386    3.087408   -0.193231
     87          8           0        1.520858    2.850708    1.436761
     88          6           0       -1.669192    1.502796   -1.136360
     89          1           0       -2.590254    1.908781   -0.707480
     90          1           0       -1.740971    0.410475   -1.043139
     91          6           0       -1.647413    1.808959   -2.619708
     92          7           0       -2.837719    1.726376   -3.254662
     93          1           0       -3.714344    1.461462   -2.790356
     94          1           0       -2.906437    2.069579   -4.203278
     95          8           0       -0.589951    2.068439   -3.225899
     96          7           0        1.194406    1.117344    2.883863
     97          1           0        0.582473    0.334234    3.103491
     98          6           0        1.988299    1.673831    3.973336
     99          1           0        1.953640    2.766326    3.872924
    100          6           0        3.451419    1.214987    3.825055
    101          6           0        1.363920    1.254457    5.315833
    102          1           0        1.453666    0.168756    5.411910
    103          8           0        3.957202    0.371522    4.563675
    104          6           0        2.038287    1.928422    6.502960
    105          1           0        3.089240    1.637118    6.559079
    106          1           0        1.983106    3.022281    6.413367
    107          1           0        1.537807    1.633311    7.429677
    108          8           0       -0.049131    1.510413    5.296210
    109          1           0       -0.162991    2.472368    5.365477
    110          7           0        4.103758    1.805308    2.798212
    111          1           0        3.621092    2.441610    2.164914
    112          6           0        5.459443    1.425201    2.448212
    113          1           0        6.034946    1.334568    3.375552
    114          6           0        6.031028    2.539090    1.568037
    115          6           0        5.506795    0.080325    1.701844
    116          1           0        6.539079   -0.199124    1.466054
    117          1           0        5.067229   -0.695546    2.333292
    118          1           0        4.940666    0.153021    0.767285
    119          8           0        5.304772    3.228973    0.852537
    120          7           0        7.375699    2.661570    1.602112
    121          1           0        7.955114    2.106949    2.222833
    122          6           0        8.092926    3.629282    0.791697
    123          1           0        7.641604    3.638351   -0.204910
    124          6           0        9.541289    3.138963    0.729737
    125          6           0        7.997242    5.042022    1.416660
    126          1           0        6.928833    5.238031    1.563309
    127          1           0        8.459755    4.995012    2.410419
    128          8           0       10.014364    2.437907    1.623087
    129          6           0        8.613776    6.199485    0.613183
    130          1           0        9.686262    6.008836    0.477920
    131          6           0        7.973360    6.351635   -0.773792
    132          1           0        6.890149    6.499606   -0.685895
    133          1           0        8.126338    5.474324   -1.414547
    134          1           0        8.392464    7.214801   -1.302127
    135          6           0        8.471637    7.503400    1.409380
    136          1           0        7.414421    7.750036    1.568290
    137          1           0        8.934796    8.342004    0.877568
    138          1           0        8.948193    7.422567    2.392764
    139          7           0       10.260178    3.545918   -0.344516
    140          1           0        9.845064    4.175777   -1.015791
    141          6           0       11.690805    3.289304   -0.433634
    142          1           0       12.085015    3.302220    0.589367
    143          6           0       12.416694    4.389342   -1.193208
    144          6           0       12.005492    1.917786   -1.047890
    145          1           0       13.086691    1.767863   -1.092384
    146          1           0       11.556325    1.141341   -0.424545
    147          1           0       11.595673    1.843633   -2.060508
    148          8           0       13.595465    4.363464   -1.451298
    149          8           0       11.603226    5.412680   -1.565948
    150          1           0       12.168995    6.052882   -2.038056
 ---------------------------------------------------------------------

 SCF Done:  E(RB3LYP) =  -3455.83250632     A.U. after    1 cycles

 Alpha  occ. eigenvalues --  -19.26160 -19.25825 -19.25148 -19.24666 -19.24080
 Alpha  occ. eigenvalues --  -19.23172 -19.21100 -19.20922 -19.20904 -19.20783
 Alpha  occ. eigenvalues --  -19.19697 -19.18219 -19.17337 -19.16179 -19.15848
 Alpha  occ. eigenvalues --  -14.57048 -14.48302 -14.47779 -14.47660 -14.47006
 Alpha  occ. eigenvalues --  -14.44743 -14.44723 -14.41943 -14.41422 -14.40638
 Alpha  occ. eigenvalues --  -14.39695 -10.41476 -10.41439 -10.41427 -10.39967
 Alpha  occ. eigenvalues --  -10.38269 -10.38185 -10.38050 -10.37534 -10.34979
 Alpha  occ. eigenvalues --  -10.34944 -10.34406 -10.34333 -10.34070 -10.33325
 Alpha  occ. eigenvalues --  -10.33315 -10.33011 -10.31401 -10.31368 -10.31237
 Alpha  occ. eigenvalues --  -10.30785 -10.30020 -10.29722 -10.29656 -10.29421
 Alpha  occ. eigenvalues --  -10.29411 -10.29018 -10.28376 -10.28281 -10.27854
 Alpha  occ. eigenvalues --  -10.27768 -10.27295 -10.27169 -10.26675 -10.26231
 Alpha  occ. eigenvalues --  -10.26203 -10.26168 -10.23880 -10.23707 -10.23147
 Alpha  occ. eigenvalues --  -10.23120 -10.22858 -10.22500 -10.22461 -10.21681
 Alpha  occ. eigenvalues --   -1.17306  -1.16713  -1.16484  -1.15614  -1.15172
 Alpha  occ. eigenvalues --   -1.13363  -1.12785  -1.12279  -1.11595  -1.10007
 Alpha  occ. eigenvalues --   -1.09529  -1.08364  -1.08295  -1.07944  -1.07602
 Alpha  occ. eigenvalues --   -1.07348  -1.05131  -1.04573  -1.03966  -1.02050
 Alpha  occ. eigenvalues --   -1.01669  -1.00762  -0.98641  -0.98299  -0.97330
 Alpha  occ. eigenvalues --   -0.96399  -0.93570  -0.91678  -0.89890  -0.89012
 Alpha  occ. eigenvalues --   -0.87075  -0.86920  -0.86268  -0.84889  -0.83912
 Alpha  occ. eigenvalues --   -0.83504  -0.83394  -0.81873  -0.81397  -0.80743
 Alpha  occ. eigenvalues --   -0.78657  -0.78506  -0.78391  -0.77765  -0.77547
 Alpha  occ. eigenvalues --   -0.76951  -0.76111  -0.75347  -0.73320  -0.73049
 Alpha  occ. eigenvalues --   -0.72730  -0.72489  -0.71855  -0.71276  -0.71071
 Alpha  occ. eigenvalues --   -0.70579  -0.69799  -0.69430  -0.68876  -0.68055
 Alpha  occ. eigenvalues --   -0.68010  -0.67816  -0.67409  -0.67223  -0.66457
 Alpha  occ. eigenvalues --   -0.66208  -0.65747  -0.64947  -0.64843  -0.64424
 Alpha  occ. eigenvalues --   -0.64113  -0.63402  -0.63216  -0.62439  -0.62191
 Alpha  occ. eigenvalues --   -0.61586  -0.61206  -0.61083  -0.60801  -0.60233
 Alpha  occ. eigenvalues --   -0.60000  -0.59764  -0.59438  -0.58907  -0.58481
 Alpha  occ. eigenvalues --   -0.57877  -0.57838  -0.57716  -0.57387  -0.56707
 Alpha  occ. eigenvalues --   -0.56504  -0.55771  -0.55277  -0.54916  -0.54634
 Alpha  occ. eigenvalues --   -0.54517  -0.54372  -0.54168  -0.53736  -0.53723
 Alpha  occ. eigenvalues --   -0.53579  -0.53279  -0.53194  -0.53104  -0.52643
 Alpha  occ. eigenvalues --   -0.52547  -0.52432  -0.52203  -0.52114  -0.51934
 Alpha  occ. eigenvalues --   -0.51870  -0.51016  -0.50781  -0.50716  -0.50482
 Alpha  occ. eigenvalues --   -0.50041  -0.49799  -0.49638  -0.49440  -0.49367
 Alpha  occ. eigenvalues --   -0.49214  -0.49100  -0.48798  -0.48513  -0.48279
 Alpha  occ. eigenvalues --   -0.48111  -0.48078  -0.47939  -0.47604  -0.47505
 Alpha  occ. eigenvalues --   -0.47153  -0.47080  -0.47023  -0.46914  -0.46794
 Alpha  occ. eigenvalues --   -0.46669  -0.46591  -0.46307  -0.46194  -0.45565
 Alpha  occ. eigenvalues --   -0.45152  -0.44997  -0.44896  -0.44778  -0.44464
 Alpha  occ. eigenvalues --   -0.44426  -0.44381  -0.44038  -0.43780  -0.43646
 Alpha  occ. eigenvalues --   -0.43471  -0.43388  -0.43300  -0.43224  -0.43141
 Alpha  occ. eigenvalues --   -0.43097  -0.43063  -0.42977  -0.42933  -0.42833
 Alpha  occ. eigenvalues --   -0.42712  -0.42664  -0.42498  -0.42249  -0.42044
 Alpha  occ. eigenvalues --   -0.41973  -0.41621  -0.40983  -0.40394  -0.40283
 Alpha  occ. eigenvalues --   -0.39654  -0.39567  -0.39260  -0.38997  -0.38993
 Alpha  occ. eigenvalues --   -0.38402  -0.38270  -0.38180  -0.38159  -0.37859
 Alpha  occ. eigenvalues --   -0.37731  -0.37325  -0.37112  -0.37069  -0.37059
 Alpha  occ. eigenvalues --   -0.36251  -0.35385  -0.34488  -0.34028  -0.33846
 Alpha  occ. eigenvalues --   -0.33468  -0.32841  -0.32605  -0.31567  -0.31251
 Alpha  occ. eigenvalues --   -0.31188  -0.30461  -0.29840  -0.29023  -0.28677
 Alpha virt. eigenvalues --   -0.11736  -0.11302  -0.10072  -0.09257  -0.08805
 Alpha virt. eigenvalues --   -0.07547  -0.06246  -0.05327  -0.04947  -0.04221
 Alpha virt. eigenvalues --   -0.03691  -0.03483  -0.03043  -0.02650  -0.02296

 Mulliken charges:
               1
     1  N   -0.770234
     2  H    0.453406
     3  H    0.398163
     4  H    0.410482
     5  C   -0.106951
     6  H    0.171160
     7  C    0.645799
     8  C   -0.272803
     9  H    0.179183
    10  H    0.148089
    11  O   -0.527881
    12  C   -0.090949
    13  H    0.154058
    14  C   -0.462481
    15  H    0.150920
    16  H    0.133565
    17  H    0.175600
    18  C   -0.449955
    19  H    0.153597
    20  H    0.160065
    21  H    0.167004
    22  N   -0.635896
    23  H    0.378506
    24  C   -0.035343
    25  H    0.196838
    26  C    0.623202
    27  C   -0.129864
    28  H    0.198001
    29  O   -0.574958
    30  C   -0.473979
    31  H    0.176259
    32  H    0.136060
    33  H    0.176991
    34  C   -0.484432
    35  H    0.176847
    36  H    0.166752
    37  H    0.145857
    38  N   -0.604373
    39  H    0.355013
    40  C   -0.011996
    41  H    0.162395
    42  C    0.612390
    43  C   -0.122972
    44  H    0.157645
    45  O   -0.515088
    46  C   -0.475971
    47  H    0.192981
    48  H    0.135489
    49  H    0.173831
    50  C   -0.482844
    51  H    0.186776
    52  H    0.140038
    53  H    0.178605
    54  N   -0.629353
    55  H    0.342732
    56  C   -0.086374
    57  H    0.206928
    58  C    0.615982
    59  C   -0.057160
    60  H    0.202616
    61  H    0.155203
    62  O   -0.545901
    63  O   -0.650245
    64  H    0.434693
    65  N   -0.583155
    66  H    0.369633
    67  C   -0.086649
    68  H    0.183620
    69  C    0.682586
    70  C    0.103447
    71  H    0.174138
    72  O   -0.586533
    73  C   -0.452343
    74  H    0.152864
    75  H    0.154005
    76  H    0.175267
    77  O   -0.662604
    78  H    0.432339
    79  N   -0.612984
    80  H    0.367695
    81  C   -0.083279
    82  H    0.191988
    83  C    0.622052
    84  C   -0.285470
    85  H    0.190217
    86  H    0.181814
    87  O   -0.530148
    88  C   -0.420632
    89  H    0.191447
    90  H    0.210725
    91  C    0.638206
    92  N   -0.787010
    93  H    0.411475
    94  H    0.338439
    95  O   -0.581697
    96  N   -0.613681
    97  H    0.387094
    98  C   -0.079362
    99  H    0.162908
   100  C    0.642625
   101  C    0.114327
   102  H    0.168144
   103  O   -0.543602
   104  C   -0.481461
   105  H    0.194099
   106  H    0.132357
   107  H    0.165704
   108  O   -0.633574
   109  H    0.387291
   110  N   -0.628897
   111  H    0.378894
   112  C   -0.029152
   113  H    0.171993
   114  C    0.617444
   115  C   -0.447918
   116  H    0.151854
   117  H    0.183447
   118  H    0.147353
   119  O   -0.545214
   120  N   -0.624115
   121  H    0.354267
   122  C   -0.047999
   123  H    0.168322
   124  C    0.614638
   125  C   -0.256430
   126  H    0.169912
   127  H    0.146378
   128  O   -0.537102
   129  C   -0.094789
   130  H    0.135375
   131  C   -0.450152
   132  H    0.157835
   133  H    0.124688
   134  H    0.148182
   135  C   -0.443765
   136  H    0.145553
   137  H    0.144724
   138  H    0.148716
   139  N   -0.620383
   140  H    0.360763
   141  C   -0.045819
   142  H    0.214756
   143  C    0.589650
   144  C   -0.443462
   145  H    0.183944
   146  H    0.180780
   147  H    0.148798
   148  O   -0.446537
   149  O   -0.582701
   150  H    0.422121
 Sum of Mulliken charges =   1.00000

 Dipole moment (field-independent basis, Debye):
    X=             -8.9405    Y=              0.0845    Z=            -18.4322  Tot=             20.4862
 Quadrupole moment (field-independent basis, Debye-Ang):
   XX=           -348.2886   YY=           -360.7732   ZZ=           -292.9815
   XY=             53.9251   XZ=             -7.7239   YZ=             -6.9208

 Normal termination of Gaussian 16 at Sun Jul 24 19:01:29 2022.
