 Gaussian 16, Revision C.01,
 Gaussian 16:  ES64L-G16RevC.01  3-Jul-2019

 ----------------------------------------------------------------------
 # B3LYP/6-31G* empiricaldispersion=gd3bj guess=read geom=check nosymm
 integral(ultrafinegrid)
 ----------------------------------------------------------------------

 ------------------------------------------------------
 Candidate Structure: Conf:474 Charge calc in gas phase
 ------------------------------------------------------
 Structure from the checkpoint file:  "conf-474.chk"
 Charge =  1 Multiplicity = 1

                          Input orientation:
 ---------------------------------------------------------------------
 Center     Atomic      Atomic             Coordinates (Angstroms)
 Number     Number       Type             X           Y           Z
 ---------------------------------------------------------------------
      1          7           0       -4.883994   -4.014901  -10.426523
      2          1           0       -4.405226   -4.455589  -11.215801
      3          1           0       -5.855503   -3.835616  -10.694100
      4          1           0       -4.821674   -4.655641   -9.571641
      5          6           0       -4.181751   -2.776505   -9.911433
      6          1           0       -3.406307   -2.501597  -10.627929
      7          6           0       -3.568214   -3.271687   -8.576975
      8          6           0       -5.177135   -1.632255   -9.688889
      9          1           0       -4.624342   -0.809938   -9.218996
     10          1           0       -5.917950   -1.959050   -8.946119
     11          8           0       -3.923672   -4.387091   -8.162380
     12          6           0       -5.883566   -1.106525  -10.953094
     13          1           0       -6.466631   -1.927517  -11.406471
     14          6           0       -6.882410   -0.012754  -10.552457
     15          1           0       -6.359770    0.843592  -10.110617
     16          1           0       -7.609327   -0.379703   -9.819789
     17          1           0       -7.434083    0.345785  -11.426462
     18          6           0       -4.890420   -0.590817  -12.001637
     19          1           0       -4.267317    0.209471  -11.584806
     20          1           0       -4.222849   -1.374663  -12.380009
     21          1           0       -5.423340   -0.180520  -12.864412
     22          7           0       -2.732804   -2.434859   -7.984402
     23          1           0       -2.600181   -1.482573   -8.332073
     24          6           0       -2.240289   -2.556400   -6.610246
     25          1           0       -2.890610   -3.252598   -6.072306
     26          6           0       -2.378787   -1.117855   -6.067969
     27          6           0       -0.775285   -3.068032   -6.565918
     28          1           0       -0.156175   -2.297273   -7.045580
     29          8           0       -2.336601   -0.173631   -6.865883
     30          6           0       -0.292537   -3.263011   -5.122065
     31          1           0       -0.921513   -3.991241   -4.594077
     32          1           0       -0.285423   -2.340420   -4.537709
     33          1           0        0.727906   -3.657993   -5.125272
     34          6           0       -0.634834   -4.374170   -7.357535
     35          1           0       -1.282634   -5.155790   -6.945064
     36          1           0        0.398870   -4.730151   -7.308664
     37          1           0       -0.890614   -4.242478   -8.413419
     38          7           0       -2.555637   -0.993406   -4.745847
     39          1           0       -2.399352   -1.790785   -4.131626
     40          6           0       -2.450811    0.278481   -4.041542
     41          1           0       -1.901138    0.974696   -4.682909
     42          6           0       -1.641171   -0.027406   -2.768300
     43          6           0       -3.833772    0.892768   -3.700937
     44          1           0       -3.625162    1.836073   -3.178069
     45          8           0       -1.444192   -1.195618   -2.418090
     46          6           0       -4.618559    1.218515   -4.975870
     47          1           0       -4.879911    0.300877   -5.514782
     48          1           0       -4.040407    1.850732   -5.656620
     49          1           0       -5.549989    1.736736   -4.724215
     50          6           0       -4.641834   -0.009872   -2.762196
     51          1           0       -4.854981   -0.973606   -3.239200
     52          1           0       -4.112358   -0.208116   -1.825044
     53          1           0       -5.599612    0.459067   -2.515488
     54          7           0       -1.217904    1.043523   -2.080621
     55          1           0       -1.410472    1.996473   -2.379077
     56          6           0       -0.523102    0.958836   -0.810953
     57          1           0       -0.990384    0.197102   -0.179350
     58          6           0       -0.615272    2.342920   -0.174309
     59          6           0        0.970214    0.572802   -1.015105
     60          1           0        1.419566    1.294521   -1.710851
     61          1           0        0.992589   -0.417649   -1.476047
     62          8           0       -0.909685    3.334537   -0.843839
     63          8           0        1.676263    0.505785    0.203577
     64          1           0        1.990929    1.412505    0.408890
     65          7           0       -0.299750    2.382508    1.141226
     66          1           0        0.129510    1.556427    1.553744
     67          6           0        0.133549    3.616712    1.751679
     68          1           0       -0.583432    4.409178    1.518045
     69          6           0        1.511473    4.012209    1.201214
     70          6           0        0.213047    3.382880    3.290081
     71          1           0        0.768673    4.220427    3.736555
     72          8           0        2.244062    3.229235    0.589610
     73          6           0       -1.179286    3.310750    3.907867
     74          1           0       -1.730868    4.246120    3.759583
     75          1           0       -1.749724    2.493664    3.456324
     76          1           0       -1.091191    3.118020    4.980388
     77          8           0        0.891228    2.164859    3.518211
     78          1           0        1.800201    2.364011    3.845628
     79          7           0        1.893533    5.288647    1.463233
     80          1           0        1.336685    5.821884    2.120105
     81          6           0        3.299444    5.692384    1.338206
     82          1           0        3.650113    5.319675    0.372529
     83          6           0        4.044343    4.996352    2.483656
     84          6           0        3.446952    7.207456    1.412342
     85          1           0        4.507491    7.465964    1.344305
     86          1           0        3.116009    7.552609    2.398478
     87          8           0        3.901273    5.379763    3.654406
     88          6           0        2.698164    7.938092    0.297220
     89          1           0        1.612413    7.833978    0.405852
     90          1           0        2.954395    7.494338   -0.675336
     91          6           0        3.101133    9.412746    0.246431
     92          7           0        2.135636   10.260762   -0.215574
     93          1           0        1.259211    9.928673   -0.587980
     94          1           0        2.386742   11.227867   -0.367581
     95          8           0        4.208392    9.799874    0.587880
     96          7           0        4.767049    3.920845    2.133462
     97          1           0        4.727869    3.555734    1.186814
     98          6           0        5.440211    3.057264    3.089911
     99          1           0        5.903505    3.685376    3.859532
    100          6           0        6.501060    2.297135    2.285818
    101          6           0        4.449027    2.077696    3.772021
    102          1           0        4.001167    1.461622    2.981801
    103          8           0        6.321313    2.056018    1.094522
    104          6           0        5.104764    1.181095    4.814256
    105          1           0        5.788162    0.462121    4.354133
    106          1           0        5.636313    1.783744    5.563119
    107          1           0        4.321404    0.626272    5.338081
    108          8           0        3.378307    2.814520    4.382072
    109          1           0        3.604612    3.770064    4.423753
    110          7           0        7.621712    1.929457    2.953122
    111          1           0        7.613425    1.989202    3.962804
    112          6           0        8.538674    0.970358    2.350390
    113          1           0        8.905489    1.404749    1.415165
    114          6           0        7.783748   -0.339251    2.047598
    115          6           0        9.701586    0.694743    3.304165
    116          1           0       10.415109    0.007535    2.841042
    117          1           0       10.226036    1.622005    3.555067
    118          1           0        9.332122    0.229088    4.224463
    119          8           0        6.945397   -0.781245    2.831345
    120          7           0        8.143676   -0.948517    0.900704
    121          1           0        8.904140   -0.591289    0.334433
    122          6           0        7.593660   -2.215739    0.459810
    123          1           0        7.142074   -2.697482    1.330588
    124          6           0        8.761653   -3.043183   -0.083662
    125          6           0        6.543071   -2.026899   -0.658337
    126          1           0        7.060300   -1.584920   -1.520725
    127          1           0        6.195255   -3.020311   -0.976420
    128          8           0        9.768196   -2.501875   -0.540710
    129          6           0        5.333470   -1.156673   -0.281661
    130          1           0        5.708996   -0.196554    0.092604
    131          6           0        4.495632   -0.869888   -1.534376
    132          1           0        4.084001   -1.798106   -1.954081
    133          1           0        5.092545   -0.383036   -2.315344
    134          1           0        3.657270   -0.216162   -1.278587
    135          6           0        4.468763   -1.794574    0.813062
    136          1           0        4.136408   -2.798195    0.512153
    137          1           0        3.572602   -1.188728    0.984451
    138          1           0        5.013178   -1.873612    1.758190
    139          7           0        8.584288   -4.384324   -0.069312
    140          1           0        7.718537   -4.797196    0.256780
    141          6           0        9.540879   -5.289850   -0.679255
    142          1           0        9.860170   -4.871614   -1.641074
    143          6           0        8.816384   -6.598470   -0.939082
    144          6           0       10.788401   -5.504112    0.195602
    145          1           0       11.495182   -6.173595   -0.301313
    146          1           0       11.265735   -4.535807    0.359231
    147          1           0       10.508772   -5.932739    1.163188
    148          8           0        7.692446   -6.853522   -0.560037
    149          8           0        9.581295   -7.465003   -1.628760
    150          1           0        9.059228   -8.283656   -1.727347
 ---------------------------------------------------------------------

 SCF Done:  E(RB3LYP) =  -3455.82338002     A.U. after    1 cycles

 Alpha  occ. eigenvalues --  -19.26713 -19.25576 -19.21379 -19.20089 -19.19623
 Alpha  occ. eigenvalues --  -19.19438 -19.18939 -19.18499 -19.17913 -19.17903
 Alpha  occ. eigenvalues --  -19.17847 -19.17488 -19.16300 -19.15826 -19.15396
 Alpha  occ. eigenvalues --  -14.59743 -14.48971 -14.44706 -14.43215 -14.42778
 Alpha  occ. eigenvalues --  -14.42081 -14.41986 -14.40949 -14.40870 -14.40285
 Alpha  occ. eigenvalues --  -14.40196 -10.43242 -10.40436 -10.38315 -10.37954
 Alpha  occ. eigenvalues --  -10.35941 -10.35678 -10.34865 -10.34811 -10.34474
 Alpha  occ. eigenvalues --  -10.33672 -10.33393 -10.33337 -10.33327 -10.33027
 Alpha  occ. eigenvalues --  -10.32269 -10.30777 -10.29546 -10.29512 -10.29341
 Alpha  occ. eigenvalues --  -10.29301 -10.29165 -10.29122 -10.28813 -10.28766
 Alpha  occ. eigenvalues --  -10.28756 -10.28737 -10.28255 -10.28213 -10.27331
 Alpha  occ. eigenvalues --  -10.26885 -10.25887 -10.25170 -10.24847 -10.24322
 Alpha  occ. eigenvalues --  -10.24288 -10.24025 -10.23989 -10.22796 -10.22318
 Alpha  occ. eigenvalues --  -10.22007 -10.21192 -10.21126 -10.19854 -10.18691
 Alpha  occ. eigenvalues --   -1.19156  -1.16638  -1.13820  -1.13226  -1.11432
 Alpha  occ. eigenvalues --   -1.10924  -1.10431  -1.09653  -1.09358  -1.08568
 Alpha  occ. eigenvalues --   -1.07697  -1.07426  -1.07360  -1.06831  -1.06054
 Alpha  occ. eigenvalues --   -1.05902  -1.05435  -1.01499  -0.99645  -0.99369
 Alpha  occ. eigenvalues --   -0.98665  -0.98393  -0.98031  -0.97655  -0.96950
 Alpha  occ. eigenvalues --   -0.95239  -0.94770  -0.90968  -0.88609  -0.87741
 Alpha  occ. eigenvalues --   -0.86162  -0.85067  -0.83903  -0.83523  -0.82734
 Alpha  occ. eigenvalues --   -0.82367  -0.81559  -0.81230  -0.80288  -0.79237
 Alpha  occ. eigenvalues --   -0.78899  -0.77981  -0.77631  -0.76527  -0.76161
 Alpha  occ. eigenvalues --   -0.75245  -0.74840  -0.73891  -0.72903  -0.72279
 Alpha  occ. eigenvalues --   -0.71558  -0.71001  -0.70493  -0.70240  -0.69400
 Alpha  occ. eigenvalues --   -0.69299  -0.68790  -0.68188  -0.67356  -0.67227
 Alpha  occ. eigenvalues --   -0.66850  -0.65862  -0.65529  -0.65366  -0.64935
 Alpha  occ. eigenvalues --   -0.64360  -0.64050  -0.63801  -0.63621  -0.63362
 Alpha  occ. eigenvalues --   -0.63131  -0.62746  -0.62602  -0.61159  -0.60552
 Alpha  occ. eigenvalues --   -0.59645  -0.59497  -0.58485  -0.58342  -0.58157
 Alpha  occ. eigenvalues --   -0.57655  -0.57465  -0.57274  -0.57121  -0.56673
 Alpha  occ. eigenvalues --   -0.56504  -0.55990  -0.55633  -0.55618  -0.55468
 Alpha  occ. eigenvalues --   -0.54765  -0.54469  -0.54350  -0.54062  -0.53966
 Alpha  occ. eigenvalues --   -0.53525  -0.53006  -0.52941  -0.52732  -0.52573
 Alpha  occ. eigenvalues --   -0.52287  -0.51792  -0.51590  -0.51473  -0.51225
 Alpha  occ. eigenvalues --   -0.51028  -0.50804  -0.50316  -0.50220  -0.49958
 Alpha  occ. eigenvalues --   -0.49749  -0.49583  -0.49393  -0.49311  -0.49194
 Alpha  occ. eigenvalues --   -0.48946  -0.48654  -0.48290  -0.48094  -0.47810
 Alpha  occ. eigenvalues --   -0.47683  -0.47496  -0.47432  -0.47211  -0.47070
 Alpha  occ. eigenvalues --   -0.47054  -0.46592  -0.46229  -0.46136  -0.45867
 Alpha  occ. eigenvalues --   -0.45629  -0.45578  -0.45510  -0.45256  -0.45193
 Alpha  occ. eigenvalues --   -0.45181  -0.45069  -0.45000  -0.44812  -0.44624
 Alpha  occ. eigenvalues --   -0.44507  -0.44273  -0.44173  -0.43999  -0.43857
 Alpha  occ. eigenvalues --   -0.43701  -0.43517  -0.43441  -0.43105  -0.43002
 Alpha  occ. eigenvalues --   -0.42386  -0.42267  -0.42180  -0.42076  -0.41927
 Alpha  occ. eigenvalues --   -0.41819  -0.41601  -0.41390  -0.41202  -0.41167
 Alpha  occ. eigenvalues --   -0.41069  -0.41040  -0.40822  -0.40684  -0.40627
 Alpha  occ. eigenvalues --   -0.40521  -0.40393  -0.40298  -0.39552  -0.39173
 Alpha  occ. eigenvalues --   -0.38701  -0.38436  -0.37823  -0.37731  -0.36650
 Alpha  occ. eigenvalues --   -0.35503  -0.35412  -0.34941  -0.34889  -0.34778
 Alpha  occ. eigenvalues --   -0.34472  -0.34230  -0.33692  -0.33517  -0.33088
 Alpha  occ. eigenvalues --   -0.32830  -0.32490  -0.32157  -0.31999  -0.31532
 Alpha  occ. eigenvalues --   -0.31139  -0.31105  -0.30852  -0.30448  -0.30393
 Alpha  occ. eigenvalues --   -0.30248  -0.30011  -0.29322  -0.29275  -0.28959
 Alpha virt. eigenvalues --   -0.11808  -0.11348  -0.07288  -0.06695  -0.05581
 Alpha virt. eigenvalues --   -0.04863  -0.04848  -0.04672  -0.03883  -0.03762
 Alpha virt. eigenvalues --   -0.03434  -0.02239  -0.02182  -0.01516  -0.01436

 Mulliken charges:
               1
     1  N   -0.758995
     2  H    0.414981
     3  H    0.411623
     4  H    0.434072
     5  C   -0.118972
     6  H    0.216794
     7  C    0.653511
     8  C   -0.300234
     9  H    0.199862
    10  H    0.173091
    11  O   -0.544593
    12  C   -0.098515
    13  H    0.113215
    14  C   -0.447837
    15  H    0.168060
    16  H    0.159135
    17  H    0.174415
    18  C   -0.454496
    19  H    0.170144
    20  H    0.130514
    21  H    0.183738
    22  N   -0.593752
    23  H    0.371620
    24  C   -0.075113
    25  H    0.185384
    26  C    0.626665
    27  C   -0.076354
    28  H    0.147852
    29  O   -0.556672
    30  C   -0.477631
    31  H    0.154025
    32  H    0.178853
    33  H    0.168047
    34  C   -0.446101
    35  H    0.163113
    36  H    0.167197
    37  H    0.129099
    38  N   -0.598843
    39  H    0.369030
    40  C   -0.073961
    41  H    0.183760
    42  C    0.637334
    43  C   -0.076818
    44  H    0.145813
    45  O   -0.554380
    46  C   -0.441953
    47  H    0.133199
    48  H    0.158688
    49  H    0.152673
    50  C   -0.462844
    51  H    0.143197
    52  H    0.169015
    53  H    0.158199
    54  N   -0.623626
    55  H    0.359600
    56  C   -0.062580
    57  H    0.187347
    58  C    0.606540
    59  C   -0.035811
    60  H    0.140860
    61  H    0.174866
    62  O   -0.550009
    63  O   -0.645155
    64  H    0.444846
    65  N   -0.602822
    66  H    0.370068
    67  C   -0.074946
    68  H    0.178266
    69  C    0.650207
    70  C    0.100390
    71  H    0.127342
    72  O   -0.557760
    73  C   -0.438116
    74  H    0.135108
    75  H    0.165124
    76  H    0.168006
    77  O   -0.677065
    78  H    0.463489
    79  N   -0.592616
    80  H    0.341532
    81  C   -0.055961
    82  H    0.174529
    83  C    0.634248
    84  C   -0.293306
    85  H    0.196569
    86  H    0.173123
    87  O   -0.575219
    88  C   -0.369413
    89  H    0.144219
    90  H    0.175379
    91  C    0.606312
    92  N   -0.749299
    93  H    0.336044
    94  H    0.347490
    95  O   -0.498228
    96  N   -0.586415
    97  H    0.372447
    98  C   -0.125538
    99  H    0.177901
   100  C    0.642387
   101  C    0.181775
   102  H    0.159936
   103  O   -0.530465
   104  C   -0.503638
   105  H    0.206382
   106  H    0.130624
   107  H    0.173114
   108  O   -0.695801
   109  H    0.442937
   110  N   -0.591744
   111  H    0.342305
   112  C   -0.041930
   113  H    0.171127
   114  C    0.645748
   115  C   -0.483690
   116  H    0.177021
   117  H    0.171321
   118  H    0.172574
   119  O   -0.533894
   120  N   -0.590816
   121  H    0.347816
   122  C   -0.079160
   123  H    0.182314
   124  C    0.629339
   125  C   -0.250079
   126  H    0.138603
   127  H    0.129587
   128  O   -0.545063
   129  C   -0.083447
   130  H    0.168211
   131  C   -0.461757
   132  H    0.123562
   133  H    0.129492
   134  H    0.168526
   135  C   -0.485738
   136  H    0.118138
   137  H    0.171323
   138  H    0.172364
   139  N   -0.618716
   140  H    0.355306
   141  C   -0.020590
   142  H    0.197819
   143  C    0.579862
   144  C   -0.452087
   145  H    0.172264
   146  H    0.192335
   147  H    0.157286
   148  O   -0.468940
   149  O   -0.560174
   150  H    0.420513
 Sum of Mulliken charges =   1.00000

 Dipole moment (field-independent basis, Debye):
    X=            -13.3668    Y=             -9.0849    Z=            -39.4487  Tot=             42.6310
 Quadrupole moment (field-independent basis, Debye-Ang):
   XX=           -255.4884   YY=           -312.6618   ZZ=             12.5524
   XY=              3.7976   XZ=            207.5075   YZ=            129.7958

 Normal termination of Gaussian 16 at Sun Jul 24 19:01:07 2022.
