 Gaussian 16, Revision C.01,
 Gaussian 16:  ES64L-G16RevC.01  3-Jul-2019

 ----------------------------------------------------------------------
 # B3LYP/6-31G* empiricaldispersion=gd3bj guess=read geom=check nosymm
 integral(ultrafinegrid)
 ----------------------------------------------------------------------

 ------------------------------------------------------
 Candidate Structure: Conf:684 Charge calc in gas phase
 ------------------------------------------------------
 Structure from the checkpoint file:  "conf-684.chk"
 Charge =  1 Multiplicity = 1

                          Input orientation:
 ---------------------------------------------------------------------
 Center     Atomic      Atomic             Coordinates (Angstroms)
 Number     Number       Type             X           Y           Z
 ---------------------------------------------------------------------
      1          7           0       -8.246405   -1.778584   -7.615589
      2          1           0       -8.205667   -1.736131   -8.637326
      3          1           0       -8.929632   -1.090956   -7.285770
      4          1           0       -8.511235   -2.763779   -7.325357
      5          6           0       -6.894527   -1.613304   -6.951219
      6          1           0       -6.207550   -1.157537   -7.664898
      7          6           0       -6.497775   -3.066045   -6.613618
      8          6           0       -7.026703   -0.767192   -5.680385
      9          1           0       -6.055930   -0.802185   -5.181417
     10          1           0       -7.721903   -1.269910   -4.996041
     11          8           0       -7.385104   -3.927158   -6.642781
     12          6           0       -7.440182    0.699900   -5.902098
     13          1           0       -8.469613    0.730501   -6.301848
     14          6           0       -7.466490    1.418902   -4.546079
     15          1           0       -6.460565    1.470110   -4.112375
     16          1           0       -8.114903    0.902796   -3.830081
     17          1           0       -7.832379    2.443756   -4.658157
     18          6           0       -6.521004    1.422428   -6.895919
     19          1           0       -5.471299    1.326941   -6.596395
     20          1           0       -6.611098    1.032971   -7.917642
     21          1           0       -6.763835    2.488153   -6.937913
     22          7           0       -5.213470   -3.254974   -6.302087
     23          1           0       -4.649033   -2.410369   -6.174135
     24          6           0       -4.787399   -4.407169   -5.503155
     25          1           0       -5.618440   -5.119077   -5.515417
     26          6           0       -4.669776   -3.858970   -4.061064
     27          6           0       -3.536867   -5.078717   -6.106273
     28          1           0       -3.239713   -5.878503   -5.413076
     29          8           0       -5.433758   -2.954471   -3.702678
     30          6           0       -3.887932   -5.750120   -7.439525
     31          1           0       -4.223084   -5.005565   -8.169920
     32          1           0       -4.686434   -6.489427   -7.317592
     33          1           0       -3.013391   -6.259836   -7.855022
     34          6           0       -2.361053   -4.103856   -6.276045
     35          1           0       -2.582013   -3.379884   -7.069634
     36          1           0       -1.459162   -4.644411   -6.576871
     37          1           0       -2.132013   -3.551627   -5.358435
     38          7           0       -3.705339   -4.354216   -3.260614
     39          1           0       -3.040357   -5.015959   -3.636185
     40          6           0       -3.332680   -3.681614   -2.002949
     41          1           0       -4.263496   -3.292415   -1.580218
     42          6           0       -2.421679   -2.498039   -2.415524
     43          6           0       -2.665271   -4.635135   -1.004149
     44          1           0       -1.660764   -4.863242   -1.383323
     45          8           0       -1.206497   -2.483403   -2.219411
     46          6           0       -2.517597   -3.943486    0.358636
     47          1           0       -3.503169   -3.696968    0.773903
     48          1           0       -1.925406   -3.027945    0.310085
     49          1           0       -2.021106   -4.615688    1.065165
     50          6           0       -3.465387   -5.935852   -0.855925
     51          1           0       -4.486781   -5.730692   -0.513183
     52          1           0       -3.536206   -6.499816   -1.791688
     53          1           0       -2.988340   -6.583473   -0.114100
     54          7           0       -3.074222   -1.527985   -3.105026
     55          1           0       -4.081393   -1.618347   -3.205818
     56          6           0       -2.392691   -0.432753   -3.785383
     57          1           0       -1.455424   -0.824834   -4.199039
     58          6           0       -2.097468    0.664892   -2.741414
     59          6           0       -3.270207    0.123370   -4.900045
     60          1           0       -2.793795    1.008246   -5.334833
     61          1           0       -4.229827    0.439311   -4.487975
     62          8           0       -2.925564    1.533587   -2.484594
     63          8           0       -3.561286   -0.841685   -5.928457
     64          1           0       -2.731120   -1.041589   -6.389419
     65          7           0       -0.918989    0.473911   -2.119336
     66          1           0       -0.273191   -0.226297   -2.468875
     67          6           0       -0.493134    1.100678   -0.887662
     68          1           0       -0.863454    2.130012   -0.851473
     69          6           0        1.044630    1.048801   -0.904720
     70          6           0       -1.015174    0.297236    0.340934
     71          1           0       -0.625925    0.779044    1.245381
     72          8           0        1.642064    0.409741   -1.773206
     73          6           0       -2.538446    0.246775    0.431842
     74          1           0       -2.976494    1.249323    0.435715
     75          1           0       -2.965511   -0.298543   -0.414958
     76          1           0       -2.821867   -0.274033    1.351058
     77          8           0       -0.439314   -1.000253    0.344920
     78          1           0       -0.657981   -1.446050   -0.495104
     79          7           0        1.675263    1.701989    0.093139
     80          1           0        1.134120    2.117480    0.839783
     81          6           0        3.115322    1.542734    0.321169
     82          1           0        3.597498    1.590610   -0.659743
     83          6           0        3.377222    0.159896    0.955876
     84          6           0        3.626938    2.653337    1.233762
     85          1           0        3.154206    2.531614    2.215074
     86          1           0        3.336219    3.628776    0.833054
     87          8           0        3.439843    0.020919    2.180142
     88          6           0        5.150448    2.611762    1.410748
     89          1           0        5.641292    2.847411    0.457915
     90          1           0        5.473174    1.618609    1.728490
     91          6           0        5.575639    3.667187    2.429539
     92          7           0        6.313475    3.191298    3.474419
     93          1           0        6.386238    2.192261    3.650967
     94          1           0        6.486806    3.832750    4.236503
     95          8           0        5.266951    4.845856    2.304133
     96          7           0        3.552881   -0.860737    0.091613
     97          1           0        3.412719   -0.721049   -0.903466
     98          6           0        3.806580   -2.219930    0.558022
     99          1           0        3.302234   -2.337883    1.522830
    100          6           0        5.329489   -2.390183    0.758383
    101          6           0        3.276382   -3.244115   -0.459841
    102          1           0        3.533867   -4.239001   -0.066702
    103          8           0        6.002432   -3.146454    0.047433
    104          6           0        1.773175   -3.148057   -0.667342
    105          1           0        1.234615   -3.256392    0.279367
    106          1           0        1.509500   -2.181265   -1.100507
    107          1           0        1.446528   -3.930763   -1.358122
    108          8           0        3.900959   -3.035430   -1.721085
    109          1           0        4.848407   -3.201844   -1.544148
    110          7           0        5.859412   -1.613699    1.725896
    111          1           0        5.253351   -0.987225    2.258084
    112          6           0        7.291923   -1.428242    1.882824
    113          1           0        7.763841   -2.390043    2.117802
    114          6           0        7.497460   -0.445140    3.037164
    115          6           0        7.944752   -0.844948    0.612852
    116          1           0        9.024204   -0.728592    0.748826
    117          1           0        7.764789   -1.517503   -0.226648
    118          1           0        7.512574    0.136047    0.389088
    119          8           0        6.571080    0.272204    3.437513
    120          7           0        8.747182   -0.362553    3.520245
    121          1           0        9.498954   -0.961081    3.191457
    122          6           0        9.157258    0.670806    4.458127
    123          1           0        8.692442    1.611696    4.147979
    124          6           0       10.680379    0.768912    4.325669
    125          6           0        8.719479    0.317576    5.898292
    126          1           0        7.651901    0.075215    5.844513
    127          1           0        9.245176   -0.599416    6.191694
    128          8           0       11.343247   -0.179522    3.906655
    129          6           0        8.929508    1.403753    6.967267
    130          1           0       10.000393    1.633289    7.038035
    131          6           0        8.179692    2.702082    6.633469
    132          1           0        7.106898    2.506888    6.509136
    133          1           0        8.536107    3.176347    5.710424
    134          1           0        8.296115    3.435347    7.438386
    135          6           0        8.478949    0.866201    8.331891
    136          1           0        7.408109    0.627685    8.323222
    137          1           0        8.650970    1.605456    9.121877
    138          1           0        9.023464   -0.046408    8.598736
    139          7           0       11.230025    1.941408    4.715542
    140          1           0       10.642094    2.682756    5.068567
    141          6           0       12.673684    2.125998    4.764165
    142          1           0       13.114408    1.158309    5.027288
    143          6           0       13.079718    3.104577    5.855832
    144          6           0       13.256395    2.567570    3.412836
    145          1           0       14.338696    2.691225    3.496709
    146          1           0       13.035899    1.801642    2.665797
    147          1           0       12.814652    3.516357    3.091427
    148          8           0       14.223357    3.406800    6.094188
    149          8           0       12.021148    3.627336    6.529069
    150          1           0       12.392306    4.245608    7.187010
 ---------------------------------------------------------------------

 SCF Done:  E(RB3LYP) =  -3455.82002807     A.U. after    2 cycles

 Alpha  occ. eigenvalues --  -19.28788 -19.26909 -19.25793 -19.23246 -19.21920
 Alpha  occ. eigenvalues --  -19.20452 -19.19364 -19.19314 -19.18967 -19.17848
 Alpha  occ. eigenvalues --  -19.17420 -19.16835 -19.16410 -19.16363 -19.13331
 Alpha  occ. eigenvalues --  -14.60070 -14.48957 -14.47784 -14.45859 -14.43322
 Alpha  occ. eigenvalues --  -14.43240 -14.41936 -14.41561 -14.40645 -14.39742
 Alpha  occ. eigenvalues --  -14.37432 -10.43370 -10.40445 -10.40201 -10.38727
 Alpha  occ. eigenvalues --  -10.37689 -10.36810 -10.35972 -10.35052 -10.35022
 Alpha  occ. eigenvalues --  -10.34650 -10.34459 -10.33356 -10.33275 -10.33118
 Alpha  occ. eigenvalues --  -10.32873 -10.32533 -10.31941 -10.31166 -10.31083
 Alpha  occ. eigenvalues --  -10.30961 -10.30491 -10.29422 -10.29001 -10.28821
 Alpha  occ. eigenvalues --  -10.28785 -10.28576 -10.28518 -10.27914 -10.27555
 Alpha  occ. eigenvalues --  -10.27520 -10.27476 -10.27124 -10.25203 -10.24164
 Alpha  occ. eigenvalues --  -10.23851 -10.23823 -10.23446 -10.23409 -10.22842
 Alpha  occ. eigenvalues --  -10.22687 -10.22602 -10.22455 -10.21621 -10.20861
 Alpha  occ. eigenvalues --   -1.19351  -1.16336  -1.15593  -1.15121  -1.13954
 Alpha  occ. eigenvalues --   -1.13589  -1.11618  -1.10752  -1.10033  -1.09227
 Alpha  occ. eigenvalues --   -1.08650  -1.08141  -1.07783  -1.07244  -1.06315
 Alpha  occ. eigenvalues --   -1.05144  -1.04535  -1.04068  -1.02364  -1.00225
 Alpha  occ. eigenvalues --   -0.99454  -0.98707  -0.98230  -0.97343  -0.96217
 Alpha  occ. eigenvalues --   -0.95064  -0.92374  -0.92317  -0.89281  -0.88802
 Alpha  occ. eigenvalues --   -0.87331  -0.86534  -0.85392  -0.83499  -0.83345
 Alpha  occ. eigenvalues --   -0.83143  -0.82658  -0.80913  -0.80452  -0.79860
 Alpha  occ. eigenvalues --   -0.79147  -0.79085  -0.78611  -0.78566  -0.76829
 Alpha  occ. eigenvalues --   -0.75747  -0.75088  -0.74144  -0.73962  -0.73244
 Alpha  occ. eigenvalues --   -0.73065  -0.72937  -0.71998  -0.71502  -0.71072
 Alpha  occ. eigenvalues --   -0.69807  -0.69434  -0.69222  -0.68778  -0.68079
 Alpha  occ. eigenvalues --   -0.67963  -0.67175  -0.66609  -0.66052  -0.65366
 Alpha  occ. eigenvalues --   -0.65070  -0.64647  -0.64013  -0.63869  -0.63566
 Alpha  occ. eigenvalues --   -0.63037  -0.62960  -0.62039  -0.61898  -0.61568
 Alpha  occ. eigenvalues --   -0.61299  -0.60753  -0.60155  -0.59910  -0.59408
 Alpha  occ. eigenvalues --   -0.58916  -0.58821  -0.58349  -0.57936  -0.57621
 Alpha  occ. eigenvalues --   -0.56911  -0.56718  -0.56458  -0.55781  -0.55588
 Alpha  occ. eigenvalues --   -0.55170  -0.55055  -0.54749  -0.54458  -0.54209
 Alpha  occ. eigenvalues --   -0.53860  -0.53745  -0.53710  -0.53393  -0.53283
 Alpha  occ. eigenvalues --   -0.53027  -0.52931  -0.52735  -0.52407  -0.52175
 Alpha  occ. eigenvalues --   -0.51789  -0.51710  -0.51296  -0.51128  -0.51010
 Alpha  occ. eigenvalues --   -0.50918  -0.50575  -0.50125  -0.50107  -0.49698
 Alpha  occ. eigenvalues --   -0.49572  -0.49473  -0.49316  -0.49226  -0.48943
 Alpha  occ. eigenvalues --   -0.48702  -0.48560  -0.48485  -0.48428  -0.48091
 Alpha  occ. eigenvalues --   -0.47768  -0.47634  -0.47465  -0.47135  -0.46942
 Alpha  occ. eigenvalues --   -0.46726  -0.46372  -0.46171  -0.46142  -0.45918
 Alpha  occ. eigenvalues --   -0.45752  -0.45494  -0.45369  -0.45283  -0.45205
 Alpha  occ. eigenvalues --   -0.45084  -0.44933  -0.44843  -0.44694  -0.44607
 Alpha  occ. eigenvalues --   -0.44591  -0.44354  -0.44332  -0.43467  -0.43329
 Alpha  occ. eigenvalues --   -0.43170  -0.42999  -0.42790  -0.42552  -0.42320
 Alpha  occ. eigenvalues --   -0.42318  -0.42243  -0.42082  -0.41985  -0.41620
 Alpha  occ. eigenvalues --   -0.41434  -0.41343  -0.41232  -0.41058  -0.40997
 Alpha  occ. eigenvalues --   -0.40732  -0.40439  -0.40356  -0.39868  -0.39746
 Alpha  occ. eigenvalues --   -0.39628  -0.39304  -0.38951  -0.38421  -0.38340
 Alpha  occ. eigenvalues --   -0.38032  -0.37673  -0.37492  -0.37123  -0.37031
 Alpha  occ. eigenvalues --   -0.36783  -0.36588  -0.34803  -0.34410  -0.34011
 Alpha  occ. eigenvalues --   -0.33587  -0.33134  -0.32448  -0.32104  -0.32047
 Alpha  occ. eigenvalues --   -0.31813  -0.31684  -0.31215  -0.30478  -0.30319
 Alpha  occ. eigenvalues --   -0.29624  -0.29507  -0.29078  -0.28166  -0.27111
 Alpha virt. eigenvalues --   -0.12620  -0.11395  -0.10496  -0.07604  -0.06941
 Alpha virt. eigenvalues --   -0.06279  -0.05735  -0.05008  -0.04611  -0.04123
 Alpha virt. eigenvalues --   -0.03645  -0.03385  -0.03039  -0.02692  -0.02675

 Mulliken charges:
               1
     1  N   -0.754634
     2  H    0.414723
     3  H    0.413873
     4  H    0.431455
     5  C   -0.134007
     6  H    0.214603
     7  C    0.655616
     8  C   -0.293061
     9  H    0.204506
    10  H    0.181042
    11  O   -0.533869
    12  C   -0.100441
    13  H    0.113921
    14  C   -0.458317
    15  H    0.175344
    16  H    0.162521
    17  H    0.173603
    18  C   -0.459965
    19  H    0.172198
    20  H    0.125119
    21  H    0.182856
    22  N   -0.616312
    23  H    0.411957
    24  C   -0.085609
    25  H    0.220180
    26  C    0.628005
    27  C   -0.109996
    28  H    0.146667
    29  O   -0.553774
    30  C   -0.450407
    31  H    0.150228
    32  H    0.164717
    33  H    0.171712
    34  C   -0.482134
    35  H    0.138759
    36  H    0.185019
    37  H    0.157047
    38  N   -0.605111
    39  H    0.353706
    40  C   -0.057195
    41  H    0.191585
    42  C    0.625473
    43  C   -0.105377
    44  H    0.158324
    45  O   -0.534677
    46  C   -0.475085
    47  H    0.143253
    48  H    0.177597
    49  H    0.165316
    50  C   -0.446242
    51  H    0.152457
    52  H    0.132632
    53  H    0.168734
    54  N   -0.616616
    55  H    0.377344
    56  C   -0.080825
    57  H    0.167474
    58  C    0.644604
    59  C   -0.083707
    60  H    0.180032
    61  H    0.187413
    62  O   -0.540170
    63  O   -0.650282
    64  H    0.418350
    65  N   -0.608064
    66  H    0.372377
    67  C   -0.103322
    68  H    0.186219
    69  C    0.667943
    70  C    0.133822
    71  H    0.143701
    72  O   -0.547871
    73  C   -0.459258
    74  H    0.163135
    75  H    0.139734
    76  H    0.165861
    77  O   -0.645028
    78  H    0.439087
    79  N   -0.610177
    80  H    0.342116
    81  C   -0.046548
    82  H    0.172793
    83  C    0.629675
    84  C   -0.285625
    85  H    0.165626
    86  H    0.170668
    87  O   -0.546583
    88  C   -0.386728
    89  H    0.159034
    90  H    0.179608
    91  C    0.587558
    92  N   -0.801132
    93  H    0.399307
    94  H    0.329564
    95  O   -0.518007
    96  N   -0.597284
    97  H    0.371529
    98  C   -0.073005
    99  H    0.184535
   100  C    0.637809
   101  C    0.110761
   102  H    0.131725
   103  O   -0.557718
   104  C   -0.457844
   105  H    0.147900
   106  H    0.164422
   107  H    0.146153
   108  O   -0.656180
   109  H    0.417454
   110  N   -0.647995
   111  H    0.405407
   112  C   -0.020157
   113  H    0.176499
   114  C    0.623988
   115  C   -0.464117
   116  H    0.154018
   117  H    0.200213
   118  H    0.156253
   119  O   -0.551436
   120  N   -0.615774
   121  H    0.361856
   122  C   -0.060212
   123  H    0.172601
   124  C    0.617223
   125  C   -0.257492
   126  H    0.169144
   127  H    0.150371
   128  O   -0.537060
   129  C   -0.095273
   130  H    0.138248
   131  C   -0.464959
   132  H    0.154745
   133  H    0.131330
   134  H    0.156440
   135  C   -0.444780
   136  H    0.147727
   137  H    0.147617
   138  H    0.149702
   139  N   -0.617601
   140  H    0.363172
   141  C   -0.048214
   142  H    0.214487
   143  C    0.592373
   144  C   -0.445909
   145  H    0.184902
   146  H    0.181483
   147  H    0.154575
   148  O   -0.445501
   149  O   -0.583295
   150  H    0.423511
 Sum of Mulliken charges =   1.00000

 Dipole moment (field-independent basis, Debye):
    X=            -24.8854    Y=             -7.7910    Z=            -26.0548  Tot=             36.8624
 Quadrupole moment (field-independent basis, Debye-Ang):
   XX=           -168.6600   YY=           -392.8012   ZZ=           -147.5199
   XY=             64.3214   XZ=            256.0057   YZ=             64.5247

 Normal termination of Gaussian 16 at Sun Jul 24 19:02:09 2022.
