 Gaussian 16, Revision C.01,
 Gaussian 16:  ES64L-G16RevC.01  3-Jul-2019

 ----------------------------------------------------------------------
 # B3LYP/6-31G* empiricaldispersion=gd3bj guess=read geom=check nosymm
 integral(ultrafinegrid)
 ----------------------------------------------------------------------

 ------------------------------------------------------
 Candidate Structure: Conf:367 Charge calc in gas phase
 ------------------------------------------------------
 Structure from the checkpoint file:  "conf-367.chk"
 Charge =  1 Multiplicity = 1

                          Input orientation:
 ---------------------------------------------------------------------
 Center     Atomic      Atomic             Coordinates (Angstroms)
 Number     Number       Type             X           Y           Z
 ---------------------------------------------------------------------
      1          7           0       -8.533349   -6.604236   -5.236075
      2          1           0       -8.024487   -7.272879   -5.821500
      3          1           0       -9.528572   -6.649843   -5.471393
      4          1           0       -8.362383   -6.848095   -4.214795
      5          6           0       -7.972172   -5.196439   -5.308237
      6          1           0       -7.387749   -5.107579   -6.224827
      7          6           0       -7.080945   -5.140361   -4.042165
      8          6           0       -9.134327   -4.190397   -5.276296
      9          1           0       -9.706556   -4.358349   -4.354105
     10          1           0       -9.797747   -4.419010   -6.123136
     11          8           0       -7.296534   -5.985616   -3.159695
     12          6           0       -8.732036   -2.703744   -5.363718
     13          1           0       -8.119094   -2.451899   -4.491271
     14          6           0       -7.922900   -2.390847   -6.629113
     15          1           0       -8.491639   -2.640889   -7.533356
     16          1           0       -6.966846   -2.927513   -6.677846
     17          1           0       -7.682667   -1.324997   -6.667360
     18          6           0      -10.001326   -1.843895   -5.304413
     19          1           0      -10.650646   -2.035848   -6.167267
     20          1           0      -10.578214   -2.040551   -4.394011
     21          1           0       -9.740636   -0.781497   -5.313233
     22          7           0       -6.162427   -4.184374   -4.005132
     23          1           0       -6.160796   -3.439796   -4.702193
     24          6           0       -5.390261   -3.821662   -2.818023
     25          1           0       -5.926174   -4.192022   -1.938770
     26          6           0       -5.368825   -2.283538   -2.828130
     27          6           0       -3.956930   -4.418218   -2.838222
     28          1           0       -3.460399   -4.039754   -1.934409
     29          8           0       -5.711288   -1.661234   -3.837753
     30          6           0       -4.004247   -5.947175   -2.752759
     31          1           0       -4.448762   -6.376873   -3.657643
     32          1           0       -4.590505   -6.292291   -1.895163
     33          1           0       -2.990262   -6.348544   -2.661705
     34          6           0       -3.152894   -3.940423   -4.052443
     35          1           0       -3.634746   -4.248995   -4.988086
     36          1           0       -2.154788   -4.388442   -4.034519
     37          1           0       -3.027676   -2.855056   -4.057042
     38          7           0       -4.954040   -1.686120   -1.694192
     39          1           0       -4.509233   -2.259741   -0.988989
     40          6           0       -4.600656   -0.268605   -1.690058
     41          1           0       -5.456174    0.287289   -2.086803
     42          6           0       -3.386829   -0.088225   -2.614614
     43          6           0       -4.300018    0.198721   -0.245402
     44          1           0       -3.441963   -0.386464    0.113599
     45          8           0       -2.497159   -0.942724   -2.651594
     46          6           0       -3.898090    1.678075   -0.205342
     47          1           0       -4.678500    2.311036   -0.649985
     48          1           0       -2.950088    1.876474   -0.708009
     49          1           0       -3.781003    1.994406    0.835404
     50          6           0       -5.510898   -0.057322    0.661931
     51          1           0       -6.374754    0.531388    0.329573
     52          1           0       -5.812776   -1.109479    0.680595
     53          1           0       -5.277496    0.242554    1.688112
     54          7           0       -3.358489    1.037496   -3.370558
     55          1           0       -3.941523    1.808161   -3.059409
     56          6           0       -2.119511    1.431799   -4.058231
     57          1           0       -1.720691    0.530727   -4.527789
     58          6           0       -1.179459    1.982733   -2.979780
     59          6           0       -2.464015    2.456167   -5.138808
     60          1           0       -1.548851    2.769193   -5.648449
     61          1           0       -2.899972    3.348331   -4.663199
     62          8           0       -1.510912    2.970308   -2.327549
     63          8           0       -3.311636    1.898236   -6.125523
     64          1           0       -4.060219    1.489560   -5.660930
     65          7           0       -0.061327    1.254716   -2.762117
     66          1           0        0.175293    0.477242   -3.365337
     67          6           0        0.761773    1.422975   -1.580846
     68          1           0        0.484189    2.379782   -1.133588
     69          6           0        2.222921    1.362028   -2.008271
     70          6           0        0.479957    0.266775   -0.565491
     71          1           0        0.944858   -0.640405   -0.980504
     72          8           0        2.590521    0.521597   -2.828828
     73          6           0        1.071782    0.563318    0.803438
     74          1           0        2.161271    0.656103    0.760009
     75          1           0        0.642434    1.487908    1.207403
     76          1           0        0.824420   -0.250552    1.490750
     77          8           0       -0.917815    0.065807   -0.413186
     78          1           0       -1.251518   -0.363685   -1.220888
     79          7           0        3.069884    2.238090   -1.414087
     80          1           0        2.731923    2.784025   -0.632587
     81          6           0        4.509792    2.046905   -1.525120
     82          1           0        4.759702    2.016743   -2.590756
     83          6           0        4.891277    0.717856   -0.857100
     84          6           0        5.242545    3.198526   -0.832562
     85          1           0        4.958066    3.208484    0.225599
     86          1           0        4.923854    4.151269   -1.264829
     87          8           0        4.555048    0.473956    0.304600
     88          6           0        6.760359    3.069651   -0.941183
     89          1           0        7.066076    3.000520   -1.995240
     90          1           0        7.110422    2.149209   -0.459277
     91          6           0        7.465277    4.271364   -0.314214
     92          7           0        8.816738    4.122479   -0.160070
     93          1           0        9.318170    3.349167   -0.571301
     94          1           0        9.347762    4.928209    0.140614
     95          8           0        6.871653    5.279347    0.036742
     96          7           0        5.646739   -0.116793   -1.594646
     97          1           0        5.870536    0.077344   -2.563380
     98          6           0        6.068937   -1.418719   -1.101327
     99          1           0        5.328026   -1.749815   -0.367333
    100          6           0        7.437871   -1.264535   -0.416245
    101          6           0        6.147229   -2.391419   -2.290358
    102          1           0        6.582988   -3.331582   -1.923218
    103          8           0        8.489123   -1.607483   -0.972947
    104          6           0        4.778928   -2.661697   -2.899706
    105          1           0        4.142390   -3.195303   -2.185140
    106          1           0        4.273851   -1.730894   -3.176785
    107          1           0        4.894840   -3.278371   -3.795453
    108          8           0        6.982692   -1.821704   -3.294017
    109          1           0        7.857468   -1.753305   -2.859768
    110          7           0        7.396615   -0.697724    0.804471
    111          1           0        6.512360   -0.412346    1.225166
    112          6           0        8.593844   -0.465309    1.590924
    113          1           0        9.214404   -1.367942    1.548095
    114          6           0        8.133666   -0.213951    3.032985
    115          6           0        9.417527    0.722974    1.065120
    116          1           0       10.353253    0.828366    1.623593
    117          1           0        9.659760    0.548257    0.013261
    118          1           0        8.852474    1.654807    1.165766
    119          8           0        6.958350    0.034937    3.298874
    120          7           0        9.114661   -0.247540    3.958764
    121          1           0       10.078472   -0.460986    3.725560
    122          6           0        8.875416    0.053376    5.359100
    123          1           0        8.166970    0.885421    5.409425
    124          6           0       10.232876    0.457583    5.939502
    125          6           0        8.284039   -1.175254    6.089924
    126          1           0        7.406362   -1.481808    5.508898
    127          1           0        9.019556   -1.986599    6.022034
    128          8           0       11.282900    0.052429    5.441331
    129          6           0        7.868235   -0.973719    7.557002
    130          1           0        8.750348   -0.678528    8.139862
    131          6           0        6.799532    0.117069    7.714865
    132          1           0        5.915015   -0.116022    7.109773
    133          1           0        7.149179    1.108426    7.401650
    134          1           0        6.483158    0.201730    8.760099
    135          6           0        7.358763   -2.303494    8.128325
    136          1           0        6.467551   -2.644510    7.586690
    137          1           0        7.088672   -2.199890    9.185170
    138          1           0        8.119724   -3.088099    8.049317
    139          7           0       10.195508    1.253847    7.033821
    140          1           0        9.306276    1.523814    7.429086
    141          6           0       11.406430    1.583407    7.771584
    142          1           0       12.082148    0.725407    7.681432
    143          6           0       11.131320    1.768918    9.256108
    144          6           0       12.123521    2.818017    7.205023
    145          1           0       13.024853    3.025587    7.786551
    146          1           0       12.399032    2.619829    6.166687
    147          1           0       11.469770    3.695607    7.238639
    148          8           0       11.977354    2.066005   10.064130
    149          8           0        9.827014    1.581784    9.588496
    150          1           0        9.765276    1.733541   10.550745
 ---------------------------------------------------------------------

 SCF Done:  E(RB3LYP) =  -3455.79590650     A.U. after    2 cycles

 Alpha  occ. eigenvalues --  -19.27283 -19.25501 -19.23050 -19.21211 -19.20962
 Alpha  occ. eigenvalues --  -19.19397 -19.19038 -19.17749 -19.17649 -19.17514
 Alpha  occ. eigenvalues --  -19.16788 -19.16693 -19.16578 -19.16041 -19.15371
 Alpha  occ. eigenvalues --  -14.60602 -14.49832 -14.46560 -14.45331 -14.42629
 Alpha  occ. eigenvalues --  -14.42128 -14.41368 -14.41329 -14.40257 -14.40098
 Alpha  occ. eigenvalues --  -14.39882 -10.43974 -10.41067 -10.39725 -10.38011
 Alpha  occ. eigenvalues --  -10.37398 -10.35234 -10.34690 -10.34527 -10.33807
 Alpha  occ. eigenvalues --  -10.33789 -10.33619 -10.33300 -10.33177 -10.33171
 Alpha  occ. eigenvalues --  -10.32348 -10.31090 -10.30491 -10.30175 -10.29659
 Alpha  occ. eigenvalues --  -10.29353 -10.29037 -10.28795 -10.28602 -10.28562
 Alpha  occ. eigenvalues --  -10.28013 -10.27964 -10.27848 -10.27718 -10.27624
 Alpha  occ. eigenvalues --  -10.27469 -10.26578 -10.25758 -10.25074 -10.24496
 Alpha  occ. eigenvalues --  -10.24136 -10.23745 -10.23145 -10.22940 -10.22665
 Alpha  occ. eigenvalues --  -10.22521 -10.21816 -10.21736 -10.21288 -10.21204
 Alpha  occ. eigenvalues --   -1.19815  -1.16057  -1.15183  -1.14331  -1.13048
 Alpha  occ. eigenvalues --   -1.10264  -1.09597  -1.09074  -1.08849  -1.08529
 Alpha  occ. eigenvalues --   -1.08149  -1.07682  -1.07260  -1.06988  -1.06949
 Alpha  occ. eigenvalues --   -1.06730  -1.05124  -1.03210  -1.01262  -0.98860
 Alpha  occ. eigenvalues --   -0.98542  -0.98084  -0.97809  -0.97033  -0.96542
 Alpha  occ. eigenvalues --   -0.95354  -0.94530  -0.91482  -0.88969  -0.88409
 Alpha  occ. eigenvalues --   -0.85951  -0.85749  -0.84520  -0.83230  -0.83031
 Alpha  occ. eigenvalues --   -0.82598  -0.82329  -0.81043  -0.80578  -0.79114
 Alpha  occ. eigenvalues --   -0.78429  -0.78102  -0.77941  -0.77408  -0.76027
 Alpha  occ. eigenvalues --   -0.75575  -0.74808  -0.74515  -0.73625  -0.72832
 Alpha  occ. eigenvalues --   -0.72677  -0.72432  -0.71454  -0.71069  -0.69660
 Alpha  occ. eigenvalues --   -0.69561  -0.68795  -0.68531  -0.67704  -0.67174
 Alpha  occ. eigenvalues --   -0.66698  -0.66355  -0.65625  -0.65304  -0.64802
 Alpha  occ. eigenvalues --   -0.64487  -0.64165  -0.63891  -0.63623  -0.63158
 Alpha  occ. eigenvalues --   -0.63036  -0.62476  -0.62160  -0.61573  -0.60695
 Alpha  occ. eigenvalues --   -0.60677  -0.60463  -0.60054  -0.59476  -0.58379
 Alpha  occ. eigenvalues --   -0.58077  -0.57729  -0.57532  -0.57410  -0.57006
 Alpha  occ. eigenvalues --   -0.56784  -0.56539  -0.56064  -0.55790  -0.55685
 Alpha  occ. eigenvalues --   -0.55359  -0.54862  -0.54410  -0.54004  -0.53793
 Alpha  occ. eigenvalues --   -0.53539  -0.53478  -0.53181  -0.52696  -0.52529
 Alpha  occ. eigenvalues --   -0.52467  -0.52308  -0.52187  -0.51719  -0.51538
 Alpha  occ. eigenvalues --   -0.50969  -0.50815  -0.50771  -0.50420  -0.50255
 Alpha  occ. eigenvalues --   -0.49854  -0.49452  -0.49399  -0.49333  -0.49061
 Alpha  occ. eigenvalues --   -0.48886  -0.48753  -0.48506  -0.48223  -0.48210
 Alpha  occ. eigenvalues --   -0.48039  -0.47864  -0.47722  -0.47274  -0.47015
 Alpha  occ. eigenvalues --   -0.46814  -0.46728  -0.46704  -0.46417  -0.46355
 Alpha  occ. eigenvalues --   -0.46197  -0.45756  -0.45716  -0.45419  -0.45153
 Alpha  occ. eigenvalues --   -0.45106  -0.45018  -0.44805  -0.44720  -0.44605
 Alpha  occ. eigenvalues --   -0.44578  -0.44371  -0.44287  -0.44232  -0.44168
 Alpha  occ. eigenvalues --   -0.43445  -0.43204  -0.42961  -0.42820  -0.42618
 Alpha  occ. eigenvalues --   -0.42518  -0.42386  -0.42234  -0.42093  -0.42036
 Alpha  occ. eigenvalues --   -0.41858  -0.41771  -0.41697  -0.41657  -0.41558
 Alpha  occ. eigenvalues --   -0.41436  -0.41249  -0.40843  -0.40672  -0.40618
 Alpha  occ. eigenvalues --   -0.40484  -0.40219  -0.39972  -0.39778  -0.39428
 Alpha  occ. eigenvalues --   -0.39355  -0.39261  -0.37881  -0.37598  -0.37154
 Alpha  occ. eigenvalues --   -0.37152  -0.37049  -0.36774  -0.36709  -0.36497
 Alpha  occ. eigenvalues --   -0.35785  -0.34576  -0.34050  -0.33312  -0.33245
 Alpha  occ. eigenvalues --   -0.33223  -0.32888  -0.32073  -0.31115  -0.31015
 Alpha  occ. eigenvalues --   -0.30941  -0.30906  -0.30687  -0.30382  -0.30102
 Alpha  occ. eigenvalues --   -0.29907  -0.29729  -0.29206  -0.29027  -0.28451
 Alpha virt. eigenvalues --   -0.12876  -0.11502  -0.09072  -0.07733  -0.06854
 Alpha virt. eigenvalues --   -0.05224  -0.04755  -0.04299  -0.04232  -0.03613
 Alpha virt. eigenvalues --   -0.02935  -0.02775  -0.02095  -0.02023  -0.01374

 Mulliken charges:
               1
     1  N   -0.754837
     2  H    0.417341
     3  H    0.413864
     4  H    0.433094
     5  C   -0.120943
     6  H    0.216339
     7  C    0.648287
     8  C   -0.286302
     9  H    0.173686
    10  H    0.163448
    11  O   -0.541977
    12  C   -0.109453
    13  H    0.167419
    14  C   -0.460159
    15  H    0.156235
    16  H    0.134335
    17  H    0.190170
    18  C   -0.451722
    19  H    0.155615
    20  H    0.156976
    21  H    0.175466
    22  N   -0.596679
    23  H    0.389664
    24  C   -0.090880
    25  H    0.192733
    26  C    0.654096
    27  C   -0.081300
    28  H    0.150404
    29  O   -0.555669
    30  C   -0.443172
    31  H    0.132465
    32  H    0.160604
    33  H    0.169782
    34  C   -0.475057
    35  H    0.129890
    36  H    0.168465
    37  H    0.198130
    38  N   -0.598093
    39  H    0.348939
    40  C   -0.040181
    41  H    0.167029
    42  C    0.648620
    43  C   -0.121886
    44  H    0.166743
    45  O   -0.564503
    46  C   -0.488608
    47  H    0.129414
    48  H    0.211009
    49  H    0.166955
    50  C   -0.444135
    51  H    0.149806
    52  H    0.136830
    53  H    0.169792
    54  N   -0.600426
    55  H    0.351339
    56  C   -0.089909
    57  H    0.177488
    58  C    0.630025
    59  C   -0.041927
    60  H    0.174479
    61  H    0.150869
    62  O   -0.534922
    63  O   -0.611566
    64  H    0.396227
    65  N   -0.600589
    66  H    0.349291
    67  C   -0.071971
    68  H    0.182733
    69  C    0.644323
    70  C    0.124604
    71  H    0.134445
    72  O   -0.549468
    73  C   -0.488800
    74  H    0.195888
    75  H    0.148313
    76  H    0.161596
    77  O   -0.659582
    78  H    0.430168
    79  N   -0.604028
    80  H    0.345094
    81  C   -0.029023
    82  H    0.162197
    83  C    0.640475
    84  C   -0.292259
    85  H    0.176527
    86  H    0.180319
    87  O   -0.551668
    88  C   -0.402663
    89  H    0.164510
    90  H    0.182403
    91  C    0.607435
    92  N   -0.752654
    93  H    0.341607
    94  H    0.346396
    95  O   -0.497925
    96  N   -0.587521
    97  H    0.352588
    98  C   -0.077031
    99  H    0.179065
   100  C    0.637983
   101  C    0.116830
   102  H    0.137801
   103  O   -0.560046
   104  C   -0.465194
   105  H    0.137029
   106  H    0.178428
   107  H    0.161809
   108  O   -0.654486
   109  H    0.419103
   110  N   -0.627148
   111  H    0.385028
   112  C   -0.034430
   113  H    0.178562
   114  C    0.620559
   115  C   -0.473134
   116  H    0.157168
   117  H    0.177607
   118  H    0.168197
   119  O   -0.537937
   120  N   -0.625717
   121  H    0.354408
   122  C   -0.050335
   123  H    0.175138
   124  C    0.615738
   125  C   -0.254732
   126  H    0.167630
   127  H    0.144911
   128  O   -0.540108
   129  C   -0.094318
   130  H    0.135082
   131  C   -0.450925
   132  H    0.158817
   133  H    0.129405
   134  H    0.148303
   135  C   -0.443467
   136  H    0.144384
   137  H    0.144589
   138  H    0.147015
   139  N   -0.618374
   140  H    0.362236
   141  C   -0.047007
   142  H    0.213566
   143  C    0.591007
   144  C   -0.444480
   145  H    0.183471
   146  H    0.179978
   147  H    0.152818
   148  O   -0.447361
   149  O   -0.582148
   150  H    0.422186
 Sum of Mulliken charges =   1.00000

 Dipole moment (field-independent basis, Debye):
    X=            -29.4165    Y=            -21.3290    Z=            -15.5412  Tot=             39.5195
 Quadrupole moment (field-independent basis, Debye-Ang):
   XX=            -82.7002   YY=           -286.9429   ZZ=           -272.1574
   XY=            205.3483   XZ=            205.2662   YZ=            122.2103

 Normal termination of Gaussian 16 at Sun Jul 24 19:01:43 2022.
