 Gaussian 16, Revision C.01,
 Gaussian 16:  ES64L-G16RevC.01  3-Jul-2019

 ----------------------------------------------------------------------
 # B3LYP/6-31G* empiricaldispersion=gd3bj guess=read geom=check nosymm
 integral(ultrafinegrid)
 ----------------------------------------------------------------------

 ------------------------------------------------------
 Candidate Structure: Conf:242 Charge calc in gas phase
 ------------------------------------------------------
 Structure from the checkpoint file:  "conf-242.chk"
 Charge =  1 Multiplicity = 1

                          Input orientation:
 ---------------------------------------------------------------------
 Center     Atomic      Atomic             Coordinates (Angstroms)
 Number     Number       Type             X           Y           Z
 ---------------------------------------------------------------------
      1          7           0      -11.387610   -3.080582   -8.638744
      2          1           0      -11.884530   -2.316843   -9.106566
      3          1           0      -12.032432   -3.865070   -8.509400
      4          1           0      -10.552708   -3.356075   -9.235576
      5          6           0      -10.707811   -2.653420   -7.351760
      6          1           0      -11.213661   -1.765126   -6.971558
      7          6           0       -9.266061   -2.359375   -7.831314
      8          6           0      -10.762919   -3.820146   -6.350374
      9          1           0      -10.299168   -4.694681   -6.826178
     10          1           0      -11.820530   -4.062468   -6.171061
     11          8           0       -8.905067   -2.892116   -8.892390
     12          6           0      -10.080694   -3.560886   -4.991566
     13          1           0       -9.022240   -3.343364   -5.166258
     14          6           0      -10.697143   -2.372192   -4.244181
     15          1           0      -11.759545   -2.547036   -4.033804
     16          1           0      -10.616856   -1.425993   -4.793677
     17          1           0      -10.182855   -2.220924   -3.291539
     18          6           0      -10.152902   -4.836109   -4.142486
     19          1           0      -11.191461   -5.102988   -3.912172
     20          1           0       -9.687707   -5.685932   -4.654112
     21          1           0       -9.626971   -4.688371   -3.194679
     22          7           0       -8.529506   -1.581268   -7.050472
     23          1           0       -8.871043   -1.286933   -6.134293
     24          6           0       -7.071645   -1.456982   -7.136656
     25          1           0       -6.699330   -2.266515   -7.771364
     26          6           0       -6.619946   -1.634552   -5.672910
     27          6           0       -6.639808   -0.091226   -7.729347
     28          1           0       -6.984986    0.682657   -7.029973
     29          8           0       -7.391078   -1.303686   -4.763887
     30          6           0       -5.112761    0.000588   -7.853252
     31          1           0       -4.724593   -0.788279   -8.510252
     32          1           0       -4.600513   -0.079686   -6.891270
     33          1           0       -4.834340    0.960700   -8.298077
     34          6           0       -7.306646    0.139725   -9.090557
     35          1           0       -7.027732   -0.644862   -9.802972
     36          1           0       -6.990540    1.102055   -9.504859
     37          1           0       -8.398000    0.154068   -9.011176
     38          7           0       -5.408811   -2.171883   -5.483230
     39          1           0       -4.765346   -2.307140   -6.259137
     40          6           0       -4.767108   -2.271944   -4.177483
     41          1           0       -5.267581   -1.571491   -3.501916
     42          6           0       -3.308499   -1.857421   -4.428993
     43          6           0       -4.868153   -3.709722   -3.591240
     44          1           0       -4.269701   -4.361711   -4.242726
     45          8           0       -2.805790   -2.014984   -5.545931
     46          6           0       -4.303284   -3.781630   -2.166081
     47          1           0       -4.848618   -3.104699   -1.495592
     48          1           0       -3.242664   -3.525974   -2.111797
     49          1           0       -4.418422   -4.795253   -1.769591
     50          6           0       -6.320693   -4.204746   -3.612921
     51          1           0       -6.968349   -3.542229   -3.028179
     52          1           0       -6.714779   -4.251711   -4.632638
     53          1           0       -6.379359   -5.210269   -3.183580
     54          7           0       -2.645027   -1.338996   -3.382199
     55          1           0       -3.058888   -1.295446   -2.457235
     56          6           0       -1.219510   -1.082733   -3.418343
     57          1           0       -0.755640   -1.800837   -4.104457
     58          6           0       -0.696614   -1.310056   -1.989420
     59          6           0       -0.903314    0.327703   -3.923876
     60          1           0       -1.360938    0.442917   -4.916238
     61          1           0        0.186715    0.435850   -4.038507
     62          8           0       -1.485419   -1.556155   -1.067606
     63          8           0       -1.429526    1.238862   -2.976912
     64          1           0       -1.250091    2.140056   -3.283446
     65          7           0        0.631357   -1.221306   -1.838951
     66          1           0        1.248836   -1.115010   -2.638597
     67          6           0        1.337432   -1.306294   -0.564600
     68          1           0        0.848959   -0.650900    0.164503
     69          6           0        2.751753   -0.806187   -0.861679
     70          6           0        1.300951   -2.757323    0.032196
     71          1           0        1.349092   -3.435857   -0.836232
     72          8           0        3.234226   -0.959713   -1.992497
     73          6           0        2.454488   -3.086803    0.972230
     74          1           0        3.414597   -3.086410    0.446498
     75          1           0        2.510110   -2.387584    1.811918
     76          1           0        2.283297   -4.086152    1.381353
     77          8           0        0.110333   -2.942144    0.766188
     78          1           0       -0.628241   -2.570738    0.242968
     79          7           0        3.377496   -0.214608    0.167344
     80          1           0        2.944723   -0.230344    1.088002
     81          6           0        4.802260    0.081586    0.229827
     82          1           0        5.324161   -0.569373   -0.479626
     83          6           0        5.237138   -0.250386    1.665482
     84          6           0        5.111466    1.559011   -0.093612
     85          1           0        6.141895    1.784209    0.198882
     86          1           0        4.450827    2.185874    0.515553
     87          8           0        4.390816   -0.373155    2.561880
     88          6           0        4.952377    1.884062   -1.584939
     89          1           0        5.057808    2.963864   -1.725771
     90          1           0        3.964581    1.585439   -1.947704
     91          6           0        6.079689    1.216653   -2.374575
     92          7           0        5.698558    0.169355   -3.161145
     93          1           0        4.807335   -0.287188   -2.991175
     94          1           0        6.441252   -0.366911   -3.590718
     95          8           0        7.237632    1.600182   -2.270829
     96          7           0        6.562147   -0.341774    1.861620
     97          1           0        7.173606   -0.428568    1.055906
     98          6           0        7.160391   -0.770079    3.127396
     99          1           0        6.527646   -1.564671    3.547097
    100          6           0        7.219485    0.372624    4.167512
    101          6           0        8.582327   -1.308112    2.845093
    102          1           0        9.246062   -0.448835    2.726560
    103          8           0        8.286438    0.774661    4.624961
    104          6           0        9.085368   -2.189745    3.979284
    105          1           0        9.095330   -1.634365    4.919519
    106          1           0        8.438434   -3.068886    4.105457
    107          1           0       10.100379   -2.533788    3.761033
    108          8           0        8.620589   -1.981145    1.582567
    109          1           0        8.207105   -2.852417    1.700163
    110          7           0        6.019677    0.870624    4.545603
    111          1           0        5.185827    0.388436    4.221848
    112          6           0        5.937121    1.714507    5.725569
    113          1           0        6.575188    2.590422    5.568245
    114          6           0        6.450100    0.915610    6.942144
    115          6           0        4.487767    2.143031    5.956149
    116          1           0        4.421344    2.808546    6.821755
    117          1           0        4.097108    2.670397    5.080053
    118          1           0        3.864161    1.264218    6.151705
    119          8           0        6.156437   -0.268533    7.084167
    120          7           0        7.200711    1.623980    7.813780
    121          1           0        7.363483    2.614607    7.680381
    122          6           0        7.750454    1.066495    9.032091
    123          1           0        7.154134    0.186119    9.286940
    124          6           0        7.628526    2.140962   10.115986
    125          6           0        9.240473    0.679848    8.875615
    126          1           0        9.795826    1.601767    8.658448
    127          1           0        9.608124    0.314191    9.845309
    128          8           0        7.580808    3.336366    9.832028
    129          6           0        9.537014   -0.364648    7.787343
    130          1           0        9.107296    0.001365    6.847269
    131          6           0       11.053824   -0.486742    7.592973
    132          1           0       11.543158   -0.845061    8.508273
    133          1           0       11.502294    0.477225    7.326558
    134          1           0       11.287350   -1.197548    6.792024
    135          6           0        8.915113   -1.728627    8.110877
    136          1           0        9.273832   -2.103110    9.079575
    137          1           0        9.196013   -2.467703    7.350996
    138          1           0        7.823599   -1.675759    8.128615
    139          7           0        7.635489    1.683639   11.392522
    140          1           0        7.713308    0.693294   11.574455
    141          6           0        7.678820    2.599475   12.522353
    142          1           0        8.294956    3.455387   12.224778
    143          6           0        8.352010    1.975763   13.734487
    144          6           0        6.286663    3.125937   12.906583
    145          1           0        6.367323    3.813531   13.752044
    146          1           0        5.862207    3.652484   12.048904
    147          1           0        5.623131    2.299611   13.181828
    148          8           0        8.528604    2.557249   14.778039
    149          8           0        8.717674    0.682253   13.540520
    150          1           0        9.119545    0.383327   14.378167
 ---------------------------------------------------------------------

 SCF Done:  E(RB3LYP) =  -3455.79179950     A.U. after    3 cycles

 Alpha  occ. eigenvalues --  -19.26989 -19.24498 -19.22207 -19.22034 -19.20438
 Alpha  occ. eigenvalues --  -19.20088 -19.20083 -19.20056 -19.19188 -19.18059
 Alpha  occ. eigenvalues --  -19.17814 -19.15656 -19.15346 -19.14325 -19.14022
 Alpha  occ. eigenvalues --  -14.60565 -14.49537 -14.45732 -14.44048 -14.43956
 Alpha  occ. eigenvalues --  -14.43378 -14.42641 -14.40053 -14.38957 -14.38797
 Alpha  occ. eigenvalues --  -14.38461 -10.43681 -10.40916 -10.39064 -10.37357
 Alpha  occ. eigenvalues --  -10.37122 -10.36874 -10.36430 -10.35788 -10.34346
 Alpha  occ. eigenvalues --  -10.33628 -10.32573 -10.32352 -10.32105 -10.31809
 Alpha  occ. eigenvalues --  -10.31555 -10.31499 -10.31311 -10.30851 -10.30366
 Alpha  occ. eigenvalues --  -10.30295 -10.29787 -10.29502 -10.28566 -10.28244
 Alpha  occ. eigenvalues --  -10.28233 -10.27972 -10.27778 -10.27535 -10.26847
 Alpha  occ. eigenvalues --  -10.26568 -10.26347 -10.26301 -10.25348 -10.25062
 Alpha  occ. eigenvalues --  -10.24695 -10.23770 -10.22666 -10.22449 -10.21650
 Alpha  occ. eigenvalues --  -10.21589 -10.21452 -10.20534 -10.19241 -10.18713
 Alpha  occ. eigenvalues --   -1.19544  -1.15094  -1.14515  -1.13941  -1.12751
 Alpha  occ. eigenvalues --   -1.11977  -1.11529  -1.10756  -1.09643  -1.07879
 Alpha  occ. eigenvalues --   -1.07483  -1.07212  -1.06386  -1.06198  -1.06025
 Alpha  occ. eigenvalues --   -1.05963  -1.05797  -1.02436  -1.00789  -1.00518
 Alpha  occ. eigenvalues --   -1.00231  -0.99002  -0.96733  -0.95932  -0.95497
 Alpha  occ. eigenvalues --   -0.95154  -0.93449  -0.91256  -0.88876  -0.88348
 Alpha  occ. eigenvalues --   -0.86827  -0.85241  -0.83895  -0.83181  -0.82865
 Alpha  occ. eigenvalues --   -0.82478  -0.81611  -0.80624  -0.80485  -0.79114
 Alpha  occ. eigenvalues --   -0.78825  -0.78435  -0.77444  -0.77136  -0.76853
 Alpha  occ. eigenvalues --   -0.75998  -0.74646  -0.74397  -0.73515  -0.72960
 Alpha  occ. eigenvalues --   -0.71931  -0.71605  -0.70022  -0.69685  -0.69348
 Alpha  occ. eigenvalues --   -0.68841  -0.68408  -0.68187  -0.68010  -0.67505
 Alpha  occ. eigenvalues --   -0.66558  -0.66447  -0.66421  -0.66209  -0.65408
 Alpha  occ. eigenvalues --   -0.64828  -0.64245  -0.64136  -0.63610  -0.63264
 Alpha  occ. eigenvalues --   -0.63109  -0.61812  -0.61380  -0.61278  -0.60548
 Alpha  occ. eigenvalues --   -0.60122  -0.59792  -0.59298  -0.59014  -0.58763
 Alpha  occ. eigenvalues --   -0.58003  -0.57544  -0.57494  -0.57064  -0.56834
 Alpha  occ. eigenvalues --   -0.56441  -0.55982  -0.55757  -0.55586  -0.55076
 Alpha  occ. eigenvalues --   -0.54917  -0.54726  -0.54425  -0.54194  -0.53804
 Alpha  occ. eigenvalues --   -0.53549  -0.53175  -0.52854  -0.52408  -0.52299
 Alpha  occ. eigenvalues --   -0.52247  -0.52021  -0.51658  -0.51634  -0.51396
 Alpha  occ. eigenvalues --   -0.51297  -0.50707  -0.50677  -0.50575  -0.50356
 Alpha  occ. eigenvalues --   -0.49913  -0.49734  -0.49667  -0.49238  -0.49147
 Alpha  occ. eigenvalues --   -0.48888  -0.48827  -0.48594  -0.48286  -0.48178
 Alpha  occ. eigenvalues --   -0.48044  -0.47890  -0.47653  -0.47215  -0.47095
 Alpha  occ. eigenvalues --   -0.46876  -0.46786  -0.46606  -0.46538  -0.46175
 Alpha  occ. eigenvalues --   -0.45721  -0.45514  -0.45452  -0.45214  -0.45087
 Alpha  occ. eigenvalues --   -0.45018  -0.44868  -0.44744  -0.44464  -0.44338
 Alpha  occ. eigenvalues --   -0.44294  -0.44131  -0.44068  -0.43879  -0.43762
 Alpha  occ. eigenvalues --   -0.43336  -0.43248  -0.43229  -0.43022  -0.42937
 Alpha  occ. eigenvalues --   -0.42640  -0.42379  -0.42306  -0.41783  -0.41706
 Alpha  occ. eigenvalues --   -0.41598  -0.41415  -0.41323  -0.41290  -0.41193
 Alpha  occ. eigenvalues --   -0.41124  -0.41090  -0.41048  -0.40683  -0.40543
 Alpha  occ. eigenvalues --   -0.40195  -0.39878  -0.39796  -0.39445  -0.39110
 Alpha  occ. eigenvalues --   -0.39044  -0.38894  -0.37890  -0.37127  -0.36262
 Alpha  occ. eigenvalues --   -0.36152  -0.35588  -0.35157  -0.34958  -0.34841
 Alpha  occ. eigenvalues --   -0.34378  -0.34258  -0.34215  -0.34065  -0.33820
 Alpha  occ. eigenvalues --   -0.33555  -0.33496  -0.32847  -0.32636  -0.32360
 Alpha  occ. eigenvalues --   -0.32222  -0.30773  -0.30112  -0.30077  -0.29523
 Alpha  occ. eigenvalues --   -0.29309  -0.28675  -0.28031  -0.27623  -0.27486
 Alpha virt. eigenvalues --   -0.12725  -0.11354  -0.08054  -0.06725  -0.06685
 Alpha virt. eigenvalues --   -0.05977  -0.05191  -0.05009  -0.04622  -0.03323
 Alpha virt. eigenvalues --   -0.02653  -0.02580  -0.01442  -0.01128  -0.00850

 Mulliken charges:
               1
     1  N   -0.752556
     2  H    0.416978
     3  H    0.413745
     4  H    0.431921
     5  C   -0.122217
     6  H    0.213955
     7  C    0.646354
     8  C   -0.285054
     9  H    0.172374
    10  H    0.163530
    11  O   -0.541664
    12  C   -0.112317
    13  H    0.166889
    14  C   -0.456863
    15  H    0.154517
    16  H    0.132829
    17  H    0.191977
    18  C   -0.451712
    19  H    0.154528
    20  H    0.155571
    21  H    0.177184
    22  N   -0.599854
    23  H    0.385435
    24  C   -0.073409
    25  H    0.185792
    26  C    0.632214
    27  C   -0.077053
    28  H    0.149969
    29  O   -0.556972
    30  C   -0.474821
    31  H    0.155644
    32  H    0.169169
    33  H    0.169079
    34  C   -0.445904
    35  H    0.163121
    36  H    0.168117
    37  H    0.131395
    38  N   -0.603443
    39  H    0.365163
    40  C   -0.062593
    41  H    0.182728
    42  C    0.623466
    43  C   -0.074777
    44  H    0.145225
    45  O   -0.553310
    46  C   -0.474020
    47  H    0.151065
    48  H    0.170115
    49  H    0.163156
    50  C   -0.452671
    51  H    0.159644
    52  H    0.136128
    53  H    0.156510
    54  N   -0.592194
    55  H    0.370757
    56  C   -0.085278
    57  H    0.196297
    58  C    0.660631
    59  C   -0.029722
    60  H    0.159183
    61  H    0.134285
    62  O   -0.561112
    63  O   -0.611244
    64  H    0.408430
    65  N   -0.629022
    66  H    0.361032
    67  C   -0.072230
    68  H    0.186133
    69  C    0.612899
    70  C    0.173970
    71  H    0.121613
    72  O   -0.568634
    73  C   -0.475392
    74  H    0.141167
    75  H    0.170038
    76  H    0.176705
    77  O   -0.652232
    78  H    0.427897
    79  N   -0.592019
    80  H    0.368795
    81  C   -0.082365
    82  H    0.180272
    83  C    0.634546
    84  C   -0.265221
    85  H    0.185732
    86  H    0.154355
    87  O   -0.562254
    88  C   -0.343698
    89  H    0.177084
    90  H    0.146521
    91  C    0.551407
    92  N   -0.763684
    93  H    0.380409
    94  H    0.332628
    95  O   -0.504640
    96  N   -0.603793
    97  H    0.366053
    98  C   -0.092937
    99  H    0.177260
   100  C    0.651745
   101  C    0.115325
   102  H    0.183835
   103  O   -0.526978
   104  C   -0.493733
   105  H    0.206191
   106  H    0.133918
   107  H    0.169258
   108  O   -0.631905
   109  H    0.391055
   110  N   -0.613985
   111  H    0.375544
   112  C   -0.031354
   113  H    0.161601
   114  C    0.640992
   115  C   -0.478720
   116  H    0.168401
   117  H    0.159908
   118  H    0.173182
   119  O   -0.547806
   120  N   -0.593569
   121  H    0.346635
   122  C   -0.077379
   123  H    0.175302
   124  C    0.628529
   125  C   -0.251132
   126  H    0.144986
   127  H    0.129240
   128  O   -0.540320
   129  C   -0.093007
   130  H    0.178988
   131  C   -0.443074
   132  H    0.134299
   133  H    0.144059
   134  H    0.139508
   135  C   -0.470469
   136  H    0.122506
   137  H    0.134817
   138  H    0.182773
   139  N   -0.616373
   140  H    0.352104
   141  C   -0.040450
   142  H    0.210286
   143  C    0.589230
   144  C   -0.445717
   145  H    0.179507
   146  H    0.182330
   147  H    0.150680
   148  O   -0.451344
   149  O   -0.583078
   150  H    0.420956
 Sum of Mulliken charges =   1.00000

 Dipole moment (field-independent basis, Debye):
    X=            -42.2864    Y=            -13.4668    Z=            -30.0140  Tot=             53.5755
 Quadrupole moment (field-independent basis, Debye-Ang):
   XX=             55.9367   YY=           -376.1050   ZZ=           -137.3607
   XY=             87.5549   XZ=            372.9971   YZ=             60.5286

 Normal termination of Gaussian 16 at Sun Jul 24 19:02:11 2022.
