 Gaussian 16, Revision C.01,
 Gaussian 16:  ES64L-G16RevC.01  3-Jul-2019

 ----------------------------------------------------------------------
 # B3LYP/6-31G* empiricaldispersion=gd3bj guess=read geom=check nosymm
 integral(ultrafinegrid)
 ----------------------------------------------------------------------

 ------------------------------------------------------
 Candidate Structure: Conf:584 Charge calc in gas phase
 ------------------------------------------------------
 Structure from the checkpoint file:  "conf-584.chk"
 Charge =  1 Multiplicity = 1

                          Input orientation:
 ---------------------------------------------------------------------
 Center     Atomic      Atomic             Coordinates (Angstroms)
 Number     Number       Type             X           Y           Z
 ---------------------------------------------------------------------
      1          7           0      -10.097135   -5.790563   -7.079955
      2          1           0      -10.116605   -5.835359   -8.101865
      3          1           0      -11.061119   -5.800384   -6.735770
      4          1           0       -9.535449   -6.617077   -6.701475
      5          6           0       -9.298010   -4.621511   -6.544036
      6          1           0       -9.076966   -3.950647   -7.375538
      7          6           0       -8.013424   -5.308262   -6.015063
      8          6           0      -10.059901   -3.902200   -5.425000
      9          1           0       -9.388090   -3.137605   -5.016740
     10          1           0      -10.232096   -4.617934   -4.609329
     11          8           0       -8.009549   -6.548002   -5.952916
     12          6           0      -11.385694   -3.236311   -5.840881
     13          1           0      -12.073584   -4.012096   -6.221061
     14          6           0      -12.046947   -2.616901   -4.602450
     15          1           0      -11.418209   -1.820742   -4.187074
     16          1           0      -12.210714   -3.362949   -3.817297
     17          1           0      -13.015554   -2.178690   -4.860222
     18          6           0      -11.189311   -2.189745   -6.944451
     19          1           0      -10.488600   -1.411126   -6.620065
     20          1           0      -10.806400   -2.619435   -7.878233
     21          1           0      -12.139106   -1.702103   -7.182631
     22          7           0       -7.035804   -4.494618   -5.648562
     23          1           0       -7.173160   -3.482839   -5.612955
     24          6           0       -5.844154   -4.888995   -4.893824
     25          1           0       -6.039155   -5.859704   -4.428213
     26          6           0       -5.717072   -3.771155   -3.838141
     27          6           0       -4.591072   -4.988926   -5.805205
     28          1           0       -4.394235   -3.976735   -6.184857
     29          8           0       -6.176939   -2.652724   -4.093264
     30          6           0       -3.363750   -5.470040   -5.019189
     31          1           0       -3.543999   -6.459003   -4.578425
     32          1           0       -3.071082   -4.791569   -4.214787
     33          1           0       -2.508628   -5.567735   -5.694782
     34          6           0       -4.861056   -5.916878   -6.996042
     35          1           0       -5.119334   -6.926518   -6.657752
     36          1           0       -3.967205   -5.987785   -7.623375
     37          1           0       -5.678159   -5.549075   -7.624119
     38          7           0       -5.119116   -4.103292   -2.683819
     39          1           0       -4.606332   -4.978795   -2.609281
     40          6           0       -4.715397   -3.119823   -1.687571
     41          1           0       -4.672998   -2.142530   -2.179034
     42          6           0       -3.310738   -3.545280   -1.229614
     43          6           0       -5.700619   -3.037475   -0.490943
     44          1           0       -5.298801   -2.267713    0.182177
     45          8           0       -2.855979   -4.652344   -1.528022
     46          6           0       -7.088659   -2.583508   -0.954128
     47          1           0       -7.547548   -3.339586   -1.600916
     48          1           0       -7.041021   -1.647018   -1.517851
     49          1           0       -7.745304   -2.437950   -0.090020
     50          6           0       -5.772962   -4.360744    0.278911
     51          1           0       -6.153391   -5.163236   -0.363574
     52          1           0       -4.794646   -4.670517    0.660249
     53          1           0       -6.451910   -4.267043    1.132147
     54          7           0       -2.651332   -2.650851   -0.469967
     55          1           0       -3.069348   -1.768960   -0.187684
     56          6           0       -1.383203   -2.942478    0.165323
     57          1           0       -1.379699   -3.975078    0.529124
     58          6           0       -1.226251   -1.955842    1.317610
     59          6           0       -0.202119   -2.784763   -0.837247
     60          1           0       -0.247654   -1.777977   -1.272834
     61          1           0       -0.355853   -3.517409   -1.633231
     62          8           0       -1.935571   -0.959332    1.416177
     63          8           0        1.051431   -3.042333   -0.233232
     64          1           0        1.407942   -2.190834    0.091511
     65          7           0       -0.204591   -2.250265    2.178806
     66          1           0        0.467130   -2.916328    1.799004
     67          6           0        0.362057   -1.179241    2.987508
     68          1           0       -0.465669   -0.643695    3.457902
     69          6           0        1.156877   -0.225561    2.094813
     70          6           0        1.220096   -1.814862    4.115382
     71          1           0        1.977685   -2.461459    3.646497
     72          8           0        1.780858   -0.637122    1.091739
     73          6           0        1.932533   -0.793544    4.986414
     74          1           0        2.721056   -0.282076    4.430517
     75          1           0        1.227946   -0.058955    5.393709
     76          1           0        2.393394   -1.315985    5.828222
     77          8           0        0.359726   -2.564371    4.955393
     78          1           0       -0.128272   -3.187652    4.392424
     79          7           0        1.172112    1.061291    2.467712
     80          1           0        0.680172    1.321233    3.313521
     81          6           0        2.014780    2.093273    1.845461
     82          1           0        1.997832    1.908768    0.766466
     83          6           0        3.448361    1.894015    2.379290
     84          6           0        1.461256    3.475880    2.161615
     85          1           0        1.483361    3.628762    3.246745
     86          1           0        0.419810    3.537762    1.834028
     87          8           0        3.899266    2.556239    3.315734
     88          6           0        2.254517    4.593392    1.483864
     89          1           0        2.382660    4.371820    0.414628
     90          1           0        3.255447    4.671650    1.919509
     91          6           0        1.498897    5.920192    1.579667
     92          7           0        2.286912    7.031679    1.606893
     93          1           0        3.288294    6.981820    1.715248
     94          1           0        1.837987    7.933185    1.691711
     95          8           0        0.277305    5.973574    1.589330
     96          7           0        4.123474    0.890956    1.776694
     97          1           0        3.624964    0.368629    1.065432
     98          6           0        5.313066    0.287122    2.379132
     99          1           0        5.227744    0.433716    3.462000
    100          6           0        6.564318    1.030424    1.883343
    101          6           0        5.345838   -1.225481    2.091787
    102          1           0        5.521120   -1.372833    1.017308
    103          8           0        7.374508    0.521610    1.102815
    104          6           0        6.445794   -1.917087    2.882343
    105          1           0        7.426014   -1.526193    2.602438
    106          1           0        6.288461   -1.770277    3.956883
    107          1           0        6.420551   -2.990686    2.678497
    108          8           0        4.105176   -1.819752    2.482556
    109          1           0        3.424407   -1.604701    1.823714
    110          7           0        6.673745    2.285026    2.369833
    111          1           0        5.931885    2.623499    2.979933
    112          6           0        7.721313    3.214852    1.941610
    113          1           0        7.926737    2.996753    0.887100
    114          6           0        9.017231    2.950281    2.739733
    115          6           0        7.245056    4.650893    2.109745
    116          1           0        8.013661    5.345511    1.763715
    117          1           0        6.329832    4.813757    1.530824
    118          1           0        7.055002    4.872957    3.163778
    119          8           0        9.472086    3.772697    3.539301
    120          7           0        9.577095    1.746986    2.493062
    121          1           0        9.118027    1.135242    1.820434
    122          6           0       10.685702    1.220275    3.289778
    123          1           0       10.567211    1.638516    4.294195
    124          6           0       12.029393    1.729437    2.728911
    125          6           0       10.606851   -0.303957    3.342235
    126          1           0        9.608801   -0.565610    3.722671
    127          1           0       10.681299   -0.696945    2.320918
    128          8           0       12.816557    1.012400    2.120458
    129          6           0       11.677767   -0.985553    4.214065
    130          1           0       12.638384   -0.855139    3.705696
    131          6           0       11.788425   -0.360978    5.611417
    132          1           0       10.816210   -0.351415    6.122852
    133          1           0       12.164236    0.667507    5.571814
    134          1           0       12.483194   -0.936119    6.233772
    135          6           0       11.377954   -2.486292    4.306159
    136          1           0       10.430204   -2.666911    4.830943
    137          1           0       12.167476   -3.012483    4.854215
    138          1           0       11.301086   -2.938955    3.310532
    139          7           0       12.237721    3.049905    2.976036
    140          1           0       11.497352    3.566496    3.445759
    141          6           0       13.473335    3.712738    2.628066
    142          1           0       14.007330    3.016707    1.969471
    143          6           0       14.390290    3.914563    3.836928
    144          6           0       13.234569    5.037899    1.901954
    145          1           0       14.186509    5.527711    1.687850
    146          1           0       12.699662    4.854540    0.966188
    147          1           0       12.633989    5.716623    2.518173
    148          8           0       15.290225    4.723434    3.882198
    149          8           0       14.119704    3.062929    4.853364
    150          1           0       14.790523    3.248133    5.537436
 ---------------------------------------------------------------------

 SCF Done:  E(RB3LYP) =  -3455.80376884     A.U. after    3 cycles

 Alpha  occ. eigenvalues --  -19.27254 -19.22678 -19.22236 -19.22199 -19.21448
 Alpha  occ. eigenvalues --  -19.20903 -19.20691 -19.20544 -19.20061 -19.19711
 Alpha  occ. eigenvalues --  -19.17713 -19.16260 -19.16165 -19.15927 -19.13626
 Alpha  occ. eigenvalues --  -14.60256 -14.49616 -14.46432 -14.45725 -14.44565
 Alpha  occ. eigenvalues --  -14.44167 -14.43431 -14.41408 -14.40868 -14.39356
 Alpha  occ. eigenvalues --  -14.37537 -10.43821 -10.40950 -10.39197 -10.38931
 Alpha  occ. eigenvalues --  -10.37530 -10.37372 -10.36383 -10.34558 -10.34416
 Alpha  occ. eigenvalues --  -10.34276 -10.34124 -10.33879 -10.32691 -10.32637
 Alpha  occ. eigenvalues --  -10.31977 -10.31725 -10.31372 -10.31197 -10.31149
 Alpha  occ. eigenvalues --  -10.30894 -10.30582 -10.29709 -10.29507 -10.29460
 Alpha  occ. eigenvalues --  -10.29244 -10.28599 -10.28346 -10.27973 -10.26497
 Alpha  occ. eigenvalues --  -10.26155 -10.26002 -10.25814 -10.25754 -10.25642
 Alpha  occ. eigenvalues --  -10.25161 -10.25073 -10.23788 -10.23094 -10.22016
 Alpha  occ. eigenvalues --  -10.21140 -10.20742 -10.20690 -10.19414 -10.19405
 Alpha  occ. eigenvalues --   -1.19701  -1.14519  -1.14173  -1.13973  -1.13000
 Alpha  occ. eigenvalues --   -1.12922  -1.12141  -1.11443  -1.09450  -1.08961
 Alpha  occ. eigenvalues --   -1.08652  -1.08106  -1.07591  -1.07445  -1.06534
 Alpha  occ. eigenvalues --   -1.05401  -1.03857  -1.02614  -1.02523  -1.01253
 Alpha  occ. eigenvalues --   -1.00863  -0.99883  -0.98021  -0.96071  -0.95717
 Alpha  occ. eigenvalues --   -0.95483  -0.94623  -0.91636  -0.89346  -0.88681
 Alpha  occ. eigenvalues --   -0.88134  -0.85674  -0.84593  -0.83594  -0.83554
 Alpha  occ. eigenvalues --   -0.82940  -0.81781  -0.80843  -0.80216  -0.80102
 Alpha  occ. eigenvalues --   -0.79834  -0.78807  -0.77615  -0.77242  -0.76840
 Alpha  occ. eigenvalues --   -0.76227  -0.76000  -0.74396  -0.73466  -0.72861
 Alpha  occ. eigenvalues --   -0.71916  -0.70892  -0.70481  -0.70136  -0.70018
 Alpha  occ. eigenvalues --   -0.69841  -0.69686  -0.69092  -0.67907  -0.67818
 Alpha  occ. eigenvalues --   -0.67381  -0.67025  -0.66635  -0.66513  -0.65449
 Alpha  occ. eigenvalues --   -0.65003  -0.64637  -0.64123  -0.63743  -0.63352
 Alpha  occ. eigenvalues --   -0.62813  -0.62691  -0.61708  -0.61454  -0.60579
 Alpha  occ. eigenvalues --   -0.60110  -0.59976  -0.59942  -0.59170  -0.59125
 Alpha  occ. eigenvalues --   -0.58799  -0.58713  -0.58291  -0.58077  -0.57939
 Alpha  occ. eigenvalues --   -0.57299  -0.57062  -0.56900  -0.56105  -0.56012
 Alpha  occ. eigenvalues --   -0.55910  -0.55442  -0.55247  -0.54890  -0.54664
 Alpha  occ. eigenvalues --   -0.54516  -0.53938  -0.53647  -0.53271  -0.53004
 Alpha  occ. eigenvalues --   -0.52727  -0.52266  -0.52065  -0.52027  -0.51908
 Alpha  occ. eigenvalues --   -0.51641  -0.51522  -0.51410  -0.50932  -0.50711
 Alpha  occ. eigenvalues --   -0.50630  -0.50200  -0.50135  -0.49937  -0.49585
 Alpha  occ. eigenvalues --   -0.49376  -0.49055  -0.48987  -0.48565  -0.48215
 Alpha  occ. eigenvalues --   -0.48127  -0.48029  -0.47783  -0.47399  -0.47237
 Alpha  occ. eigenvalues --   -0.46951  -0.46827  -0.46582  -0.46367  -0.46228
 Alpha  occ. eigenvalues --   -0.46066  -0.45957  -0.45705  -0.45617  -0.45586
 Alpha  occ. eigenvalues --   -0.45553  -0.45499  -0.45479  -0.44944  -0.44869
 Alpha  occ. eigenvalues --   -0.44757  -0.44656  -0.44361  -0.44050  -0.43725
 Alpha  occ. eigenvalues --   -0.43604  -0.43522  -0.43239  -0.43139  -0.43091
 Alpha  occ. eigenvalues --   -0.42924  -0.42817  -0.42769  -0.42647  -0.42420
 Alpha  occ. eigenvalues --   -0.42367  -0.42224  -0.41948  -0.41749  -0.41577
 Alpha  occ. eigenvalues --   -0.41438  -0.41405  -0.40850  -0.40728  -0.40672
 Alpha  occ. eigenvalues --   -0.40425  -0.40074  -0.39804  -0.39330  -0.39167
 Alpha  occ. eigenvalues --   -0.39094  -0.38492  -0.38457  -0.38247  -0.37373
 Alpha  occ. eigenvalues --   -0.37102  -0.36633  -0.36369  -0.35681  -0.35145
 Alpha  occ. eigenvalues --   -0.35037  -0.34754  -0.34528  -0.34476  -0.34410
 Alpha  occ. eigenvalues --   -0.34131  -0.33916  -0.33337  -0.33186  -0.32791
 Alpha  occ. eigenvalues --   -0.32636  -0.32460  -0.31833  -0.31156  -0.30623
 Alpha  occ. eigenvalues --   -0.30334  -0.30103  -0.28666  -0.26712  -0.26343
 Alpha virt. eigenvalues --   -0.12370  -0.11795  -0.08913  -0.08144  -0.07182
 Alpha virt. eigenvalues --   -0.07143  -0.06125  -0.05774  -0.04409  -0.04273
 Alpha virt. eigenvalues --   -0.02687  -0.02365  -0.01992  -0.01628  -0.01507

 Mulliken charges:
               1
     1  N   -0.758432
     2  H    0.416068
     3  H    0.412447
     4  H    0.434279
     5  C   -0.119219
     6  H    0.217480
     7  C    0.653709
     8  C   -0.299831
     9  H    0.198491
    10  H    0.173370
    11  O   -0.543130
    12  C   -0.099331
    13  H    0.114106
    14  C   -0.447938
    15  H    0.167810
    16  H    0.159293
    17  H    0.175709
    18  C   -0.454609
    19  H    0.169982
    20  H    0.130725
    21  H    0.185031
    22  N   -0.594642
    23  H    0.371685
    24  C   -0.074353
    25  H    0.185912
    26  C    0.626824
    27  C   -0.076415
    28  H    0.148301
    29  O   -0.553263
    30  C   -0.478183
    31  H    0.154469
    32  H    0.174707
    33  H    0.169956
    34  C   -0.446404
    35  H    0.164129
    36  H    0.168869
    37  H    0.130206
    38  N   -0.599301
    39  H    0.368273
    40  C   -0.073773
    41  H    0.187208
    42  C    0.634321
    43  C   -0.079158
    44  H    0.144738
    45  O   -0.548023
    46  C   -0.442755
    47  H    0.134601
    48  H    0.161018
    49  H    0.156006
    50  C   -0.462620
    51  H    0.145742
    52  H    0.163911
    53  H    0.162241
    54  N   -0.624006
    55  H    0.362717
    56  C   -0.060671
    57  H    0.193305
    58  C    0.597415
    59  C   -0.046835
    60  H    0.144441
    61  H    0.183433
    62  O   -0.523614
    63  O   -0.645959
    64  H    0.438664
    65  N   -0.628606
    66  H    0.352316
    67  C   -0.097918
    68  H    0.191347
    69  C    0.665748
    70  C    0.132987
    71  H    0.156697
    72  O   -0.609014
    73  C   -0.478112
    74  H    0.169169
    75  H    0.143876
    76  H    0.188346
    77  O   -0.614615
    78  H    0.402109
    79  N   -0.582025
    80  H    0.359797
    81  C   -0.063150
    82  H    0.180054
    83  C    0.637955
    84  C   -0.285649
    85  H    0.169165
    86  H    0.190465
    87  O   -0.544191
    88  C   -0.387164
    89  H    0.172010
    90  H    0.170940
    91  C    0.607974
    92  N   -0.747623
    93  H    0.340779
    94  H    0.349673
    95  O   -0.504503
    96  N   -0.614539
    97  H    0.356786
    98  C   -0.066539
    99  H    0.183796
   100  C    0.646414
   101  C    0.102472
   102  H    0.148478
   103  O   -0.551686
   104  C   -0.469274
   105  H    0.183456
   106  H    0.152023
   107  H    0.168195
   108  O   -0.654466
   109  H    0.410223
   110  N   -0.613738
   111  H    0.375138
   112  C   -0.059153
   113  H    0.181337
   114  C    0.631711
   115  C   -0.463592
   116  H    0.177243
   117  H    0.137424
   118  H    0.175599
   119  O   -0.547147
   120  N   -0.625789
   121  H    0.379131
   122  C   -0.067091
   123  H    0.176203
   124  C    0.636878
   125  C   -0.280493
   126  H    0.128172
   127  H    0.153434
   128  O   -0.527458
   129  C   -0.077715
   130  H    0.170064
   131  C   -0.460763
   132  H    0.131279
   133  H    0.157766
   134  H    0.144183
   135  C   -0.446005
   136  H    0.130486
   137  H    0.144390
   138  H    0.142373
   139  N   -0.613469
   140  H    0.367618
   141  C   -0.058787
   142  H    0.213899
   143  C    0.594153
   144  C   -0.449756
   145  H    0.182194
   146  H    0.155217
   147  H    0.153128
   148  O   -0.463262
   149  O   -0.560139
   150  H    0.412033
 Sum of Mulliken charges =   1.00000

 Dipole moment (field-independent basis, Debye):
    X=            -42.3727    Y=            -17.4684    Z=            -24.8670  Tot=             52.1437
 Quadrupole moment (field-independent basis, Debye-Ang):
   XX=           -102.7933   YY=           -309.0553   ZZ=           -225.4596
   XY=            202.6457   XZ=            266.7407   YZ=            130.2138

 Normal termination of Gaussian 16 at Sun Jul 24 19:02:15 2022.
