 Gaussian 16, Revision C.01,
 Gaussian 16:  ES64L-G16RevC.01  3-Jul-2019

 ----------------------------------------------------------------------
 # B3LYP/6-31G* empiricaldispersion=gd3bj guess=read geom=check nosymm
 integral(ultrafinegrid)
 ----------------------------------------------------------------------

 ------------------------------------------------------
 Candidate Structure: Conf:112 Charge calc in gas phase
 ------------------------------------------------------
 Structure from the checkpoint file:  "conf-112.chk"
 Charge =  1 Multiplicity = 1

                          Input orientation:
 ---------------------------------------------------------------------
 Center     Atomic      Atomic             Coordinates (Angstroms)
 Number     Number       Type             X           Y           Z
 ---------------------------------------------------------------------
      1          7           0       -9.971623   -0.888363   -7.606603
      2          1           0      -10.086100   -0.887132   -8.624290
      3          1           0      -10.832318   -0.540598   -7.175427
      4          1           0       -9.748325   -1.879829   -7.291471
      5          6           0       -8.733402   -0.145941   -7.141782
      6          1           0       -8.449143    0.571108   -7.912833
      7          6           0       -7.708499   -1.295880   -6.989484
      8          6           0       -9.041172    0.542711   -5.800838
      9          1           0       -9.380779   -0.228367   -5.096277
     10          1           0       -9.879130    1.236731   -5.961547
     11          8           0       -8.165419   -2.442247   -6.852729
     12          6           0       -7.869357    1.323788   -5.171819
     13          1           0       -7.042971    0.630268   -4.988123
     14          6           0       -7.357997    2.446307   -6.082684
     15          1           0       -8.149008    3.178138   -6.288686
     16          1           0       -6.978911    2.083359   -7.046074
     17          1           0       -6.527550    2.969480   -5.601539
     18          6           0       -8.310118    1.881602   -3.812896
     19          1           0       -9.127189    2.604721   -3.925091
     20          1           0       -8.649571    1.084058   -3.142776
     21          1           0       -7.474093    2.392450   -3.326318
     22          7           0       -6.429058   -0.952161   -6.992171
     23          1           0       -6.151363    0.031116   -6.985452
     24          6           0       -5.334417   -1.806894   -6.522763
     25          1           0       -5.770682   -2.646739   -5.974056
     26          6           0       -4.543676   -0.870129   -5.585736
     27          6           0       -4.472006   -2.342323   -7.694026
     28          1           0       -4.005109   -1.469466   -8.170827
     29          8           0       -4.570948    0.349078   -5.799278
     30          6           0       -3.366898   -3.277708   -7.184695
     31          1           0       -3.796117   -4.142528   -6.662634
     32          1           0       -2.668936   -2.785731   -6.503017
     33          1           0       -2.788200   -3.662102   -8.030020
     34          6           0       -5.351048   -3.057909   -8.726609
     35          1           0       -5.875983   -3.907044   -8.274431
     36          1           0       -4.733269   -3.438611   -9.545848
     37          1           0       -6.099828   -2.386575   -9.158395
     38          7           0       -3.895907   -1.450814   -4.570738
     39          1           0       -3.793121   -2.462043   -4.522495
     40          6           0       -2.977398   -0.742550   -3.685491
     41          1           0       -2.686814    0.190658   -4.177584
     42          6           0       -1.775770   -1.689028   -3.540524
     43          6           0       -3.634713   -0.413838   -2.314987
     44          1           0       -3.837658   -1.373621   -1.820866
     45          8           0       -1.922162   -2.902832   -3.701295
     46          6           0       -2.693250    0.401557   -1.418113
     47          1           0       -2.364621    1.319616   -1.924167
     48          1           0       -1.818654   -0.176510   -1.113482
     49          1           0       -3.220945    0.705681   -0.508070
     50          6           0       -4.965002    0.323476   -2.519635
     51          1           0       -4.813163    1.262437   -3.063952
     52          1           0       -5.681164   -0.282702   -3.083398
     53          1           0       -5.414677    0.557924   -1.549093
     54          7           0       -0.587177   -1.118107   -3.260869
     55          1           0       -0.548810   -0.154220   -2.946670
     56          6           0        0.526496   -1.926326   -2.812586
     57          1           0        0.756226   -2.681336   -3.571531
     58          6           0        0.186531   -2.633768   -1.489652
     59          6           0        1.736566   -0.987761   -2.629226
     60          1           0        2.131320   -0.733092   -3.624973
     61          1           0        2.528325   -1.514176   -2.079029
     62          8           0       -0.653663   -2.197035   -0.700437
     63          8           0        1.287857    0.158394   -1.944778
     64          1           0        2.066558    0.602077   -1.516933
     65          7           0        0.934439   -3.731378   -1.233470
     66          1           0        1.675704   -4.024592   -1.861938
     67          6           0        0.989042   -4.370340    0.080991
     68          1           0       -0.022883   -4.398657    0.494465
     69          6           0        1.903627   -3.483779    0.942660
     70          6           0        1.571509   -5.785026   -0.086088
     71          1           0        1.762505   -6.182975    0.921048
     72          8           0        3.107244   -3.735832    1.093268
     73          6           0        0.632906   -6.717113   -0.835709
     74          1           0       -0.298501   -6.860054   -0.277832
     75          1           0        0.386905   -6.311524   -1.821969
     76          1           0        1.114662   -7.689023   -0.971964
     77          8           0        2.789213   -5.696211   -0.820793
     78          1           0        3.378187   -5.158968   -0.252945
     79          7           0        1.330757   -2.347150    1.396922
     80          1           0        0.384938   -2.156647    1.071606
     81          6           0        2.185727   -1.193547    1.671119
     82          1           0        3.042880   -1.276949    0.994451
     83          6           0        2.731444   -1.178954    3.107934
     84          6           0        1.438240    0.107634    1.382646
     85          1           0        0.640798    0.232102    2.121282
     86          1           0        0.994066    0.038672    0.386456
     87          8           0        2.122777   -0.670816    4.044927
     88          6           0        2.382983    1.320278    1.456955
     89          1           0        2.695395    1.491452    2.490302
     90          1           0        1.849920    2.212974    1.112895
     91          6           0        3.593874    1.130346    0.554628
     92          7           0        4.784434    1.074192    1.176866
     93          1           0        4.864949    1.019367    2.194815
     94          1           0        5.605210    0.895422    0.613451
     95          8           0        3.490583    1.010875   -0.678713
     96          7           0        3.992463   -1.662223    3.219199
     97          1           0        4.366957   -2.281468    2.506760
     98          6           0        4.748610   -1.510004    4.435253
     99          1           0        4.345219   -2.145005    5.239422
    100          6           0        4.722581   -0.041934    4.876099
    101          6           0        6.221708   -1.911851    4.139378
    102          1           0        6.640363   -1.135974    3.490387
    103          8           0        4.884016    0.882978    4.071210
    104          6           0        7.061778   -2.045343    5.401537
    105          1           0        7.125349   -1.100562    5.950275
    106          1           0        6.638166   -2.810219    6.067885
    107          1           0        8.075423   -2.354348    5.131065
    108          8           0        6.250029   -3.093300    3.341691
    109          1           0        6.031642   -3.847328    3.914141
    110          7           0        4.623987    0.188873    6.199313
    111          1           0        4.590588   -0.595403    6.835190
    112          6           0        4.909608    1.510626    6.743979
    113          1           0        4.241958    2.225217    6.252735
    114          6           0        6.379819    1.855561    6.432553
    115          6           0        4.680875    1.509905    8.253983
    116          1           0        4.853643    2.509808    8.661877
    117          1           0        3.654245    1.212654    8.489987
    118          1           0        5.381218    0.820780    8.737450
    119          8           0        7.274854    1.050928    6.693367
    120          7           0        6.589907    3.068623    5.888056
    121          1           0        5.823844    3.710750    5.723617
    122          6           0        7.899799    3.564412    5.511192
    123          1           0        8.640729    3.030635    6.111598
    124          6           0        7.911868    5.063923    5.823954
    125          6           0        8.182282    3.370475    4.002105
    126          1           0        7.435442    3.960349    3.454605
    127          1           0        9.161770    3.814611    3.774541
    128          8           0        6.872534    5.722750    5.813318
    129          6           0        8.149601    1.916100    3.504714
    130          1           0        7.192595    1.482427    3.814278
    131          6           0        8.194018    1.897504    1.970855
    132          1           0        9.128135    2.333086    1.594026
    133          1           0        7.361627    2.467429    1.540981
    134          1           0        8.138414    0.868599    1.593386
    135          6           0        9.282606    1.070164    4.096829
    136          1           0       10.263454    1.494944    3.844999
    137          1           0        9.252540    0.051350    3.691733
    138          1           0        9.195854    0.992456    5.183404
    139          7           0        9.130836    5.601817    6.053423
    140          1           0        9.973525    5.042263    5.993306
    141          6           0        9.322822    7.032945    6.207858
    142          1           0        8.719224    7.554508    5.455887
    143          6           0       10.789157    7.316393    5.931705
    144          6           0        8.906936    7.535565    7.601051
    145          1           0        9.047572    8.616921    7.675662
    146          1           0        7.851784    7.299431    7.753466
    147          1           0        9.499409    7.043065    8.378570
    148          8           0       11.636708    6.463797    5.768814
    149          8           0       11.047817    8.636210    5.909970
    150          1           0       12.006292    8.733471    5.753059
 ---------------------------------------------------------------------

 SCF Done:  E(RB3LYP) =  -3455.83802165     A.U. after    3 cycles

 Alpha  occ. eigenvalues --  -19.26338 -19.25267 -19.21094 -19.20372 -19.19793
 Alpha  occ. eigenvalues --  -19.18811 -19.18780 -19.18672 -19.18559 -19.18402
 Alpha  occ. eigenvalues --  -19.17909 -19.16703 -19.16305 -19.16035 -19.15859
 Alpha  occ. eigenvalues --  -14.59934 -14.48793 -14.44669 -14.42668 -14.42358
 Alpha  occ. eigenvalues --  -14.42008 -14.41499 -14.40831 -14.40462 -14.40089
 Alpha  occ. eigenvalues --  -14.39514 -10.42998 -10.40286 -10.38104 -10.37672
 Alpha  occ. eigenvalues --  -10.35620 -10.35246 -10.34866 -10.34725 -10.33822
 Alpha  occ. eigenvalues --  -10.33506 -10.33372 -10.33106 -10.33026 -10.32803
 Alpha  occ. eigenvalues --  -10.30484 -10.30194 -10.29672 -10.29584 -10.29532
 Alpha  occ. eigenvalues --  -10.29266 -10.29155 -10.28991 -10.28729 -10.28666
 Alpha  occ. eigenvalues --  -10.28627 -10.27927 -10.27623 -10.27618 -10.26931
 Alpha  occ. eigenvalues --  -10.26293 -10.25829 -10.25348 -10.24203 -10.23771
 Alpha  occ. eigenvalues --  -10.23727 -10.23527 -10.22829 -10.22787 -10.22634
 Alpha  occ. eigenvalues --  -10.22399 -10.22103 -10.22050 -10.21127 -10.19998
 Alpha  occ. eigenvalues --   -1.18892  -1.16341  -1.13790  -1.13045  -1.11207
 Alpha  occ. eigenvalues --   -1.10548  -1.10089  -1.09589  -1.08595  -1.08101
 Alpha  occ. eigenvalues --   -1.08043  -1.07602  -1.07470  -1.07287  -1.06456
 Alpha  occ. eigenvalues --   -1.06261  -1.05645  -1.01364  -0.99225  -0.99032
 Alpha  occ. eigenvalues --   -0.98417  -0.98074  -0.97615  -0.97052  -0.96901
 Alpha  occ. eigenvalues --   -0.94683  -0.94513  -0.90420  -0.87879  -0.87326
 Alpha  occ. eigenvalues --   -0.85567  -0.85228  -0.84000  -0.83673  -0.82928
 Alpha  occ. eigenvalues --   -0.82308  -0.81612  -0.81521  -0.79656  -0.78410
 Alpha  occ. eigenvalues --   -0.78365  -0.78181  -0.77463  -0.76572  -0.76092
 Alpha  occ. eigenvalues --   -0.74571  -0.74423  -0.73762  -0.72909  -0.72108
 Alpha  occ. eigenvalues --   -0.71530  -0.71414  -0.71255  -0.70001  -0.69650
 Alpha  occ. eigenvalues --   -0.68547  -0.68312  -0.67747  -0.67671  -0.66775
 Alpha  occ. eigenvalues --   -0.66686  -0.66052  -0.65614  -0.65427  -0.64817
 Alpha  occ. eigenvalues --   -0.64408  -0.63852  -0.63675  -0.63320  -0.62868
 Alpha  occ. eigenvalues --   -0.62805  -0.62602  -0.61942  -0.60866  -0.60380
 Alpha  occ. eigenvalues --   -0.59391  -0.58946  -0.58540  -0.58384  -0.58254
 Alpha  occ. eigenvalues --   -0.58021  -0.56932  -0.56725  -0.56389  -0.56239
 Alpha  occ. eigenvalues --   -0.56018  -0.55605  -0.55449  -0.55273  -0.55031
 Alpha  occ. eigenvalues --   -0.54807  -0.54550  -0.54379  -0.54219  -0.54017
 Alpha  occ. eigenvalues --   -0.53712  -0.52937  -0.52714  -0.52591  -0.52125
 Alpha  occ. eigenvalues --   -0.51965  -0.51739  -0.51609  -0.51494  -0.51045
 Alpha  occ. eigenvalues --   -0.50901  -0.50519  -0.50096  -0.49991  -0.49937
 Alpha  occ. eigenvalues --   -0.49486  -0.49426  -0.49157  -0.48869  -0.48589
 Alpha  occ. eigenvalues --   -0.48438  -0.48264  -0.47982  -0.47943  -0.47775
 Alpha  occ. eigenvalues --   -0.47576  -0.47311  -0.47076  -0.47023  -0.46988
 Alpha  occ. eigenvalues --   -0.46815  -0.46458  -0.46225  -0.46198  -0.45931
 Alpha  occ. eigenvalues --   -0.45807  -0.45778  -0.45470  -0.45266  -0.45210
 Alpha  occ. eigenvalues --   -0.45155  -0.45040  -0.44663  -0.44383  -0.44236
 Alpha  occ. eigenvalues --   -0.43975  -0.43933  -0.43809  -0.43753  -0.43557
 Alpha  occ. eigenvalues --   -0.43411  -0.43329  -0.42842  -0.42832  -0.42648
 Alpha  occ. eigenvalues --   -0.42584  -0.42354  -0.42214  -0.42171  -0.42083
 Alpha  occ. eigenvalues --   -0.41917  -0.41691  -0.41565  -0.41434  -0.41161
 Alpha  occ. eigenvalues --   -0.40993  -0.40770  -0.40590  -0.40496  -0.40414
 Alpha  occ. eigenvalues --   -0.40219  -0.39816  -0.39707  -0.39374  -0.39239
 Alpha  occ. eigenvalues --   -0.38464  -0.38281  -0.38268  -0.37702  -0.37425
 Alpha  occ. eigenvalues --   -0.36383  -0.35927  -0.35806  -0.35279  -0.34505
 Alpha  occ. eigenvalues --   -0.34446  -0.33776  -0.33657  -0.33424  -0.33010
 Alpha  occ. eigenvalues --   -0.32719  -0.32386  -0.32322  -0.32227  -0.31928
 Alpha  occ. eigenvalues --   -0.31471  -0.30917  -0.30874  -0.30469  -0.30407
 Alpha  occ. eigenvalues --   -0.30350  -0.29745  -0.29316  -0.29074  -0.28755
 Alpha virt. eigenvalues --   -0.12057  -0.10790  -0.07084  -0.06151  -0.05680
 Alpha virt. eigenvalues --   -0.04733  -0.04569  -0.04390  -0.04344  -0.03340
 Alpha virt. eigenvalues --   -0.02918  -0.02463  -0.02330  -0.01960  -0.01662

 Mulliken charges:
               1
     1  N   -0.753136
     2  H    0.415942
     3  H    0.412558
     4  H    0.431580
     5  C   -0.121837
     6  H    0.213150
     7  C    0.646482
     8  C   -0.284814
     9  H    0.171925
    10  H    0.161761
    11  O   -0.543259
    12  C   -0.112347
    13  H    0.169671
    14  C   -0.456493
    15  H    0.152393
    16  H    0.133129
    17  H    0.192145
    18  C   -0.451547
    19  H    0.152362
    20  H    0.155271
    21  H    0.178016
    22  N   -0.599456
    23  H    0.385501
    24  C   -0.073558
    25  H    0.185104
    26  C    0.631697
    27  C   -0.077098
    28  H    0.149409
    29  O   -0.559627
    30  C   -0.475128
    31  H    0.154173
    32  H    0.174043
    33  H    0.168509
    34  C   -0.445667
    35  H    0.161997
    36  H    0.167239
    37  H    0.130096
    38  N   -0.601759
    39  H    0.365231
    40  C   -0.073641
    41  H    0.180397
    42  C    0.646736
    43  C   -0.066163
    44  H    0.149591
    45  O   -0.553826
    46  C   -0.499445
    47  H    0.137853
    48  H    0.211248
    49  H    0.152515
    50  C   -0.451842
    51  H    0.155475
    52  H    0.132835
    53  H    0.152849
    54  N   -0.602752
    55  H    0.373117
    56  C   -0.075095
    57  H    0.176369
    58  C    0.657991
    59  C   -0.038758
    60  H    0.146388
    61  H    0.146180
    62  O   -0.547870
    63  O   -0.674754
    64  H    0.456747
    65  N   -0.598296
    66  H    0.351330
    67  C   -0.081434
    68  H    0.180926
    69  C    0.618435
    70  C    0.116357
    71  H    0.140857
    72  O   -0.555588
    73  C   -0.450641
    74  H    0.146732
    75  H    0.158915
    76  H    0.171082
    77  O   -0.651353
    78  H    0.421951
    79  N   -0.604506
    80  H    0.377232
    81  C   -0.065116
    82  H    0.172103
    83  C    0.643211
    84  C   -0.327646
    85  H    0.173426
    86  H    0.186398
    87  O   -0.534432
    88  C   -0.377454
    89  H    0.187398
    90  H    0.172709
    91  C    0.594183
    92  N   -0.771393
    93  H    0.419684
    94  H    0.340154
    95  O   -0.566821
    96  N   -0.625254
    97  H    0.373877
    98  C   -0.033673
    99  H    0.139402
   100  C    0.676286
   101  C    0.107952
   102  H    0.166199
   103  O   -0.564911
   104  C   -0.513317
   105  H    0.217772
   106  H    0.127039
   107  H    0.172896
   108  O   -0.617988
   109  H    0.395734
   110  N   -0.581923
   111  H    0.340470
   112  C   -0.030425
   113  H    0.168976
   114  C    0.643001
   115  C   -0.487755
   116  H    0.175193
   117  H    0.170249
   118  H    0.175507
   119  O   -0.543432
   120  N   -0.586787
   121  H    0.350475
   122  C   -0.077234
   123  H    0.180087
   124  C    0.629824
   125  C   -0.252159
   126  H    0.145496
   127  H    0.136552
   128  O   -0.543962
   129  C   -0.091985
   130  H    0.165676
   131  C   -0.459512
   132  H    0.145419
   133  H    0.143676
   134  H    0.135402
   135  C   -0.469345
   136  H    0.131997
   137  H    0.138203
   138  H    0.181939
   139  N   -0.619044
   140  H    0.355857
   141  C   -0.021429
   142  H    0.198413
   143  C    0.581320
   144  C   -0.452334
   145  H    0.173036
   146  H    0.191684
   147  H    0.157564
   148  O   -0.467542
   149  O   -0.559917
   150  H    0.422546
 Sum of Mulliken charges =   1.00000

 Dipole moment (field-independent basis, Debye):
    X=            -26.7937    Y=              0.8103    Z=            -20.6664  Tot=             33.8476
 Quadrupole moment (field-independent basis, Debye-Ang):
   XX=             -6.6405   YY=           -371.4050   ZZ=           -150.3586
   XY=             54.0404   XZ=            311.9437   YZ=             29.8976

 Normal termination of Gaussian 16 at Sun Jul 24 19:04:20 2022.
