 Gaussian 16, Revision C.01,
 Gaussian 16:  ES64L-G16RevC.01  3-Jul-2019

 ----------------------------------------------------------------------
 # B3LYP/6-31G* empiricaldispersion=gd3bj guess=read geom=check nosymm
 integral(ultrafinegrid)
 ----------------------------------------------------------------------

 ------------------------------------------------------
 Candidate Structure: Conf:304 Charge calc in gas phase
 ------------------------------------------------------
 Structure from the checkpoint file:  "conf-304.chk"
 Charge =  1 Multiplicity = 1

                          Input orientation:
 ---------------------------------------------------------------------
 Center     Atomic      Atomic             Coordinates (Angstroms)
 Number     Number       Type             X           Y           Z
 ---------------------------------------------------------------------
      1          7           0       -9.999300   -5.189229   -8.985793
      2          1           0      -10.543037   -4.944491   -9.816980
      3          1           0      -10.446014   -5.988577   -8.528475
      4          1           0       -8.993089   -5.410827   -9.273457
      5          6           0       -9.782057   -4.024215   -8.043555
      6          1           0      -10.429912   -3.205139   -8.359244
      7          6           0       -8.287401   -3.683919   -8.272303
      8          6           0      -10.055016   -4.433637   -6.591735
      9          1           0       -9.777848   -3.582589   -5.958139
     10          1           0       -9.362235   -5.243942   -6.325775
     11          8           0       -7.613199   -4.484283   -8.940649
     12          6           0      -11.505834   -4.845209   -6.276249
     13          1           0      -11.772782   -5.721673   -6.892866
     14          6           0      -11.596246   -5.283061   -4.808365
     15          1           0      -11.359631   -4.446209   -4.141030
     16          1           0      -10.899366   -6.098787   -4.587476
     17          1           0      -12.606843   -5.627028   -4.569285
     18          6           0      -12.507029   -3.724345   -6.581327
     19          1           0      -12.263556   -2.821024   -6.009340
     20          1           0      -12.534306   -3.452898   -7.643806
     21          1           0      -13.519916   -4.029752   -6.302938
     22          7           0       -7.858634   -2.569579   -7.702134
     23          1           0       -8.454037   -2.041223   -7.060876
     24          6           0       -6.455255   -2.183068   -7.537610
     25          1           0       -5.831382   -3.065237   -7.709365
     26          6           0       -6.391158   -1.718744   -6.070062
     27          6           0       -6.056912   -1.055993   -8.527017
     28          1           0       -6.734106   -0.213677   -8.328737
     29          8           0       -7.408233   -1.250275   -5.545243
     30          6           0       -4.612383   -0.583666   -8.306626
     31          1           0       -3.904509   -1.419696   -8.371664
     32          1           0       -4.459588   -0.086802   -7.345869
     33          1           0       -4.338871    0.131134   -9.088844
     34          6           0       -6.260711   -1.523150   -9.973326
     35          1           0       -5.621703   -2.383742  -10.201721
     36          1           0       -6.003110   -0.717292  -10.667594
     37          1           0       -7.298059   -1.811903  -10.168750
     38          7           0       -5.209895   -1.867070   -5.457371
     39          1           0       -4.388857   -2.147015   -5.988467
     40          6           0       -4.867797   -1.217785   -4.194022
     41          1           0       -5.648818   -0.483043   -3.976669
     42          6           0       -3.518917   -0.541726   -4.475875
     43          6           0       -4.770353   -2.228712   -3.025323
     44          1           0       -3.982022   -2.945130   -3.294078
     45          8           0       -2.702275   -1.097568   -5.210677
     46          6           0       -4.374383   -1.532026   -1.716793
     47          1           0       -5.094621   -0.742816   -1.460860
     48          1           0       -3.376209   -1.087752   -1.746047
     49          1           0       -4.378992   -2.251729   -0.892314
     50          6           0       -6.093475   -2.986222   -2.867077
     51          1           0       -6.911898   -2.297139   -2.628138
     52          1           0       -6.361851   -3.523106   -3.782266
     53          1           0       -6.015477   -3.716692   -2.055108
     54          7           0       -3.326850    0.658215   -3.893409
     55          1           0       -3.991760    1.011574   -3.216218
     56          6           0       -2.072710    1.387004   -3.986160
     57          1           0       -1.367182    0.738633   -4.509637
     58          6           0       -1.644048    1.685239   -2.549598
     59          6           0       -2.249190    2.688057   -4.771733
     60          1           0       -1.282033    3.214220   -4.798917
     61          1           0       -2.968077    3.326663   -4.238157
     62          8           0       -2.454930    2.210657   -1.774295
     63          8           0       -2.701689    2.342783   -6.070441
     64          1           0       -2.836922    3.164712   -6.565176
     65          7           0       -0.396339    1.333222   -2.209048
     66          1           0        0.226586    0.856253   -2.852993
     67          6           0        0.123680    1.486398   -0.862341
     68          1           0       -0.226172    2.445655   -0.465244
     69          6           0        1.649388    1.459289   -0.990029
     70          6           0       -0.369928    0.340357    0.079246
     71          1           0        0.155668   -0.576986   -0.212227
     72          8           0        2.178902    0.826464   -1.908425
     73          6           0       -0.097166    0.647946    1.551444
     74          1           0        0.970123    0.720431    1.780151
     75          1           0       -0.578045    1.590200    1.843856
     76          1           0       -0.524665   -0.150616    2.163448
     77          8           0       -1.746762    0.067526   -0.136387
     78          1           0       -2.210328    0.916244   -0.263006
     79          7           0        2.332173    2.128047   -0.044340
     80          1           0        1.854435    2.521346    0.763506
     81          6           0        3.756231    1.927208    0.172208
     82          1           0        3.975900    0.862329    0.039298
     83          6           0        4.003159    2.235894    1.657722
     84          6           0        4.652560    2.741140   -0.801489
     85          1           0        5.438323    3.258529   -0.244059
     86          1           0        4.029791    3.510019   -1.267477
     87          8           0        3.067201    2.566072    2.404723
     88          6           0        5.287832    1.876301   -1.892377
     89          1           0        5.759411    2.510478   -2.653496
     90          1           0        4.505688    1.292979   -2.393637
     91          6           0        6.332535    0.916545   -1.333890
     92          7           0        7.049329    0.224043   -2.251962
     93          1           0        6.891830    0.317974   -3.243723
     94          1           0        7.735345   -0.443334   -1.926119
     95          8           0        6.519720    0.757682   -0.125779
     96          7           0        5.273132    2.096566    2.052167
     97          1           0        5.958797    1.725618    1.387849
     98          6           0        5.670315    2.199049    3.439811
     99          1           0        5.056583    2.971590    3.918498
    100          6           0        7.144152    2.606052    3.455837
    101          6           0        5.421066    0.848073    4.178910
    102          1           0        6.066174    0.096311    3.711072
    103          8           0        7.867552    2.416441    2.476713
    104          6           0        5.719189    0.897356    5.678839
    105          1           0        6.789415    0.972628    5.896746
    106          1           0        5.192093    1.731740    6.162193
    107          1           0        5.349195   -0.026870    6.130275
    108          8           0        4.090773    0.410852    3.945209
    109          1           0        3.512317    1.190048    3.860265
    110          7           0        7.601973    3.157875    4.605737
    111          1           0        6.994638    3.175715    5.414153
    112          6           0        9.039296    3.323040    4.845380
    113          1           0        9.461554    3.750127    3.931997
    114          6           0        9.659090    1.931440    5.097144
    115          6           0        9.272747    4.249463    6.030062
    116          1           0       10.343662    4.426134    6.162343
    117          1           0        8.776795    5.210792    5.866859
    118          1           0        8.899719    3.790615    6.950265
    119          8           0        9.723290    1.457884    6.237271
    120          7           0       10.084184    1.288896    3.989855
    121          1           0        9.827845    1.695561    3.096506
    122          6           0       10.566278   -0.097763    3.999472
    123          1           0        9.997803   -0.628283    4.772322
    124          6           0       12.054477   -0.156202    4.417612
    125          6           0       10.363029   -0.748865    2.632365
    126          1           0       10.939965   -0.181462    1.890981
    127          1           0       10.836279   -1.735955    2.672627
    128          8           0       12.931721   -0.608813    3.691621
    129          6           0        8.903736   -0.892244    2.167559
    130          1           0        8.448526    0.102162    2.088967
    131          6           0        8.870135   -1.514759    0.765765
    132          1           0        9.288854   -2.529227    0.773910
    133          1           0        9.458185   -0.915385    0.059196
    134          1           0        7.840866   -1.564920    0.396875
    135          6           0        8.067182   -1.728334    3.143982
    136          1           0        8.504105   -2.726087    3.280543
    137          1           0        7.046727   -1.861058    2.766841
    138          1           0        7.995714   -1.261190    4.132889
    139          7           0       12.301397    0.328464    5.662176
    140          1           0       11.511456    0.594301    6.245257
    141          6           0       13.633241    0.261923    6.222292
    142          1           0       14.343840    0.677458    5.502005
    143          6           0       14.119478   -1.166277    6.472902
    144          6           0       13.697834    1.054762    7.532456
    145          1           0       14.709242    1.013226    7.943599
    146          1           0       13.430350    2.100288    7.351577
    147          1           0       13.003764    0.640646    8.272391
    148          8           0       15.286948   -1.464908    6.575907
    149          8           0       13.110852   -2.051998    6.640829
    150          1           0       13.542416   -2.910596    6.809595
 ---------------------------------------------------------------------

 SCF Done:  E(RB3LYP) =  -3455.80124985     A.U. after    1 cycles

 Alpha  occ. eigenvalues --  -19.26749 -19.21705 -19.21370 -19.21264 -19.18818
 Alpha  occ. eigenvalues --  -19.18790 -19.18658 -19.18251 -19.17996 -19.17733
 Alpha  occ. eigenvalues --  -19.17717 -19.17549 -19.16465 -19.15621 -19.13779
 Alpha  occ. eigenvalues --  -14.59779 -14.49048 -14.44814 -14.43457 -14.43085
 Alpha  occ. eigenvalues --  -14.42380 -14.41796 -14.41505 -14.40489 -14.40421
 Alpha  occ. eigenvalues --  -14.37530 -10.43295 -10.40462 -10.38222 -10.35974
 Alpha  occ. eigenvalues --  -10.35893 -10.35206 -10.35047 -10.34960 -10.34487
 Alpha  occ. eigenvalues --  -10.33749 -10.33684 -10.33385 -10.33230 -10.32254
 Alpha  occ. eigenvalues --  -10.30687 -10.30645 -10.30410 -10.30113 -10.29577
 Alpha  occ. eigenvalues --  -10.29531 -10.29105 -10.28920 -10.28789 -10.28779
 Alpha  occ. eigenvalues --  -10.28700 -10.28619 -10.28169 -10.26366 -10.26308
 Alpha  occ. eigenvalues --  -10.26198 -10.25928 -10.25231 -10.24854 -10.24702
 Alpha  occ. eigenvalues --  -10.23991 -10.23156 -10.23051 -10.22310 -10.22079
 Alpha  occ. eigenvalues --  -10.21696 -10.21528 -10.21174 -10.20381 -10.20220
 Alpha  occ. eigenvalues --   -1.19193  -1.13823  -1.13166  -1.12502  -1.11374
 Alpha  occ. eigenvalues --   -1.10694  -1.10349  -1.09953  -1.09314  -1.09145
 Alpha  occ. eigenvalues --   -1.08693  -1.08072  -1.06427  -1.05949  -1.05630
 Alpha  occ. eigenvalues --   -1.05344  -1.03357  -1.01550  -0.99869  -0.99387
 Alpha  occ. eigenvalues --   -0.98760  -0.98636  -0.97782  -0.96834  -0.96243
 Alpha  occ. eigenvalues --   -0.95240  -0.94649  -0.90988  -0.88577  -0.87578
 Alpha  occ. eigenvalues --   -0.86147  -0.84649  -0.84332  -0.83505  -0.82469
 Alpha  occ. eigenvalues --   -0.82211  -0.81227  -0.80447  -0.80338  -0.79288
 Alpha  occ. eigenvalues --   -0.78638  -0.77885  -0.77507  -0.76684  -0.76539
 Alpha  occ. eigenvalues --   -0.75013  -0.74610  -0.73921  -0.72928  -0.71698
 Alpha  occ. eigenvalues --   -0.71329  -0.70953  -0.70508  -0.70061  -0.69824
 Alpha  occ. eigenvalues --   -0.69375  -0.68042  -0.67772  -0.67236  -0.66972
 Alpha  occ. eigenvalues --   -0.66404  -0.66040  -0.65830  -0.65701  -0.65250
 Alpha  occ. eigenvalues --   -0.64653  -0.64117  -0.63567  -0.63259  -0.63168
 Alpha  occ. eigenvalues --   -0.62991  -0.62458  -0.62155  -0.60709  -0.60290
 Alpha  occ. eigenvalues --   -0.59577  -0.59437  -0.59323  -0.58878  -0.58523
 Alpha  occ. eigenvalues --   -0.57600  -0.57444  -0.56755  -0.56316  -0.56066
 Alpha  occ. eigenvalues --   -0.55861  -0.55507  -0.55327  -0.55186  -0.55016
 Alpha  occ. eigenvalues --   -0.54866  -0.54519  -0.54044  -0.53998  -0.53462
 Alpha  occ. eigenvalues --   -0.53248  -0.53018  -0.52681  -0.52538  -0.52257
 Alpha  occ. eigenvalues --   -0.51973  -0.51787  -0.51534  -0.51478  -0.51346
 Alpha  occ. eigenvalues --   -0.50903  -0.50457  -0.50085  -0.50010  -0.49718
 Alpha  occ. eigenvalues --   -0.49711  -0.49410  -0.49122  -0.48718  -0.48630
 Alpha  occ. eigenvalues --   -0.48430  -0.48353  -0.47830  -0.47755  -0.47543
 Alpha  occ. eigenvalues --   -0.47230  -0.47152  -0.47132  -0.46882  -0.46808
 Alpha  occ. eigenvalues --   -0.46635  -0.46429  -0.46253  -0.45992  -0.45878
 Alpha  occ. eigenvalues --   -0.45711  -0.45627  -0.45510  -0.45310  -0.45176
 Alpha  occ. eigenvalues --   -0.45061  -0.45030  -0.44903  -0.44610  -0.44539
 Alpha  occ. eigenvalues --   -0.44271  -0.44068  -0.43676  -0.43592  -0.43428
 Alpha  occ. eigenvalues --   -0.43217  -0.43192  -0.43106  -0.42568  -0.42369
 Alpha  occ. eigenvalues --   -0.42263  -0.42111  -0.42089  -0.41826  -0.41745
 Alpha  occ. eigenvalues --   -0.41640  -0.41513  -0.41202  -0.41185  -0.41002
 Alpha  occ. eigenvalues --   -0.40929  -0.40893  -0.40627  -0.40505  -0.40449
 Alpha  occ. eigenvalues --   -0.40135  -0.39938  -0.39771  -0.39759  -0.39104
 Alpha  occ. eigenvalues --   -0.38540  -0.38451  -0.38191  -0.37435  -0.35497
 Alpha  occ. eigenvalues --   -0.35447  -0.35397  -0.35194  -0.34746  -0.34174
 Alpha  occ. eigenvalues --   -0.33983  -0.33536  -0.33318  -0.33069  -0.32811
 Alpha  occ. eigenvalues --   -0.32652  -0.32420  -0.32241  -0.31932  -0.31660
 Alpha  occ. eigenvalues --   -0.31546  -0.31305  -0.31161  -0.30787  -0.30725
 Alpha  occ. eigenvalues --   -0.30669  -0.29872  -0.29148  -0.27002  -0.26581
 Alpha virt. eigenvalues --   -0.11842  -0.11365  -0.07309  -0.06715  -0.05882
 Alpha virt. eigenvalues --   -0.04651  -0.04577  -0.03926  -0.03761  -0.03372
 Alpha virt. eigenvalues --   -0.03031  -0.02666  -0.02170  -0.01146  -0.00988

 Mulliken charges:
               1
     1  N   -0.758769
     2  H    0.415027
     3  H    0.411842
     4  H    0.433966
     5  C   -0.119193
     6  H    0.216647
     7  C    0.652954
     8  C   -0.300182
     9  H    0.200208
    10  H    0.173539
    11  O   -0.544084
    12  C   -0.098758
    13  H    0.112995
    14  C   -0.447878
    15  H    0.168628
    16  H    0.159410
    17  H    0.174469
    18  C   -0.454524
    19  H    0.170339
    20  H    0.130270
    21  H    0.183891
    22  N   -0.591780
    23  H    0.370691
    24  C   -0.080290
    25  H    0.184587
    26  C    0.629460
    27  C   -0.072612
    28  H    0.145699
    29  O   -0.557282
    30  C   -0.477464
    31  H    0.154674
    32  H    0.186271
    33  H    0.164481
    34  C   -0.444945
    35  H    0.161779
    36  H    0.165483
    37  H    0.131364
    38  N   -0.600285
    39  H    0.363851
    40  C   -0.064057
    41  H    0.172976
    42  C    0.638440
    43  C   -0.071413
    44  H    0.145706
    45  O   -0.545755
    46  C   -0.480311
    47  H    0.136436
    48  H    0.188071
    49  H    0.162830
    50  C   -0.443856
    51  H    0.153012
    52  H    0.132793
    53  H    0.154694
    54  N   -0.586560
    55  H    0.350866
    56  C   -0.077962
    57  H    0.195903
    58  C    0.643068
    59  C   -0.024190
    60  H    0.139844
    61  H    0.147141
    62  O   -0.576040
    63  O   -0.614725
    64  H    0.402704
    65  N   -0.597669
    66  H    0.360070
    67  C   -0.100229
    68  H    0.173985
    69  C    0.614416
    70  C    0.166217
    71  H    0.148306
    72  O   -0.546187
    73  C   -0.477822
    74  H    0.163569
    75  H    0.145020
    76  H    0.173713
    77  O   -0.640684
    78  H    0.414845
    79  N   -0.619716
    80  H    0.365706
    81  C   -0.033138
    82  H    0.202291
    83  C    0.606887
    84  C   -0.278426
    85  H    0.175153
    86  H    0.160571
    87  O   -0.583330
    88  C   -0.394253
    89  H    0.163549
    90  H    0.214756
    91  C    0.620111
    92  N   -0.748802
    93  H    0.346874
    94  H    0.361948
    95  O   -0.524605
    96  N   -0.614540
    97  H    0.427755
    98  C   -0.132307
    99  H    0.172217
   100  C    0.634144
   101  C    0.172110
   102  H    0.158813
   103  O   -0.534412
   104  C   -0.496203
   105  H    0.164523
   106  H    0.134509
   107  H    0.181220
   108  O   -0.644556
   109  H    0.413762
   110  N   -0.594543
   111  H    0.344058
   112  C   -0.049944
   113  H    0.177805
   114  C    0.632690
   115  C   -0.471703
   116  H    0.173049
   117  H    0.160092
   118  H    0.177851
   119  O   -0.562727
   120  N   -0.596773
   121  H    0.368299
   122  C   -0.081063
   123  H    0.180462
   124  C    0.639838
   125  C   -0.283659
   126  H    0.148819
   127  H    0.162751
   128  O   -0.526224
   129  C   -0.100660
   130  H    0.163008
   131  C   -0.448516
   132  H    0.137906
   133  H    0.130442
   134  H    0.149138
   135  C   -0.460944
   136  H    0.142678
   137  H    0.153205
   138  H    0.144452
   139  N   -0.633238
   140  H    0.373870
   141  C   -0.009757
   142  H    0.191447
   143  C    0.600475
   144  C   -0.483272
   145  H    0.183223
   146  H    0.163310
   147  H    0.163626
   148  O   -0.467970
   149  O   -0.566502
   150  H    0.410747
 Sum of Mulliken charges =   1.00000

 Dipole moment (field-independent basis, Debye):
    X=            -37.8996    Y=            -10.4006    Z=            -34.0794  Tot=             52.0188
 Quadrupole moment (field-independent basis, Debye-Ang):
   XX=            -64.3175   YY=           -298.9574   ZZ=           -109.2496
   XY=            222.5338   XZ=            312.9635   YZ=            144.8029

 Normal termination of Gaussian 16 at Sun Jul 24 19:01:00 2022.
