 Gaussian 16, Revision C.01,
 Gaussian 16:  ES64L-G16RevC.01  3-Jul-2019

 ----------------------------------------------------------------------
 # B3LYP/6-31G* empiricaldispersion=gd3bj guess=read geom=check nosymm
 integral(ultrafinegrid)
 ----------------------------------------------------------------------

 ------------------------------------------------------
 Candidate Structure: Conf:705 Charge calc in gas phase
 ------------------------------------------------------
 Structure from the checkpoint file:  "conf-705.chk"
 Charge =  1 Multiplicity = 1

                          Input orientation:
 ---------------------------------------------------------------------
 Center     Atomic      Atomic             Coordinates (Angstroms)
 Number     Number       Type             X           Y           Z
 ---------------------------------------------------------------------
      1          7           0       -7.223507   -7.304073   -7.197639
      2          1           0       -6.775593   -7.688711   -8.033233
      3          1           0       -8.237511   -7.317680   -7.337563
      4          1           0       -6.936534   -7.882070   -6.346939
      5          6           0       -6.705805   -5.933371   -6.814660
      6          1           0       -6.094144   -5.559871   -7.637314
      7          6           0       -5.840529   -6.238675   -5.565719
      8          6           0       -7.862364   -4.979710   -6.494301
      9          1           0       -7.419010   -4.043814   -6.133629
     10          1           0       -8.426436   -5.392325   -5.646543
     11          8           0       -5.918411   -7.376765   -5.077228
     12          6           0       -8.811705   -4.666577   -7.667077
     13          1           0       -9.282933   -5.605377   -8.007806
     14          6           0       -9.939648   -3.752131   -7.171005
     15          1           0       -9.536765   -2.789213   -6.836079
     16          1           0      -10.483686   -4.201229   -6.333065
     17          1           0      -10.656938   -3.554237   -7.972851
     18          6           0       -8.076796   -4.041211   -8.858984
     19          1           0       -7.568752   -3.116684   -8.559593
     20          1           0       -7.326899   -4.710314   -9.298586
     21          1           0       -8.784053   -3.787611   -9.654011
     22          7           0       -5.100916   -5.236120   -5.116102
     23          1           0       -5.198525   -4.293351   -5.495998
     24          6           0       -4.382485   -5.224844   -3.840476
     25          1           0       -4.808480   -6.004886   -3.201744
     26          6           0       -4.676748   -3.819403   -3.282387
     27          6           0       -2.862950   -5.483726   -4.032750
     28          1           0       -2.475703   -4.656012   -4.642155
     29          8           0       -4.957880   -2.902561   -4.058133
     30          6           0       -2.120537   -5.483431   -2.689153
     31          1           0       -2.555441   -6.218194   -1.997532
     32          1           0       -2.121009   -4.496578   -2.221548
     33          1           0       -1.076794   -5.772349   -2.845464
     34          6           0       -2.632428   -6.801782   -4.781595
     35          1           0       -3.046278   -7.649964   -4.224913
     36          1           0       -1.559306   -6.972346   -4.910961
     37          1           0       -3.088290   -6.794131   -5.776430
     38          7           0       -4.633820   -3.670789   -1.944860
     39          1           0       -4.243079   -4.421046   -1.390145
     40          6           0       -4.664695   -2.346536   -1.335998
     41          1           0       -5.558116   -1.829875   -1.702713
     42          6           0       -3.417475   -1.562579   -1.772409
     43          6           0       -4.751898   -2.496722    0.205602
     44          1           0       -3.895443   -3.106218    0.522601
     45          8           0       -2.333789   -2.140076   -1.962341
     46          6           0       -4.636841   -1.151978    0.932138
     47          1           0       -5.395258   -0.437374    0.587297
     48          1           0       -3.650868   -0.700515    0.810940
     49          1           0       -4.795104   -1.304162    2.003856
     50          6           0       -6.056483   -3.208103    0.589953
     51          1           0       -6.925504   -2.595594    0.320051
     52          1           0       -6.166165   -4.178761    0.095691
     53          1           0       -6.088593   -3.376717    1.670693
     54          7           0       -3.577468   -0.235700   -1.883263
     55          1           0       -4.457688    0.196360   -1.616644
     56          6           0       -2.477818    0.727174   -1.997484
     57          1           0       -1.781208    0.404803   -2.773926
     58          6           0       -1.763367    0.776017   -0.638167
     59          6           0       -3.094710    2.086474   -2.336418
     60          1           0       -3.532479    2.051887   -3.337720
     61          1           0       -2.303384    2.841858   -2.321176
     62          8           0       -2.021972    1.640447    0.216984
     63          8           0       -4.151948    2.380023   -1.433186
     64          1           0       -3.713846    2.467580   -0.564066
     65          7           0       -0.935217   -0.255104   -0.406396
     66          1           0       -0.792446   -0.913795   -1.162478
     67          6           0       -0.394484   -0.554920    0.915099
     68          1           0       -1.103119   -0.149358    1.644113
     69          6           0        0.938170    0.197802    1.029951
     70          6           0       -0.277897   -2.077790    1.124511
     71          1           0        0.559943   -2.444687    0.515284
     72          8           0        2.036304   -0.356985    0.882382
     73          6           0       -0.039629   -2.409480    2.589978
     74          1           0        0.847625   -1.915232    2.992040
     75          1           0       -0.911300   -2.101587    3.178448
     76          1           0        0.083129   -3.489574    2.706145
     77          8           0       -1.492366   -2.724284    0.746116
     78          1           0       -1.611536   -2.658230   -0.218594
     79          7           0        0.785958    1.526100    1.211656
     80          1           0       -0.167590    1.879514    1.235412
     81          6           0        1.891167    2.475600    1.060047
     82          1           0        2.544015    2.077628    0.275201
     83          6           0        2.684595    2.519098    2.382063
     84          6           0        1.385034    3.861482    0.663111
     85          1           0        2.266881    4.482052    0.466339
     86          1           0        0.891966    4.320829    1.525177
     87          8           0        2.532061    3.411505    3.217395
     88          6           0        0.424737    3.869607   -0.543231
     89          1           0        0.288577    4.907471   -0.873225
     90          1           0       -0.560269    3.492972   -0.263247
     91          6           0        0.876838    3.033345   -1.735101
     92          7           0        2.124276    3.306201   -2.209082
     93          1           0        2.661400    4.096296   -1.883832
     94          1           0        2.438970    2.823948   -3.039790
     95          8           0        0.175818    2.156101   -2.235993
     96          7           0        3.512827    1.462641    2.533189
     97          1           0        3.440837    0.748120    1.814927
     98          6           0        4.043336    1.063615    3.837943
     99          1           0        3.305992    1.358831    4.594241
    100          6           0        5.356438    1.818461    4.110956
    101          6           0        4.217643   -0.468015    3.889323
    102          1           0        5.027909   -0.743639    3.200621
    103          8           0        6.458430    1.259416    4.089315
    104          6           0        4.567585   -0.938713    5.293529
    105          1           0        5.514132   -0.506320    5.622936
    106          1           0        3.774519   -0.656933    5.995473
    107          1           0        4.654458   -2.028462    5.299551
    108          8           0        3.001721   -1.117472    3.519854
    109          1           0        2.882712   -1.078953    2.555605
    110          7           0        5.188336    3.132222    4.368825
    111          1           0        4.246145    3.512122    4.287153
    112          6           0        6.312320    4.053514    4.555002
    113          1           0        7.121470    3.705468    3.902011
    114          6           0        6.816513    3.975204    6.013372
    115          6           0        5.894130    5.469581    4.185466
    116          1           0        6.741231    6.151279    4.290138
    117          1           0        5.535454    5.500649    3.151893
    118          1           0        5.104680    5.824602    4.853814
    119          8           0        6.702614    4.921364    6.797381
    120          7           0        7.366008    2.786342    6.341423
    121          1           0        7.393367    2.062117    5.625378
    122          6           0        7.693246    2.429904    7.722200
    123          1           0        6.985519    2.974440    8.355626
    124          6           0        9.102811    2.929633    8.092765
    125          6           0        7.522035    0.925601    7.923763
    126          1           0        6.500935    0.672364    7.603876
    127          1           0        8.213021    0.396191    7.255950
    128          8           0       10.048339    2.184381    8.325222
    129          6           0        7.738781    0.423611    9.363973
    130          1           0        8.807833    0.512325    9.579850
    131          6           0        6.974665    1.255902   10.402356
    132          1           0        5.905768    1.319135   10.155492
    133          1           0        7.372512    2.272990   10.484049
    134          1           0        7.057495    0.797661   11.394393
    135          6           0        7.346271   -1.056247    9.446860
    136          1           0        6.271839   -1.189298    9.261327
    137          1           0        7.566112   -1.466501   10.438928
    138          1           0        7.890043   -1.655822    8.706961
    139          7           0        9.197999    4.286521    8.144731
    140          1           0        8.348194    4.827122    8.000582
    141          6           0       10.357504    4.906715    8.735831
    142          1           0       11.256182    4.440419    8.321335
    143          6           0       10.379994    4.643219   10.245376
    144          6           0       10.372381    6.413038    8.453402
    145          1           0       11.260313    6.874553    8.891608
    146          1           0       10.377125    6.587074    7.373492
    147          1           0        9.484972    6.896108    8.877963
    148          8           0        9.454727    4.239912   10.910797
    149          8           0       11.588289    4.955211   10.770630
    150          1           0       11.524851    4.775797   11.727484
 ---------------------------------------------------------------------

 SCF Done:  E(RB3LYP) =  -3455.82102254     A.U. after    1 cycles

 Alpha  occ. eigenvalues --  -19.27623 -19.22990 -19.21714 -19.21615 -19.21122
 Alpha  occ. eigenvalues --  -19.20857 -19.20541 -19.20227 -19.18879 -19.18301
 Alpha  occ. eigenvalues --  -19.18251 -19.16413 -19.15896 -19.14838 -19.12892
 Alpha  occ. eigenvalues --  -14.60577 -14.50075 -14.46808 -14.45491 -14.44301
 Alpha  occ. eigenvalues --  -14.43721 -14.43121 -14.41632 -14.40060 -14.38244
 Alpha  occ. eigenvalues --  -14.36539 -10.44220 -10.41291 -10.39804 -10.38415
 Alpha  occ. eigenvalues --  -10.37376 -10.36821 -10.36391 -10.34939 -10.34925
 Alpha  occ. eigenvalues --  -10.34197 -10.33658 -10.33240 -10.32966 -10.32819
 Alpha  occ. eigenvalues --  -10.31521 -10.31260 -10.30494 -10.30483 -10.30468
 Alpha  occ. eigenvalues --  -10.30260 -10.29778 -10.29770 -10.29675 -10.28837
 Alpha  occ. eigenvalues --  -10.28302 -10.28253 -10.27808 -10.27124 -10.26811
 Alpha  occ. eigenvalues --  -10.26669 -10.26388 -10.26228 -10.25743 -10.25674
 Alpha  occ. eigenvalues --  -10.25177 -10.24807 -10.22599 -10.21744 -10.21248
 Alpha  occ. eigenvalues --  -10.20777 -10.20173 -10.19612 -10.18543 -10.18084
 Alpha  occ. eigenvalues --   -1.20077  -1.15259  -1.14438  -1.13485  -1.12445
 Alpha  occ. eigenvalues --   -1.12416  -1.11617  -1.10433  -1.09894  -1.08636
 Alpha  occ. eigenvalues --   -1.08136  -1.08050  -1.06984  -1.06415  -1.05835
 Alpha  occ. eigenvalues --   -1.04748  -1.03445  -1.03361  -1.01956  -1.01029
 Alpha  occ. eigenvalues --   -1.00131  -0.98268  -0.97752  -0.96697  -0.96031
 Alpha  occ. eigenvalues --   -0.95011  -0.93756  -0.92027  -0.89747  -0.89031
 Alpha  occ. eigenvalues --   -0.87494  -0.85661  -0.83680  -0.83456  -0.83212
 Alpha  occ. eigenvalues --   -0.82497  -0.81144  -0.80631  -0.80105  -0.79902
 Alpha  occ. eigenvalues --   -0.79775  -0.79001  -0.77588  -0.77185  -0.76528
 Alpha  occ. eigenvalues --   -0.75988  -0.74818  -0.74727  -0.73794  -0.72766
 Alpha  occ. eigenvalues --   -0.71837  -0.70827  -0.70128  -0.69956  -0.69478
 Alpha  occ. eigenvalues --   -0.69247  -0.69111  -0.68424  -0.68225  -0.68075
 Alpha  occ. eigenvalues --   -0.67480  -0.67107  -0.66416  -0.65720  -0.65424
 Alpha  occ. eigenvalues --   -0.65121  -0.64560  -0.63953  -0.63340  -0.62774
 Alpha  occ. eigenvalues --   -0.62543  -0.62042  -0.61373  -0.60838  -0.60808
 Alpha  occ. eigenvalues --   -0.60414  -0.60098  -0.59431  -0.59347  -0.59230
 Alpha  occ. eigenvalues --   -0.59162  -0.58585  -0.58266  -0.57482  -0.57213
 Alpha  occ. eigenvalues --   -0.56982  -0.56789  -0.56697  -0.56285  -0.55893
 Alpha  occ. eigenvalues --   -0.55582  -0.55532  -0.54688  -0.54186  -0.54063
 Alpha  occ. eigenvalues --   -0.53937  -0.53471  -0.53213  -0.52882  -0.52761
 Alpha  occ. eigenvalues --   -0.52543  -0.52349  -0.52313  -0.51579  -0.51338
 Alpha  occ. eigenvalues --   -0.51292  -0.50915  -0.50733  -0.50549  -0.50400
 Alpha  occ. eigenvalues --   -0.50330  -0.50179  -0.49861  -0.49609  -0.49366
 Alpha  occ. eigenvalues --   -0.49308  -0.48996  -0.48794  -0.48572  -0.48535
 Alpha  occ. eigenvalues --   -0.48340  -0.47670  -0.47498  -0.47404  -0.47258
 Alpha  occ. eigenvalues --   -0.47191  -0.46894  -0.46707  -0.46357  -0.46354
 Alpha  occ. eigenvalues --   -0.46148  -0.46081  -0.45866  -0.45750  -0.45730
 Alpha  occ. eigenvalues --   -0.45480  -0.45276  -0.45113  -0.44657  -0.44557
 Alpha  occ. eigenvalues --   -0.44248  -0.43866  -0.43601  -0.43340  -0.43311
 Alpha  occ. eigenvalues --   -0.43165  -0.43091  -0.42923  -0.42786  -0.42642
 Alpha  occ. eigenvalues --   -0.42541  -0.42312  -0.42288  -0.42115  -0.42008
 Alpha  occ. eigenvalues --   -0.41925  -0.41865  -0.41690  -0.41449  -0.41314
 Alpha  occ. eigenvalues --   -0.41163  -0.40852  -0.40772  -0.40431  -0.39987
 Alpha  occ. eigenvalues --   -0.39604  -0.39591  -0.39420  -0.39177  -0.38951
 Alpha  occ. eigenvalues --   -0.38252  -0.37683  -0.37393  -0.37229  -0.37164
 Alpha  occ. eigenvalues --   -0.36788  -0.36748  -0.35923  -0.35173  -0.34961
 Alpha  occ. eigenvalues --   -0.34689  -0.34194  -0.34087  -0.33884  -0.33778
 Alpha  occ. eigenvalues --   -0.33581  -0.33411  -0.33172  -0.33019  -0.32425
 Alpha  occ. eigenvalues --   -0.32004  -0.31668  -0.31396  -0.31011  -0.29644
 Alpha  occ. eigenvalues --   -0.29537  -0.28964  -0.27532  -0.26938  -0.25378
 Alpha virt. eigenvalues --   -0.12751  -0.12089  -0.09033  -0.08255  -0.07451
 Alpha virt. eigenvalues --   -0.07048  -0.05517  -0.04848  -0.04753  -0.04242
 Alpha virt. eigenvalues --   -0.03039  -0.02956  -0.02027  -0.01921  -0.01694

 Mulliken charges:
               1
     1  N   -0.758297
     2  H    0.416619
     3  H    0.412975
     4  H    0.434648
     5  C   -0.118981
     6  H    0.218119
     7  C    0.654283
     8  C   -0.299396
     9  H    0.197191
    10  H    0.174088
    11  O   -0.542468
    12  C   -0.099658
    13  H    0.114636
    14  C   -0.448013
    15  H    0.167689
    16  H    0.159864
    17  H    0.176418
    18  C   -0.454774
    19  H    0.169667
    20  H    0.130630
    21  H    0.185813
    22  N   -0.594846
    23  H    0.371824
    24  C   -0.083701
    25  H    0.185199
    26  C    0.646978
    27  C   -0.067994
    28  H    0.153357
    29  O   -0.549415
    30  C   -0.502031
    31  H    0.141785
    32  H    0.196522
    33  H    0.171352
    34  C   -0.445730
    35  H    0.163402
    36  H    0.169429
    37  H    0.129350
    38  N   -0.601552
    39  H    0.350033
    40  C   -0.044315
    41  H    0.171917
    42  C    0.659328
    43  C   -0.125107
    44  H    0.174810
    45  O   -0.580786
    46  C   -0.479562
    47  H    0.144310
    48  H    0.176478
    49  H    0.169923
    50  C   -0.446749
    51  H    0.151548
    52  H    0.139993
    53  H    0.170508
    54  N   -0.587165
    55  H    0.361912
    56  C   -0.076414
    57  H    0.198096
    58  C    0.684826
    59  C   -0.066895
    60  H    0.159252
    61  H    0.175316
    62  O   -0.590712
    63  O   -0.640522
    64  H    0.421088
    65  N   -0.605289
    66  H    0.362597
    67  C   -0.075186
    68  H    0.185476
    69  C    0.665044
    70  C    0.105631
    71  H    0.144556
    72  O   -0.570441
    73  C   -0.479662
    74  H    0.195376
    75  H    0.151215
    76  H    0.165473
    77  O   -0.666578
    78  H    0.423412
    79  N   -0.605948
    80  H    0.376928
    81  C   -0.068336
    82  H    0.181765
    83  C    0.637660
    84  C   -0.306725
    85  H    0.153606
    86  H    0.195205
    87  O   -0.539892
    88  C   -0.401270
    89  H    0.175077
    90  H    0.196873
    91  C    0.598898
    92  N   -0.731639
    93  H    0.348162
    94  H    0.351459
    95  O   -0.529490
    96  N   -0.619293
    97  H    0.358832
    98  C   -0.061119
    99  H    0.177792
   100  C    0.643110
   101  C    0.109394
   102  H    0.145851
   103  O   -0.554978
   104  C   -0.470417
   105  H    0.182255
   106  H    0.150060
   107  H    0.162972
   108  O   -0.660726
   109  H    0.422662
   110  N   -0.615125
   111  H    0.378714
   112  C   -0.058759
   113  H    0.177531
   114  C    0.631775
   115  C   -0.460021
   116  H    0.171482
   117  H    0.142536
   118  H    0.175702
   119  O   -0.548874
   120  N   -0.626197
   121  H    0.379360
   122  C   -0.071812
   123  H    0.180130
   124  C    0.647262
   125  C   -0.282461
   126  H    0.129798
   127  H    0.149745
   128  O   -0.533101
   129  C   -0.075729
   130  H    0.170462
   131  C   -0.466151
   132  H    0.126269
   133  H    0.173792
   134  H    0.141316
   135  C   -0.445646
   136  H    0.129148
   137  H    0.142005
   138  H    0.139278
   139  N   -0.614897
   140  H    0.369827
   141  C   -0.025027
   142  H    0.192129
   143  C    0.598725
   144  C   -0.475123
   145  H    0.176653
   146  H    0.167715
   147  H    0.162479
   148  O   -0.463367
   149  O   -0.569987
   150  H    0.411996
 Sum of Mulliken charges =   1.00000

 Dipole moment (field-independent basis, Debye):
    X=            -32.1222    Y=            -22.0113    Z=            -34.6955  Tot=             52.1547
 Quadrupole moment (field-independent basis, Debye-Ang):
   XX=           -220.7651   YY=           -224.0101   ZZ=           -239.2826
   XY=            211.6029   XZ=            165.7822   YZ=            174.8913

 Normal termination of Gaussian 16 at Sun Jul 24 19:01:09 2022.
