 Gaussian 16, Revision C.01,
 Gaussian 16:  ES64L-G16RevC.01  3-Jul-2019

 ----------------------------------------------------------------------
 # B3LYP/6-31G* empiricaldispersion=gd3bj guess=read geom=check nosymm
 integral(ultrafinegrid)
 ----------------------------------------------------------------------

 ------------------------------------------------------
 Candidate Structure: Conf:817 Charge calc in gas phase
 ------------------------------------------------------
 Structure from the checkpoint file:  "conf-817.chk"
 Charge =  1 Multiplicity = 1

                          Input orientation:
 ---------------------------------------------------------------------
 Center     Atomic      Atomic             Coordinates (Angstroms)
 Number     Number       Type             X           Y           Z
 ---------------------------------------------------------------------
      1          7           0       -6.942415    1.177888  -10.229118
      2          1           0       -6.539448    1.997462  -10.692533
      3          1           0       -7.943520    1.139645  -10.440110
      4          1           0       -6.439325    0.308121  -10.578191
      5          6           0       -6.649273    1.127310   -8.741282
      6          1           0       -6.340890    2.124100   -8.422443
      7          6           0       -5.472960    0.120295   -8.678277
      8          6           0       -7.905969    0.660291   -7.989517
      9          1           0       -8.195561   -0.324005   -8.381046
     10          1           0       -8.717196    1.362717   -8.229289
     11          8           0       -5.272250   -0.591055   -9.673973
     12          6           0       -7.776480    0.578591   -6.453846
     13          1           0       -7.027642   -0.181812   -6.204779
     14          6           0       -7.345492    1.912237   -5.827641
     15          1           0       -8.051344    2.713122   -6.079994
     16          1           0       -6.345724    2.243348   -6.137748
     17          1           0       -7.319141    1.824129   -4.737983
     18          6           0       -9.118355    0.115773   -5.870773
     19          1           0       -9.909177    0.849748   -6.067097
     20          1           0       -9.431752   -0.844100   -6.295661
     21          1           0       -9.039542   -0.007265   -4.786625
     22          7           0       -4.773099    0.104955   -7.552216
     23          1           0       -5.070987    0.656279   -6.752901
     24          6           0       -3.695467   -0.832244   -7.243884
     25          1           0       -3.772081   -1.676650   -7.935213
     26          6           0       -3.956257   -1.260864   -5.793909
     27          6           0       -2.298201   -0.150799   -7.397423
     28          1           0       -2.242899    0.639667   -6.637564
     29          8           0       -4.618026   -0.518010   -5.046727
     30          6           0       -1.148228   -1.142243   -7.164050
     31          1           0       -1.248882   -2.026527   -7.808738
     32          1           0       -1.056395   -1.466534   -6.124965
     33          1           0       -0.199811   -0.664775   -7.427224
     34          6           0       -2.173543    0.487254   -8.786940
     35          1           0       -2.277141   -0.262012   -9.580094
     36          1           0       -1.190523    0.956150   -8.888416
     37          1           0       -2.924801    1.266011   -8.949129
     38          7           0       -3.406706   -2.413807   -5.380825
     39          1           0       -2.799770   -2.907070   -6.024746
     40          6           0       -3.202993   -2.711665   -3.947564
     41          1           0       -4.144599   -2.490952   -3.436523
     42          6           0       -2.095998   -1.739366   -3.505156
     43          6           0       -2.816595   -4.178346   -3.730982
     44          1           0       -1.890975   -4.352845   -4.295958
     45          8           0       -0.905580   -1.987996   -3.695738
     46          6           0       -2.512354   -4.425784   -2.246385
     47          1           0       -3.374613   -4.163514   -1.619691
     48          1           0       -1.641853   -3.859268   -1.904379
     49          1           0       -2.298612   -5.486198   -2.081799
     50          6           0       -3.915867   -5.117168   -4.241162
     51          1           0       -4.843439   -4.976047   -3.672873
     52          1           0       -4.145457   -4.955696   -5.300156
     53          1           0       -3.607899   -6.160183   -4.121026
     54          7           0       -2.527821   -0.557899   -3.007990
     55          1           0       -3.524719   -0.422394   -2.905814
     56          6           0       -1.658009    0.615674   -2.928198
     57          1           0       -0.880059    0.474480   -3.688313
     58          6           0       -0.951922    0.721912   -1.568612
     59          6           0       -2.457651    1.876993   -3.268535
     60          1           0       -1.790118    2.737357   -3.226830
     61          1           0       -3.241602    2.036819   -2.512852
     62          8           0       -0.838314    1.800058   -0.980323
     63          8           0       -3.003366    1.821186   -4.580618
     64          1           0       -3.651143    1.094484   -4.609516
     65          7           0       -0.468245   -0.448445   -1.103029
     66          1           0       -0.402210   -1.257424   -1.717674
     67          6           0        0.237505   -0.553913    0.165171
     68          1           0       -0.214736    0.156717    0.863556
     69          6           0        1.710855   -0.177648   -0.043572
     70          6           0        0.111239   -1.992638    0.693865
     71          1           0        0.759777   -2.067540    1.577657
     72          8           0        2.608162   -1.034917   -0.071519
     73          6           0       -1.319311   -2.349394    1.065143
     74          1           0       -1.678837   -1.716058    1.882914
     75          1           0       -1.985032   -2.218139    0.205968
     76          1           0       -1.366967   -3.394780    1.382104
     77          8           0        0.543212   -2.900840   -0.314497
     78          1           0        1.490697   -2.695746   -0.442088
     79          7           0        1.934959    1.135805   -0.222543
     80          1           0        1.129753    1.758839   -0.237984
     81          6           0        3.264554    1.676306   -0.513554
     82          1           0        3.801674    0.906420   -1.079711
     83          6           0        4.004046    1.894805    0.822188
     84          6           0        3.140704    2.953477   -1.335597
     85          1           0        2.652026    3.725230   -0.730672
     86          1           0        2.504496    2.759228   -2.203935
     87          8           0        4.273043    3.023309    1.248312
     88          6           0        4.490218    3.475709   -1.828918
     89          1           0        5.054220    2.662157   -2.307519
     90          1           0        5.090157    3.832928   -0.987408
     91          6           0        4.297482    4.562607   -2.884749
     92          7           0        5.248071    5.540473   -2.884629
     93          1           0        5.929077    5.627394   -2.145877
     94          1           0        5.153638    6.299711   -3.544672
     95          8           0        3.381098    4.535147   -3.696123
     96          7           0        4.296781    0.755424    1.483967
     97          1           0        3.937294   -0.117773    1.101630
     98          6           0        4.690672    0.769753    2.891762
     99          1           0        4.197983    1.630341    3.361037
    100          6           0        6.217168    0.957974    3.010873
    101          6           0        4.223416   -0.513027    3.581775
    102          1           0        4.808530   -1.351918    3.180282
    103          8           0        6.966368    0.070761    3.427920
    104          6           0        4.406216   -0.441459    5.094011
    105          1           0        5.462653   -0.336302    5.349523
    106          1           0        3.843493    0.403362    5.505113
    107          1           0        4.036223   -1.360728    5.564047
    108          8           0        2.837827   -0.663420    3.233308
    109          1           0        2.528736   -1.471055    3.671215
    110          7           0        6.642737    2.173059    2.607218
    111          1           0        5.944376    2.825951    2.252247
    112          6           0        8.060122    2.532159    2.546863
    113          1           0        8.610214    1.614499    2.311576
    114          6           0        8.508768    3.031908    3.938238
    115          6           0        8.285614    3.589966    1.475980
    116          1           0        9.348566    3.832626    1.403201
    117          1           0        7.935545    3.224902    0.504846
    118          1           0        7.757230    4.512131    1.734203
    119          8           0        8.746428    4.216862    4.159486
    120          7           0        8.566117    2.048080    4.868459
    121          1           0        8.334661    1.095070    4.595192
    122          6           0        8.793439    2.309715    6.275743
    123          1           0        9.141873    3.342085    6.349452
    124          6           0        9.858085    1.333314    6.780631
    125          6           0        7.511964    2.107272    7.113720
    126          1           0        7.253449    1.041260    7.067383
    127          1           0        7.750579    2.327054    8.164337
    128          8           0        9.847960    0.149923    6.451490
    129          6           0        6.302926    2.949591    6.678244
    130          1           0        6.086297    2.703396    5.629161
    131          6           0        5.079168    2.565002    7.519675
    132          1           0        5.236379    2.820179    8.575447
    133          1           0        4.874115    1.489661    7.464682
    134          1           0        4.184618    3.099971    7.179947
    135          6           0        6.574903    4.456680    6.766661
    136          1           0        6.863973    4.738127    7.788236
    137          1           0        5.672977    5.025346    6.511530
    138          1           0        7.368133    4.766384    6.080874
    139          7           0       10.765656    1.854812    7.643052
    140          1           0       10.727902    2.825661    7.927825
    141          6           0       11.755529    1.023990    8.301363
    142          1           0       11.271049    0.102238    8.644263
    143          6           0       12.253814    1.789036    9.513569
    144          6           0       12.917897    0.641360    7.367657
    145          1           0       13.632888   -0.001886    7.887409
    146          1           0       12.506618    0.104208    6.510672
    147          1           0       13.434733    1.538791    7.012902
    148          8           0       11.985212    2.945793    9.761352
    149          8           0       13.061590    1.035339   10.284325
    150          1           0       13.356756    1.605398   11.019417
 ---------------------------------------------------------------------

 SCF Done:  E(RB3LYP) =  -3455.80844299     A.U. after    1 cycles

 Alpha  occ. eigenvalues --  -19.28006 -19.25183 -19.23866 -19.22555 -19.21342
 Alpha  occ. eigenvalues --  -19.19644 -19.19550 -19.19420 -19.18940 -19.18349
 Alpha  occ. eigenvalues --  -19.17351 -19.15714 -19.15081 -19.13824 -19.13594
 Alpha  occ. eigenvalues --  -14.61164 -14.50876 -14.48886 -14.45964 -14.42984
 Alpha  occ. eigenvalues --  -14.42412 -14.40562 -14.39850 -14.39331 -14.38833
 Alpha  occ. eigenvalues --  -14.37426 -10.44756 -10.41877 -10.41740 -10.38353
 Alpha  occ. eigenvalues --  -10.36390 -10.36202 -10.36026 -10.35419 -10.34510
 Alpha  occ. eigenvalues --  -10.33881 -10.33565 -10.32964 -10.32613 -10.31956
 Alpha  occ. eigenvalues --  -10.31561 -10.31356 -10.31000 -10.30671 -10.30158
 Alpha  occ. eigenvalues --  -10.29853 -10.29532 -10.29424 -10.28913 -10.28533
 Alpha  occ. eigenvalues --  -10.28430 -10.28252 -10.27623 -10.27317 -10.27259
 Alpha  occ. eigenvalues --  -10.26921 -10.26332 -10.25844 -10.25264 -10.24717
 Alpha  occ. eigenvalues --  -10.23868 -10.23748 -10.23522 -10.21509 -10.21340
 Alpha  occ. eigenvalues --  -10.21205 -10.21103 -10.21046 -10.19829 -10.18692
 Alpha  occ. eigenvalues --   -1.20554  -1.16981  -1.15001  -1.14903  -1.13511
 Alpha  occ. eigenvalues --   -1.11420  -1.10496  -1.09857  -1.09002  -1.07806
 Alpha  occ. eigenvalues --   -1.07488  -1.07181  -1.06954  -1.06720  -1.06271
 Alpha  occ. eigenvalues --   -1.05767  -1.05160  -1.05119  -1.02203  -0.99814
 Alpha  occ. eigenvalues --   -0.98807  -0.97251  -0.96093  -0.95978  -0.95499
 Alpha  occ. eigenvalues --   -0.94406  -0.94308  -0.92332  -0.89960  -0.89217
 Alpha  occ. eigenvalues --   -0.86188  -0.85044  -0.84231  -0.83601  -0.83068
 Alpha  occ. eigenvalues --   -0.82675  -0.81382  -0.81301  -0.80138  -0.79987
 Alpha  occ. eigenvalues --   -0.79386  -0.78848  -0.78105  -0.76651  -0.76513
 Alpha  occ. eigenvalues --   -0.76447  -0.75206  -0.74375  -0.74285  -0.73736
 Alpha  occ. eigenvalues --   -0.72604  -0.71140  -0.70562  -0.70217  -0.69475
 Alpha  occ. eigenvalues --   -0.69465  -0.68904  -0.68513  -0.68443  -0.67736
 Alpha  occ. eigenvalues --   -0.67728  -0.66767  -0.66172  -0.66057  -0.65220
 Alpha  occ. eigenvalues --   -0.64604  -0.64386  -0.63556  -0.63223  -0.62642
 Alpha  occ. eigenvalues --   -0.61950  -0.61772  -0.61467  -0.61230  -0.60986
 Alpha  occ. eigenvalues --   -0.60448  -0.60262  -0.60147  -0.59107  -0.58707
 Alpha  occ. eigenvalues --   -0.58529  -0.58332  -0.57953  -0.57768  -0.57575
 Alpha  occ. eigenvalues --   -0.57304  -0.57107  -0.56748  -0.56281  -0.56240
 Alpha  occ. eigenvalues --   -0.55990  -0.55137  -0.54719  -0.54490  -0.54121
 Alpha  occ. eigenvalues --   -0.53265  -0.53180  -0.52920  -0.52783  -0.52258
 Alpha  occ. eigenvalues --   -0.52092  -0.52011  -0.51683  -0.51537  -0.51401
 Alpha  occ. eigenvalues --   -0.51224  -0.51003  -0.50925  -0.50708  -0.50129
 Alpha  occ. eigenvalues --   -0.50042  -0.49805  -0.49673  -0.49468  -0.49309
 Alpha  occ. eigenvalues --   -0.49270  -0.49049  -0.48962  -0.48922  -0.48382
 Alpha  occ. eigenvalues --   -0.48173  -0.48001  -0.47884  -0.47739  -0.47667
 Alpha  occ. eigenvalues --   -0.46925  -0.46449  -0.46262  -0.46039  -0.45916
 Alpha  occ. eigenvalues --   -0.45741  -0.45683  -0.45554  -0.45350  -0.45268
 Alpha  occ. eigenvalues --   -0.45147  -0.45096  -0.44974  -0.44510  -0.44400
 Alpha  occ. eigenvalues --   -0.44139  -0.44078  -0.43873  -0.43790  -0.43708
 Alpha  occ. eigenvalues --   -0.43586  -0.43165  -0.42964  -0.42848  -0.42738
 Alpha  occ. eigenvalues --   -0.42469  -0.42407  -0.42376  -0.42131  -0.41981
 Alpha  occ. eigenvalues --   -0.41639  -0.41609  -0.41430  -0.41367  -0.41159
 Alpha  occ. eigenvalues --   -0.41097  -0.40776  -0.40633  -0.40433  -0.40284
 Alpha  occ. eigenvalues --   -0.40158  -0.39885  -0.39749  -0.39314  -0.39133
 Alpha  occ. eigenvalues --   -0.38998  -0.38873  -0.38671  -0.38635  -0.37800
 Alpha  occ. eigenvalues --   -0.37463  -0.36605  -0.36013  -0.35671  -0.35329
 Alpha  occ. eigenvalues --   -0.34867  -0.34729  -0.34525  -0.34391  -0.33739
 Alpha  occ. eigenvalues --   -0.33027  -0.32293  -0.32152  -0.31950  -0.31842
 Alpha  occ. eigenvalues --   -0.30832  -0.30771  -0.30675  -0.30060  -0.28986
 Alpha  occ. eigenvalues --   -0.28656  -0.28308  -0.28237  -0.26517  -0.26335
 Alpha virt. eigenvalues --   -0.13480  -0.12095  -0.11512  -0.07936  -0.07397
 Alpha virt. eigenvalues --   -0.06371  -0.05934  -0.04820  -0.03335  -0.03122
 Alpha virt. eigenvalues --   -0.03114  -0.02609  -0.02394  -0.02184  -0.01412

 Mulliken charges:
               1
     1  N   -0.756317
     2  H    0.419401
     3  H    0.415132
     4  H    0.434630
     5  C   -0.122234
     6  H    0.221002
     7  C    0.647985
     8  C   -0.287055
     9  H    0.174424
    10  H    0.166343
    11  O   -0.539258
    12  C   -0.110447
    13  H    0.164565
    14  C   -0.468644
    15  H    0.160806
    16  H    0.141228
    17  H    0.187550
    18  C   -0.451822
    19  H    0.158170
    20  H    0.158684
    21  H    0.175123
    22  N   -0.592712
    23  H    0.385963
    24  C   -0.088396
    25  H    0.193032
    26  C    0.650101
    27  C   -0.097447
    28  H    0.182404
    29  O   -0.579522
    30  C   -0.503822
    31  H    0.143109
    32  H    0.188085
    33  H    0.181944
    34  C   -0.447140
    35  H    0.161554
    36  H    0.177644
    37  H    0.126189
    38  N   -0.590886
    39  H    0.358105
    40  C   -0.043784
    41  H    0.168920
    42  C    0.625148
    43  C   -0.104234
    44  H    0.157656
    45  O   -0.539448
    46  C   -0.482237
    47  H    0.140841
    48  H    0.201826
    49  H    0.167476
    50  C   -0.451058
    51  H    0.150826
    52  H    0.137464
    53  H    0.171128
    54  N   -0.591749
    55  H    0.345409
    56  C   -0.091894
    57  H    0.206094
    58  C    0.638047
    59  C   -0.064841
    60  H    0.198181
    61  H    0.142244
    62  O   -0.546686
    63  O   -0.656632
    64  H    0.420820
    65  N   -0.612672
    66  H    0.383049
    67  C   -0.084021
    68  H    0.185466
    69  C    0.661716
    70  C    0.120827
    71  H    0.144248
    72  O   -0.576635
    73  C   -0.454463
    74  H    0.150515
    75  H    0.143266
    76  H    0.169077
    77  O   -0.648387
    78  H    0.422893
    79  N   -0.618870
    80  H    0.379169
    81  C   -0.067434
    82  H    0.181085
    83  C    0.640278
    84  C   -0.276290
    85  H    0.167771
    86  H    0.172732
    87  O   -0.552559
    88  C   -0.381920
    89  H    0.169020
    90  H    0.173191
    91  C    0.603442
    92  N   -0.746539
    93  H    0.341810
    94  H    0.343239
    95  O   -0.516510
    96  N   -0.618024
    97  H    0.392398
    98  C   -0.065862
    99  H    0.182461
   100  C    0.642995
   101  C    0.120246
   102  H    0.151309
   103  O   -0.547996
   104  C   -0.489129
   105  H    0.195043
   106  H    0.159898
   107  H    0.139863
   108  O   -0.647534
   109  H    0.397443
   110  N   -0.620179
   111  H    0.379555
   112  C   -0.056112
   113  H    0.177486
   114  C    0.624138
   115  C   -0.462254
   116  H    0.170827
   117  H    0.138754
   118  H    0.171728
   119  O   -0.531442
   120  N   -0.607059
   121  H    0.377066
   122  C   -0.076765
   123  H    0.175184
   124  C    0.633715
   125  C   -0.262074
   126  H    0.151117
   127  H    0.134267
   128  O   -0.539482
   129  C   -0.071760
   130  H    0.125394
   131  C   -0.448527
   132  H    0.141697
   133  H    0.140971
   134  H    0.138189
   135  C   -0.470944
   136  H    0.131127
   137  H    0.136112
   138  H    0.189886
   139  N   -0.619607
   140  H    0.352642
   141  C   -0.017240
   142  H    0.195612
   143  C    0.578380
   144  C   -0.452688
   145  H    0.167712
   146  H    0.194673
   147  H    0.154899
   148  O   -0.468672
   149  O   -0.562082
   150  H    0.419161
 Sum of Mulliken charges =   1.00000

 Dipole moment (field-independent basis, Debye):
    X=            -29.4348    Y=              0.6081    Z=            -36.6964  Tot=             47.0468
 Quadrupole moment (field-independent basis, Debye-Ang):
   XX=           -168.0843   YY=           -408.1406   ZZ=            -21.2116
   XY=            -12.9067   XZ=            286.8831   YZ=            -42.5716

 Normal termination of Gaussian 16 at Sun Jul 24 19:01:08 2022.
