 Gaussian 16, Revision C.01,
 Gaussian 16:  ES64L-G16RevC.01  3-Jul-2019

 ----------------------------------------------------------------------
 # B3LYP/6-31G* empiricaldispersion=gd3bj guess=read geom=check nosymm
 integral(ultrafinegrid)
 ----------------------------------------------------------------------

 ------------------------------------------------------
 Candidate Structure: Conf:239 Charge calc in gas phase
 ------------------------------------------------------
 Structure from the checkpoint file:  "conf-239.chk"
 Charge =  1 Multiplicity = 1

                          Input orientation:
 ---------------------------------------------------------------------
 Center     Atomic      Atomic             Coordinates (Angstroms)
 Number     Number       Type             X           Y           Z
 ---------------------------------------------------------------------
      1          7           0       -8.360564   -3.050954   -7.985153
      2          1           0       -8.049728   -3.060681   -8.961027
      3          1           0       -9.259013   -2.562854   -7.930575
      4          1           0       -8.444841   -4.053197   -7.647692
      5          6           0       -7.325029   -2.483869   -7.030997
      6          1           0       -6.617491   -1.889482   -7.610837
      7          6           0       -6.669662   -3.769128   -6.463197
      8          6           0       -8.036673   -1.630225   -5.965335
      9          1           0       -8.772819   -2.265205   -5.454179
     10          1           0       -8.590779   -0.838818   -6.490807
     11          8           0       -7.289571   -4.834023   -6.591990
     12          6           0       -7.117546   -0.970888   -4.916616
     13          1           0       -6.615700   -1.762357   -4.351687
     14          6           0       -6.047900   -0.069418   -5.548440
     15          1           0       -6.507507    0.729554   -6.143329
     16          1           0       -5.350848   -0.608097   -6.205143
     17          1           0       -5.450930    0.398133   -4.760681
     18          6           0       -7.963731   -0.171628   -3.917338
     19          1           0       -8.467725    0.670763   -4.406584
     20          1           0       -8.728897   -0.799108   -3.446320
     21          1           0       -7.317119    0.227325   -3.130293
     22          7           0       -5.482733   -3.618910   -5.882049
     23          1           0       -5.137253   -2.680858   -5.696155
     24          6           0       -4.824641   -4.629734   -5.049466
     25          1           0       -5.484068   -5.500047   -4.992484
     26          6           0       -4.665651   -3.951716   -3.681772
     27          6           0       -3.456748   -5.035725   -5.660882
     28          1           0       -2.886719   -4.105664   -5.792370
     29          8           0       -4.570876   -2.718070   -3.638617
     30          6           0       -2.656969   -5.953887   -4.726705
     31          1           0       -3.228642   -6.858113   -4.474780
     32          1           0       -2.358117   -5.449179   -3.803992
     33          1           0       -1.745007   -6.284642   -5.232250
     34          6           0       -3.673461   -5.686985   -7.031088
     35          1           0       -4.235661   -6.623422   -6.934707
     36          1           0       -2.710106   -5.920041   -7.494361
     37          1           0       -4.222683   -5.029868   -7.712884
     38          7           0       -4.630977   -4.738828   -2.595382
     39          1           0       -4.611339   -5.740531   -2.729925
     40          6           0       -4.296553   -4.225735   -1.260264
     41          1           0       -5.160127   -3.663918   -0.882155
     42          6           0       -3.084256   -3.290550   -1.419693
     43          6           0       -3.980543   -5.382077   -0.294655
     44          1           0       -3.107468   -5.904232   -0.708474
     45          8           0       -2.028196   -3.726395   -1.888078
     46          6           0       -3.601735   -4.818320    1.080933
     47          1           0       -4.439342   -4.265113    1.522752
     48          1           0       -2.743414   -4.142395    1.024458
     49          1           0       -3.342659   -5.632092    1.764384
     50          6           0       -5.153593   -6.362897   -0.167530
     51          1           0       -6.046080   -5.855973    0.218106
     52          1           0       -5.426622   -6.840901   -1.115788
     53          1           0       -4.896887   -7.164831    0.531202
     54          7           0       -3.282287   -2.008275   -1.052186
     55          1           0       -4.245448   -1.734476   -0.891535
     56          6           0       -2.477500   -0.933321   -1.651235
     57          1           0       -2.117812   -1.290058   -2.621364
     58          6           0       -1.244484   -0.621334   -0.794921
     59          6           0       -3.372627    0.288607   -1.870386
     60          1           0       -2.860229    0.952987   -2.572585
     61          1           0       -3.532454    0.823594   -0.932046
     62          8           0       -1.130730    0.412668   -0.126715
     63          8           0       -4.664249   -0.107511   -2.348094
     64          1           0       -4.536492   -0.825840   -2.992032
     65          7           0       -0.330458   -1.603873   -0.843438
     66          1           0       -0.463869   -2.348764   -1.520410
     67          6           0        0.895244   -1.674814   -0.070540
     68          1           0        0.692983   -1.254927    0.922158
     69          6           0        1.998514   -0.811401   -0.713355
     70          6           0        1.299283   -3.167868    0.056963
     71          1           0        2.385933   -3.202678    0.155405
     72          8           0        3.067282   -1.273156   -1.111989
     73          6           0        0.629219   -3.824204    1.259104
     74          1           0        0.942291   -3.352176    2.196243
     75          1           0       -0.463169   -3.736407    1.187819
     76          1           0        0.892071   -4.885460    1.303193
     77          8           0        1.006819   -3.872298   -1.150567
     78          1           0        0.100988   -4.221821   -1.093621
     79          7           0        1.680449    0.504460   -0.787481
     80          1           0        0.789139    0.805423   -0.394616
     81          6           0        2.526904    1.448956   -1.507001
     82          1           0        3.005723    0.867531   -2.301499
     83          6           0        3.646533    1.979278   -0.585768
     84          6           0        1.712162    2.606653   -2.097049
     85          1           0        2.340969    3.113989   -2.839454
     86          1           0        1.546461    3.349760   -1.312035
     87          8           0        3.658701    3.142969   -0.169448
     88          6           0        0.352974    2.209854   -2.698323
     89          1           0       -0.050006    3.072086   -3.246195
     90          1           0       -0.367453    1.982370   -1.910137
     91          6           0        0.322460    1.016710   -3.644974
     92          7           0        1.377148    0.889137   -4.494230
     93          1           0        2.189782    1.483538   -4.440299
     94          1           0        1.414593    0.079678   -5.097703
     95          8           0       -0.627962    0.235507   -3.679601
     96          7           0        4.582917    1.063013   -0.271013
     97          1           0        4.515195    0.119392   -0.651899
     98          6           0        5.626121    1.327712    0.712944
     99          1           0        5.199654    1.975209    1.487896
    100          6           0        6.795489    2.078895    0.048167
    101          6           0        6.111071    0.004969    1.333505
    102          1           0        6.915420    0.265227    2.038229
    103          8           0        7.880791    1.528262   -0.190813
    104          6           0        5.006860   -0.733834    2.077704
    105          1           0        4.565474   -0.102258    2.856402
    106          1           0        4.220993   -1.046967    1.383867
    107          1           0        5.422119   -1.631296    2.544499
    108          8           0        6.596446   -0.854947    0.316248
    109          1           0        7.356160   -0.373611   -0.068108
    110          7           0        6.535151    3.363236   -0.255670
    111          1           0        5.590784    3.704262   -0.080363
    112          6           0        7.479345    4.205821   -0.994309
    113          1           0        8.026131    3.545577   -1.676210
    114          6           0        8.487028    4.828979   -0.001993
    115          6           0        6.725494    5.281219   -1.763456
    116          1           0        7.422315    5.876031   -2.359215
    117          1           0        5.986337    4.824945   -2.429622
    118          1           0        6.222523    5.962758   -1.072122
    119          8           0        8.430439    6.009211    0.333379
    120          7           0        9.411702    3.955754    0.465253
    121          1           0        9.339299    2.963894    0.242531
    122          6           0       10.322763    4.334510    1.530273
    123          1           0       10.652256    5.357346    1.330341
    124          6           0       11.496751    3.359842    1.482632
    125          6           0        9.615538    4.276936    2.903990
    126          1           0        8.704125    4.879519    2.809658
    127          1           0        9.308346    3.236556    3.069843
    128          8           0       11.345739    2.180577    1.180815
    129          6           0       10.428402    4.775367    4.110188
    130          1           0       11.338068    4.168491    4.193147
    131          6           0       10.830700    6.250137    3.967615
    132          1           0        9.946106    6.883431    3.828251
    133          1           0       11.489397    6.430939    3.109141
    134          1           0       11.358921    6.598839    4.862131
    135          6           0        9.615674    4.569331    5.395104
    136          1           0        8.687407    5.154274    5.368992
    137          1           0       10.184209    4.884831    6.277405
    138          1           0        9.344097    3.515533    5.527124
    139          7           0       12.715887    3.870151    1.809972
    140          1           0       12.777749    4.807388    2.182299
    141          6           0       13.869944    2.997312    1.917051
    142          1           0       13.995193    2.464633    0.970585
    143          6           0       13.713648    1.899042    2.968849
    144          6           0       15.126820    3.817786    2.224707
    145          1           0       15.996321    3.158607    2.280857
    146          1           0       15.297899    4.556993    1.436029
    147          1           0       15.026538    4.339597    3.183352
    148          8           0       14.295435    0.841599    2.922694
    149          8           0       12.925052    2.266266    4.007164
    150          1           0       12.914259    1.505022    4.617086
 ---------------------------------------------------------------------

 SCF Done:  E(RB3LYP) =  -3455.80781384     A.U. after    1 cycles

 Alpha  occ. eigenvalues --  -19.28095 -19.24799 -19.22809 -19.22436 -19.21835
 Alpha  occ. eigenvalues --  -19.20128 -19.18956 -19.17897 -19.17870 -19.17065
 Alpha  occ. eigenvalues --  -19.16618 -19.16433 -19.16255 -19.14732 -19.13517
 Alpha  occ. eigenvalues --  -14.61241 -14.50870 -14.48616 -14.45007 -14.42378
 Alpha  occ. eigenvalues --  -14.42297 -14.41507 -14.40502 -14.39801 -14.39689
 Alpha  occ. eigenvalues --  -14.37382 -10.44849 -10.41667 -10.41517 -10.38459
 Alpha  occ. eigenvalues --  -10.35957 -10.35786 -10.35577 -10.34794 -10.34516
 Alpha  occ. eigenvalues --  -10.34125 -10.33942 -10.33771 -10.32920 -10.31660
 Alpha  occ. eigenvalues --  -10.31046 -10.30644 -10.30569 -10.30370 -10.30107
 Alpha  occ. eigenvalues --  -10.29602 -10.29492 -10.29256 -10.29149 -10.28536
 Alpha  occ. eigenvalues --  -10.27522 -10.27405 -10.27330 -10.27271 -10.27192
 Alpha  occ. eigenvalues --  -10.27137 -10.27055 -10.26442 -10.26289 -10.25590
 Alpha  occ. eigenvalues --  -10.25461 -10.25403 -10.24020 -10.22826 -10.21405
 Alpha  occ. eigenvalues --  -10.21283 -10.21090 -10.20898 -10.20316 -10.19937
 Alpha  occ. eigenvalues --   -1.20583  -1.16877  -1.15070  -1.13526  -1.13397
 Alpha  occ. eigenvalues --   -1.10762  -1.09726  -1.09520  -1.09433  -1.08798
 Alpha  occ. eigenvalues --   -1.07905  -1.07740  -1.07654  -1.06939  -1.05286
 Alpha  occ. eigenvalues --   -1.04952  -1.04407  -1.04153  -1.01561  -0.99378
 Alpha  occ. eigenvalues --   -0.98306  -0.97206  -0.96932  -0.96249  -0.96121
 Alpha  occ. eigenvalues --   -0.95716  -0.94270  -0.92497  -0.90607  -0.88944
 Alpha  occ. eigenvalues --   -0.86164  -0.85063  -0.84176  -0.83996  -0.82850
 Alpha  occ. eigenvalues --   -0.82292  -0.81517  -0.81191  -0.80085  -0.79801
 Alpha  occ. eigenvalues --   -0.78936  -0.78775  -0.78362  -0.77799  -0.76737
 Alpha  occ. eigenvalues --   -0.76650  -0.75200  -0.74654  -0.74127  -0.73595
 Alpha  occ. eigenvalues --   -0.72311  -0.71132  -0.70799  -0.70769  -0.69769
 Alpha  occ. eigenvalues --   -0.69370  -0.69241  -0.68938  -0.68318  -0.67578
 Alpha  occ. eigenvalues --   -0.67455  -0.67048  -0.65819  -0.65712  -0.65020
 Alpha  occ. eigenvalues --   -0.64459  -0.64329  -0.64005  -0.63329  -0.63075
 Alpha  occ. eigenvalues --   -0.62562  -0.62157  -0.62113  -0.61888  -0.61192
 Alpha  occ. eigenvalues --   -0.60751  -0.60330  -0.60109  -0.59935  -0.59468
 Alpha  occ. eigenvalues --   -0.58750  -0.58661  -0.57576  -0.57480  -0.57286
 Alpha  occ. eigenvalues --   -0.56765  -0.56386  -0.55974  -0.55852  -0.55454
 Alpha  occ. eigenvalues --   -0.55221  -0.54690  -0.54438  -0.54211  -0.53832
 Alpha  occ. eigenvalues --   -0.53626  -0.53578  -0.52799  -0.52462  -0.52215
 Alpha  occ. eigenvalues --   -0.52128  -0.51887  -0.51783  -0.51292  -0.51254
 Alpha  occ. eigenvalues --   -0.51135  -0.51042  -0.50895  -0.50773  -0.50315
 Alpha  occ. eigenvalues --   -0.50118  -0.49929  -0.49628  -0.49458  -0.49353
 Alpha  occ. eigenvalues --   -0.49287  -0.49240  -0.49055  -0.48829  -0.48632
 Alpha  occ. eigenvalues --   -0.48505  -0.48043  -0.48017  -0.47955  -0.47675
 Alpha  occ. eigenvalues --   -0.47532  -0.47243  -0.46973  -0.46813  -0.46301
 Alpha  occ. eigenvalues --   -0.46197  -0.45603  -0.45582  -0.45458  -0.45007
 Alpha  occ. eigenvalues --   -0.44864  -0.44800  -0.44600  -0.44529  -0.44365
 Alpha  occ. eigenvalues --   -0.44280  -0.44181  -0.44152  -0.43876  -0.43836
 Alpha  occ. eigenvalues --   -0.43672  -0.43570  -0.43560  -0.43472  -0.42930
 Alpha  occ. eigenvalues --   -0.42776  -0.42738  -0.42584  -0.42452  -0.42191
 Alpha  occ. eigenvalues --   -0.42070  -0.41812  -0.41659  -0.41343  -0.41112
 Alpha  occ. eigenvalues --   -0.40974  -0.40935  -0.40684  -0.40623  -0.40576
 Alpha  occ. eigenvalues --   -0.40356  -0.40304  -0.39947  -0.39651  -0.39122
 Alpha  occ. eigenvalues --   -0.38750  -0.38694  -0.38468  -0.38177  -0.37833
 Alpha  occ. eigenvalues --   -0.36392  -0.36206  -0.35862  -0.35484  -0.35207
 Alpha  occ. eigenvalues --   -0.35094  -0.34927  -0.34593  -0.34374  -0.33573
 Alpha  occ. eigenvalues --   -0.33381  -0.33243  -0.32446  -0.31999  -0.31569
 Alpha  occ. eigenvalues --   -0.31558  -0.30931  -0.30014  -0.29898  -0.29565
 Alpha  occ. eigenvalues --   -0.28890  -0.28302  -0.28168  -0.26897  -0.26458
 Alpha virt. eigenvalues --   -0.13639  -0.12050  -0.10697  -0.08227  -0.07334
 Alpha virt. eigenvalues --   -0.05961  -0.05664  -0.04475  -0.03852  -0.03736
 Alpha virt. eigenvalues --   -0.02992  -0.02779  -0.02143  -0.02088  -0.02002

 Mulliken charges:
               1
     1  N   -0.754150
     2  H    0.418492
     3  H    0.415806
     4  H    0.433261
     5  C   -0.122705
     6  H    0.218120
     7  C    0.642106
     8  C   -0.285272
     9  H    0.171497
    10  H    0.165138
    11  O   -0.534486
    12  C   -0.113341
    13  H    0.163647
    14  C   -0.480807
    15  H    0.156891
    16  H    0.123984
    17  H    0.204063
    18  C   -0.462063
    19  H    0.152639
    20  H    0.148859
    21  H    0.201064
    22  N   -0.588415
    23  H    0.382769
    24  C   -0.100936
    25  H    0.191665
    26  C    0.667453
    27  C   -0.073453
    28  H    0.155407
    29  O   -0.567689
    30  C   -0.497407
    31  H    0.137040
    32  H    0.198222
    33  H    0.179554
    34  C   -0.446603
    35  H    0.159612
    36  H    0.175165
    37  H    0.135222
    38  N   -0.613738
    39  H    0.353911
    40  C    0.006938
    41  H    0.158044
    42  C    0.628069
    43  C   -0.127418
    44  H    0.161757
    45  O   -0.558501
    46  C   -0.476836
    47  H    0.155155
    48  H    0.181085
    49  H    0.171873
    50  C   -0.458845
    51  H    0.159738
    52  H    0.134181
    53  H    0.177904
    54  N   -0.577883
    55  H    0.348258
    56  C   -0.125818
    57  H    0.208188
    58  C    0.671175
    59  C   -0.060951
    60  H    0.176884
    61  H    0.178552
    62  O   -0.563973
    63  O   -0.670589
    64  H    0.436846
    65  N   -0.615891
    66  H    0.375869
    67  C   -0.079975
    68  H    0.182082
    69  C    0.637966
    70  C    0.127197
    71  H    0.188451
    72  O   -0.530463
    73  C   -0.501021
    74  H    0.163515
    75  H    0.146833
    76  H    0.169805
    77  O   -0.636083
    78  H    0.405705
    79  N   -0.627189
    80  H    0.380906
    81  C   -0.054641
    82  H    0.168949
    83  C    0.633727
    84  C   -0.317915
    85  H    0.147815
    86  H    0.197199
    87  O   -0.552739
    88  C   -0.390924
    89  H    0.175881
    90  H    0.194347
    91  C    0.608213
    92  N   -0.732803
    93  H    0.347653
    94  H    0.347790
    95  O   -0.542890
    96  N   -0.616168
    97  H    0.390654
    98  C   -0.069095
    99  H    0.173056
   100  C    0.635903
   101  C    0.114136
   102  H    0.138493
   103  O   -0.562086
   104  C   -0.460127
   105  H    0.138396
   106  H    0.153840
   107  H    0.165698
   108  O   -0.645607
   109  H    0.423634
   110  N   -0.612217
   111  H    0.379577
   112  C   -0.055648
   113  H    0.173891
   114  C    0.627105
   115  C   -0.460686
   116  H    0.168782
   117  H    0.138483
   118  H    0.177664
   119  O   -0.537037
   120  N   -0.632769
   121  H    0.385661
   122  C   -0.054078
   123  H    0.168511
   124  C    0.630866
   125  C   -0.256544
   126  H    0.158954
   127  H    0.141291
   128  O   -0.529451
   129  C   -0.103627
   130  H    0.153924
   131  C   -0.451653
   132  H    0.158916
   133  H    0.125014
   134  H    0.145413
   135  C   -0.442601
   136  H    0.141798
   137  H    0.141733
   138  H    0.139604
   139  N   -0.617760
   140  H    0.340402
   141  C   -0.006171
   142  H    0.199228
   143  C    0.603382
   144  C   -0.493491
   145  H    0.189232
   146  H    0.171215
   147  H    0.162295
   148  O   -0.461948
   149  O   -0.563992
   150  H    0.414282
 Sum of Mulliken charges =   1.00000

 Dipole moment (field-independent basis, Debye):
    X=            -34.4385    Y=            -13.6890    Z=            -28.8394  Tot=             46.9587
 Quadrupole moment (field-independent basis, Debye-Ang):
   XX=           -150.2288   YY=           -353.7980   ZZ=           -150.7967
   XY=            149.6290   XZ=            250.4408   YZ=             77.5542

 Normal termination of Gaussian 16 at Sun Jul 24 19:01:12 2022.
