 Gaussian 16, Revision C.01,
 Gaussian 16:  ES64L-G16RevC.01  3-Jul-2019

 ----------------------------------------------------------------------
 # B3LYP/6-31G* empiricaldispersion=gd3bj guess=read geom=check nosymm
 integral(ultrafinegrid)
 ----------------------------------------------------------------------

 ------------------------------------------------------
 Candidate Structure: Conf:315 Charge calc in gas phase
 ------------------------------------------------------
 Structure from the checkpoint file:  "conf-315.chk"
 Charge =  1 Multiplicity = 1

                          Input orientation:
 ---------------------------------------------------------------------
 Center     Atomic      Atomic             Coordinates (Angstroms)
 Number     Number       Type             X           Y           Z
 ---------------------------------------------------------------------
      1          7           0       -6.541770   -2.698117  -10.819881
      2          1           0       -6.016780   -2.812899  -11.690679
      3          1           0       -7.501568   -2.428808  -11.053373
      4          1           0       -6.514233   -3.611777  -10.271113
      5          6           0       -5.888122   -1.739020   -9.846627
      6          1           0       -5.083437   -1.221573  -10.371339
      7          6           0       -5.325811   -2.692167   -8.761979
      8          6           0       -6.913091   -0.751956   -9.276550
      9          1           0       -6.393576   -0.146255   -8.524408
     10          1           0       -7.677684   -1.321432   -8.730703
     11          8           0       -5.669649   -3.882905   -8.806581
     12          6           0       -7.576294    0.186594  -10.303645
     13          1           0       -8.134826   -0.421661  -11.036837
     14          6           0       -8.600785    1.074669   -9.584994
     15          1           0       -8.103855    1.724363   -8.855166
     16          1           0       -9.349204    0.477705   -9.052767
     17          1           0       -9.125178    1.714891  -10.300288
     18          6           0       -6.549877    1.032256  -11.067252
     19          1           0       -5.949823    1.634026  -10.374205
     20          1           0       -5.861745    0.428307  -11.671468
     21          1           0       -7.054787    1.720871  -11.750859
     22          7           0       -4.528612   -2.138267   -7.859232
     23          1           0       -4.382556   -1.129748   -7.824110
     24          6           0       -4.026241   -2.806494   -6.658472
     25          1           0       -4.664320   -3.671679   -6.455043
     26          6           0       -4.143725   -1.734634   -5.564867
     27          6           0       -2.551237   -3.270469   -6.835116
     28          1           0       -1.954398   -2.363460   -7.004249
     29          8           0       -4.067597   -0.541001   -5.884293
     30          6           0       -2.021772   -3.977654   -5.578790
     31          1           0       -2.653927   -4.836387   -5.315265
     32          1           0       -1.945206   -3.322232   -4.707753
     33          1           0       -1.018824   -4.368080   -5.774327
     34          6           0       -2.415856   -4.182446   -8.060364
     35          1           0       -3.031985   -5.082042   -7.953189
     36          1           0       -1.373984   -4.495691   -8.175955
     37          1           0       -2.712119   -3.675133   -8.983352
     38          7           0       -4.299804   -2.165226   -4.300318
     39          1           0       -4.229005   -3.159035   -4.118862
     40          6           0       -4.089404   -1.273121   -3.145953
     41          1           0       -4.556163   -0.317263   -3.400030
     42          6           0       -2.562200   -1.113876   -3.030035
     43          6           0       -4.717581   -1.842406   -1.870176
     44          1           0       -4.182281   -2.772302   -1.636739
     45          8           0       -1.877623   -1.917642   -2.392896
     46          6           0       -4.497767   -0.863954   -0.708893
     47          1           0       -5.008627    0.088033   -0.901747
     48          1           0       -3.437343   -0.656591   -0.540803
     49          1           0       -4.914913   -1.281720    0.213172
     50          6           0       -6.208285   -2.141540   -2.065999
     51          1           0       -6.761264   -1.225625   -2.308454
     52          1           0       -6.390182   -2.863761   -2.869201
     53          1           0       -6.633808   -2.552646   -1.145348
     54          7           0       -2.037554   -0.108611   -3.763132
     55          1           0       -2.672226    0.433594   -4.337635
     56          6           0       -0.608671   -0.008704   -4.059381
     57          1           0       -0.203858   -1.024805   -4.134500
     58          6           0        0.161034    0.721077   -2.941440
     59          6           0       -0.430286    0.712272   -5.403664
     60          1           0       -0.898231    1.708222   -5.334870
     61          1           0       -0.960509    0.145867   -6.178097
     62          8           0        0.834675    1.734947   -3.185619
     63          8           0        0.920184    0.788854   -5.777994
     64          1           0        1.328801    1.349270   -5.090143
     65          7           0        0.048307    0.173949   -1.723218
     66          1           0       -0.525039   -0.660450   -1.617142
     67          6           0        0.596937    0.818245   -0.533350
     68          1           0        0.526375    1.899414   -0.692657
     69          6           0        2.080683    0.452632   -0.350444
     70          6           0       -0.211702    0.444292    0.710278
     71          1           0       -0.035244   -0.617129    0.931949
     72          8           0        2.461146   -0.291361    0.555404
     73          6           0        0.187098    1.291352    1.915354
     74          1           0        1.234642    1.137078    2.181636
     75          1           0        0.023802    2.353431    1.702809
     76          1           0       -0.423086    1.015115    2.784337
     77          8           0       -1.588955    0.653533    0.358225
     78          1           0       -2.103212    0.557456    1.174552
     79          7           0        2.926593    1.021302   -1.241053
     80          1           0        2.542632    1.712346   -1.877462
     81          6           0        4.339228    1.041653   -0.895205
     82          1           0        4.691008    0.013854   -0.824655
     83          6           0        4.460133    1.696561    0.498397
     84          6           0        5.174664    1.778708   -1.950137
     85          1           0        4.692315    2.739362   -2.172061
     86          1           0        5.170865    1.189035   -2.873988
     87          8           0        3.765450    2.645816    0.844944
     88          6           0        6.620229    2.084001   -1.521061
     89          1           0        6.617135    2.728110   -0.632213
     90          1           0        7.109131    2.657191   -2.317382
     91          6           0        7.494848    0.887833   -1.148476
     92          7           0        8.824680    1.082786   -1.281471
     93          1           0        9.170873    2.013364   -1.467293
     94          1           0        9.464062    0.456751   -0.789132
     95          8           0        7.028328   -0.178818   -0.724967
     96          7           0        5.367878    1.071373    1.278519
     97          1           0        5.986519    0.402832    0.822688
     98          6           0        5.634450    1.417846    2.649577
     99          1           0        4.962108    2.240167    2.918014
    100          6           0        7.094869    1.892600    2.739107
    101          6           0        5.220498    0.168093    3.493699
    102          1           0        5.818930   -0.680520    3.120547
    103          8           0        7.796483    1.981649    1.727431
    104          6           0        5.409736    0.268079    5.003486
    105          1           0        6.458634    0.155471    5.293982
    106          1           0        5.005554    1.209249    5.397462
    107          1           0        4.848775   -0.546207    5.469654
    108          8           0        3.840913   -0.068672    3.280396
    109          1           0        3.675062   -0.166381    2.323146
    110          7           0        7.573798    2.210393    3.968753
    111          1           0        6.997909    2.012131    4.774450
    112          6           0        9.018725    2.327617    4.215326
    113          1           0        9.429595    2.958497    3.423285
    114          6           0        9.591671    0.895983    4.110421
    115          6           0        9.272344    2.935677    5.585867
    116          1           0       10.345052    3.085518    5.737316
    117          1           0        8.767004    3.901765    5.676988
    118          1           0        8.921318    2.258629    6.370224
    119          8           0        9.605245    0.134132    5.071988
    120          7           0        9.990194    0.551513    2.852785
    121          1           0        9.667053    1.159357    2.104092
    122          6           0       10.119336   -0.854072    2.485049
    123          1           0       10.529582   -1.372400    3.353713
    124          6           0       11.065108   -0.949121    1.293546
    125          6           0        8.741710   -1.437491    2.108093
    126          1           0        8.109657   -1.360570    3.002725
    127          1           0        8.306987   -0.793174    1.337511
    128          8           0       10.894935   -0.281617    0.267149
    129          6           0        8.732832   -2.886616    1.599349
    130          1           0        9.383657   -2.939734    0.713945
    131          6           0        9.254337   -3.881922    2.642967
    132          1           0        8.675674   -3.809146    3.572287
    133          1           0       10.308019   -3.714837    2.892691
    134          1           0        9.170699   -4.910912    2.275860
    135          6           0        7.311864   -3.247348    1.146567
    136          1           0        6.611560   -3.199720    1.991149
    137          1           0        7.273190   -4.265459    0.742162
    138          1           0        6.964992   -2.553050    0.374715
    139          7           0       12.076823   -1.831896    1.415920
    140          1           0       12.169076   -2.406083    2.245139
    141          6           0       12.964793   -2.150832    0.313096
    142          1           0       12.370847   -2.215845   -0.605804
    143          6           0       13.557848   -3.518496    0.605239
    144          6           0       14.061425   -1.090977    0.114007
    145          1           0       14.698050   -1.353430   -0.734846
    146          1           0       13.582505   -0.128862   -0.079610
    147          1           0       14.680471   -1.005852    1.012600
    148          8           0       13.413817   -4.123214    1.646642
    149          8           0       14.288037   -3.977593   -0.427412
    150          1           0       14.651086   -4.841209   -0.153260
 ---------------------------------------------------------------------

 SCF Done:  E(RB3LYP) =  -3455.81122274     A.U. after    1 cycles

 Alpha  occ. eigenvalues --  -19.28012 -19.25142 -19.23954 -19.20485 -19.19810
 Alpha  occ. eigenvalues --  -19.19643 -19.19411 -19.18633 -19.16471 -19.16293
 Alpha  occ. eigenvalues --  -19.15998 -19.15886 -19.15004 -19.14752 -19.13816
 Alpha  occ. eigenvalues --  -14.60897 -14.50673 -14.47888 -14.44797 -14.41846
 Alpha  occ. eigenvalues --  -14.40888 -14.40543 -14.39231 -14.38594 -14.37865
 Alpha  occ. eigenvalues --  -14.37835 -10.44674 -10.41634 -10.40754 -10.37526
 Alpha  occ. eigenvalues --  -10.37405 -10.35654 -10.35275 -10.34496 -10.33314
 Alpha  occ. eigenvalues --  -10.33186 -10.33181 -10.32755 -10.32519 -10.32498
 Alpha  occ. eigenvalues --  -10.31655 -10.30810 -10.30517 -10.30439 -10.30184
 Alpha  occ. eigenvalues --  -10.29947 -10.28995 -10.28884 -10.28566 -10.27895
 Alpha  occ. eigenvalues --  -10.27453 -10.27366 -10.27303 -10.27196 -10.27101
 Alpha  occ. eigenvalues --  -10.26426 -10.26255 -10.25787 -10.25330 -10.23997
 Alpha  occ. eigenvalues --  -10.23579 -10.23310 -10.22616 -10.21776 -10.21643
 Alpha  occ. eigenvalues --  -10.21172 -10.21149 -10.21024 -10.20028 -10.19288
 Alpha  occ. eigenvalues --   -1.20482  -1.16201  -1.15945  -1.14813  -1.12474
 Alpha  occ. eigenvalues --   -1.10347  -1.08515  -1.08303  -1.08022  -1.07518
 Alpha  occ. eigenvalues --   -1.07206  -1.07195  -1.06923  -1.06472  -1.06333
 Alpha  occ. eigenvalues --   -1.05585  -1.04184  -1.03773  -1.01175  -0.98338
 Alpha  occ. eigenvalues --   -0.97550  -0.96928  -0.96324  -0.96000  -0.95572
 Alpha  occ. eigenvalues --   -0.95132  -0.93184  -0.92506  -0.89831  -0.89044
 Alpha  occ. eigenvalues --   -0.84819  -0.84410  -0.83939  -0.83495  -0.82586
 Alpha  occ. eigenvalues --   -0.82019  -0.81871  -0.81303  -0.80189  -0.79414
 Alpha  occ. eigenvalues --   -0.78850  -0.78132  -0.77199  -0.76751  -0.75825
 Alpha  occ. eigenvalues --   -0.75243  -0.75050  -0.74132  -0.73592  -0.73026
 Alpha  occ. eigenvalues --   -0.72040  -0.71083  -0.70815  -0.70390  -0.70171
 Alpha  occ. eigenvalues --   -0.69703  -0.68889  -0.68592  -0.67724  -0.67641
 Alpha  occ. eigenvalues --   -0.67381  -0.66255  -0.65258  -0.64727  -0.64192
 Alpha  occ. eigenvalues --   -0.64001  -0.63621  -0.63241  -0.62946  -0.62127
 Alpha  occ. eigenvalues --   -0.61737  -0.61280  -0.60923  -0.60832  -0.60405
 Alpha  occ. eigenvalues --   -0.60136  -0.59821  -0.59349  -0.59106  -0.58573
 Alpha  occ. eigenvalues --   -0.58368  -0.57813  -0.57717  -0.56744  -0.56523
 Alpha  occ. eigenvalues --   -0.56478  -0.56123  -0.55583  -0.55328  -0.54733
 Alpha  occ. eigenvalues --   -0.54702  -0.54481  -0.54390  -0.54134  -0.53737
 Alpha  occ. eigenvalues --   -0.53396  -0.52928  -0.52709  -0.52576  -0.52540
 Alpha  occ. eigenvalues --   -0.52417  -0.51901  -0.51457  -0.51221  -0.51162
 Alpha  occ. eigenvalues --   -0.50874  -0.50661  -0.50604  -0.50236  -0.50149
 Alpha  occ. eigenvalues --   -0.49974  -0.49637  -0.49500  -0.49338  -0.49169
 Alpha  occ. eigenvalues --   -0.49084  -0.48799  -0.48450  -0.47918  -0.47817
 Alpha  occ. eigenvalues --   -0.47757  -0.47496  -0.47238  -0.46946  -0.46866
 Alpha  occ. eigenvalues --   -0.46623  -0.46591  -0.46070  -0.45936  -0.45914
 Alpha  occ. eigenvalues --   -0.45816  -0.45729  -0.45624  -0.45540  -0.45457
 Alpha  occ. eigenvalues --   -0.45318  -0.44985  -0.44818  -0.44551  -0.44046
 Alpha  occ. eigenvalues --   -0.43936  -0.43803  -0.43764  -0.43191  -0.43025
 Alpha  occ. eigenvalues --   -0.42864  -0.42783  -0.42467  -0.42431  -0.42154
 Alpha  occ. eigenvalues --   -0.42079  -0.42017  -0.41891  -0.41774  -0.41521
 Alpha  occ. eigenvalues --   -0.41435  -0.41274  -0.40986  -0.40900  -0.40724
 Alpha  occ. eigenvalues --   -0.40630  -0.40549  -0.40246  -0.40108  -0.39814
 Alpha  occ. eigenvalues --   -0.39791  -0.39521  -0.39468  -0.39263  -0.38413
 Alpha  occ. eigenvalues --   -0.38330  -0.38144  -0.37898  -0.37641  -0.37526
 Alpha  occ. eigenvalues --   -0.37279  -0.36088  -0.35729  -0.35663  -0.35108
 Alpha  occ. eigenvalues --   -0.35000  -0.33744  -0.33272  -0.33121  -0.32655
 Alpha  occ. eigenvalues --   -0.32161  -0.31739  -0.31237  -0.31091  -0.30608
 Alpha  occ. eigenvalues --   -0.30534  -0.30183  -0.29869  -0.29236  -0.28843
 Alpha  occ. eigenvalues --   -0.28504  -0.28296  -0.27412  -0.27189  -0.27070
 Alpha virt. eigenvalues --   -0.13161  -0.12354  -0.10106  -0.07738  -0.06871
 Alpha virt. eigenvalues --   -0.05247  -0.04723  -0.04441  -0.03338  -0.03157
 Alpha virt. eigenvalues --   -0.02691  -0.02489  -0.02407  -0.02336  -0.02145

 Mulliken charges:
               1
     1  N   -0.757998
     2  H    0.417897
     3  H    0.413889
     4  H    0.435136
     5  C   -0.119697
     6  H    0.219924
     7  C    0.656192
     8  C   -0.298194
     9  H    0.194295
    10  H    0.175413
    11  O   -0.540753
    12  C   -0.101003
    13  H    0.115794
    14  C   -0.448144
    15  H    0.167648
    16  H    0.160570
    17  H    0.177680
    18  C   -0.454790
    19  H    0.169887
    20  H    0.130430
    21  H    0.187424
    22  N   -0.595660
    23  H    0.371451
    24  C   -0.074696
    25  H    0.187078
    26  C    0.636446
    27  C   -0.080450
    28  H    0.157041
    29  O   -0.562450
    30  C   -0.495416
    31  H    0.148265
    32  H    0.184080
    33  H    0.181915
    34  C   -0.446198
    35  H    0.165010
    36  H    0.174940
    37  H    0.130374
    38  N   -0.598478
    39  H    0.352900
    40  C   -0.045708
    41  H    0.174147
    42  C    0.645227
    43  C   -0.103024
    44  H    0.156687
    45  O   -0.557100
    46  C   -0.488046
    47  H    0.143645
    48  H    0.198954
    49  H    0.156839
    50  C   -0.447759
    51  H    0.147904
    52  H    0.132733
    53  H    0.167603
    54  N   -0.595847
    55  H    0.360651
    56  C   -0.089622
    57  H    0.193093
    58  C    0.653115
    59  C   -0.045087
    60  H    0.135974
    61  H    0.134826
    62  O   -0.571124
    63  O   -0.626877
    64  H    0.422083
    65  N   -0.611901
    66  H    0.389452
    67  C   -0.070765
    68  H    0.189534
    69  C    0.657146
    70  C    0.123731
    71  H    0.149744
    72  O   -0.548588
    73  C   -0.486757
    74  H    0.208180
    75  H    0.157827
    76  H    0.136792
    77  O   -0.642080
    78  H    0.398302
    79  N   -0.616246
    80  H    0.361093
    81  C   -0.025612
    82  H    0.197648
    83  C    0.580371
    84  C   -0.287233
    85  H    0.151252
    86  H    0.159430
    87  O   -0.546402
    88  C   -0.401519
    89  H    0.210768
    90  H    0.152206
    91  C    0.639200
    92  N   -0.763227
    93  H    0.333016
    94  H    0.400063
    95  O   -0.551974
    96  N   -0.619857
    97  H    0.388979
    98  C   -0.104349
    99  H    0.201171
   100  C    0.628630
   101  C    0.161048
   102  H    0.126326
   103  O   -0.550387
   104  C   -0.504374
   105  H    0.164328
   106  H    0.150021
   107  H    0.180585
   108  O   -0.657730
   109  H    0.442092
   110  N   -0.597762
   111  H    0.347202
   112  C   -0.048331
   113  H    0.170389
   114  C    0.611480
   115  C   -0.471985
   116  H    0.169463
   117  H    0.158129
   118  H    0.177104
   119  O   -0.532956
   120  N   -0.601838
   121  H    0.366510
   122  C   -0.070150
   123  H    0.175450
   124  C    0.649575
   125  C   -0.297286
   126  H    0.150002
   127  H    0.179873
   128  O   -0.567838
   129  C   -0.080607
   130  H    0.127078
   131  C   -0.446393
   132  H    0.148597
   133  H    0.132971
   134  H    0.145835
   135  C   -0.465504
   136  H    0.138709
   137  H    0.135414
   138  H    0.179837
   139  N   -0.611152
   140  H    0.365438
   141  C   -0.026701
   142  H    0.198166
   143  C    0.583306
   144  C   -0.451074
   145  H    0.172508
   146  H    0.188974
   147  H    0.160364
   148  O   -0.465282
   149  O   -0.560862
   150  H    0.422376
 Sum of Mulliken charges =   1.00000

 Dipole moment (field-independent basis, Debye):
    X=            -22.9572    Y=             -9.0962    Z=            -43.6734  Tot=             50.1711
 Quadrupole moment (field-independent basis, Debye-Ang):
   XX=            -99.8804   YY=           -380.7372   ZZ=             29.6045
   XY=             43.9539   XZ=            270.8629   YZ=             95.2925

 Normal termination of Gaussian 16 at Sun Jul 24 19:01:10 2022.
