 Gaussian 16, Revision C.01,
 Gaussian 16:  ES64L-G16RevC.01  3-Jul-2019

 ----------------------------------------------------------------------
 # B3LYP/6-31G* empiricaldispersion=gd3bj guess=read geom=check nosymm
 integral(ultrafinegrid)
 ----------------------------------------------------------------------

 ------------------------------------------------------
 Candidate Structure: Conf:126 Charge calc in gas phase
 ------------------------------------------------------
 Structure from the checkpoint file:  "conf-126.chk"
 Charge =  1 Multiplicity = 1

                          Input orientation:
 ---------------------------------------------------------------------
 Center     Atomic      Atomic             Coordinates (Angstroms)
 Number     Number       Type             X           Y           Z
 ---------------------------------------------------------------------
      1          7           0       -9.601864   -7.384707   -4.769788
      2          1           0       -9.952239   -7.707341   -5.675251
      3          1           0      -10.283861   -7.636353   -4.049085
      4          1           0       -8.648812   -7.829469   -4.582143
      5          6           0       -9.249352   -5.912239   -4.751104
      6          1           0       -9.639535   -5.457365   -5.662776
      7          6           0       -7.699942   -5.938470   -4.751565
      8          6           0       -9.806283   -5.229892   -3.496415
      9          1           0       -9.431718   -4.199212   -3.496327
     10          1           0       -9.361355   -5.711841   -2.614937
     11          8           0       -7.144307   -7.033000   -4.567810
     12          6           0      -11.342130   -5.206730   -3.375031
     13          1           0      -11.715360   -6.245468   -3.338853
     14          6           0      -11.731110   -4.542981   -2.047324
     15          1           0      -11.404397   -3.496731   -2.028956
     16          1           0      -11.275976   -5.054588   -1.192345
     17          1           0      -12.816499   -4.557409   -1.911702
     18          6           0      -12.008530   -4.500833   -4.562192
     19          1           0      -11.644625   -3.470562   -4.654828
     20          1           0      -11.828510   -5.008693   -5.517657
     21          1           0      -13.092588   -4.457772   -4.422243
     22          7           0       -7.105022   -4.768517   -4.924918
     23          1           0       -7.640099   -3.897921   -4.933727
     24          6           0       -5.680587   -4.505360   -4.711458
     25          1           0       -5.269773   -5.316547   -4.102599
     26          6           0       -5.686736   -3.168688   -3.940247
     27          6           0       -4.900383   -4.414787   -6.051334
     28          1           0       -5.290215   -3.538489   -6.587509
     29          8           0       -6.647208   -2.402100   -4.073357
     30          6           0       -3.396537   -4.220333   -5.812502
     31          1           0       -2.982389   -5.048894   -5.223622
     32          1           0       -3.157955   -3.286928   -5.297857
     33          1           0       -2.869526   -4.209670   -6.771276
     34          6           0       -5.147498   -5.663868   -6.906391
     35          1           0       -4.824593   -6.570220   -6.382284
     36          1           0       -4.582829   -5.593035   -7.841083
     37          1           0       -6.204241   -5.778882   -7.165931
     38          7           0       -4.631264   -2.932708   -3.148068
     39          1           0       -3.818523   -3.542127   -3.172927
     40          6           0       -4.372420   -1.647982   -2.507034
     41          1           0       -5.029316   -0.904338   -2.967619
     42          6           0       -2.898600   -1.342342   -2.799981
     43          6           0       -4.656476   -1.715579   -0.981655
     44          1           0       -4.043351   -2.535568   -0.585294
     45          8           0       -2.090536   -2.272744   -2.919529
     46          6           0       -4.256653   -0.423045   -0.258612
     47          1           0       -4.777446    0.446923   -0.679668
     48          1           0       -3.181151   -0.232491   -0.305019
     49          1           0       -4.535441   -0.486938    0.797861
     50          6           0       -6.132706   -2.046080   -0.733447
     51          1           0       -6.782843   -1.258851   -1.131855
     52          1           0       -6.418961   -2.989711   -1.206935
     53          1           0       -6.323599   -2.134675    0.341108
     54          7           0       -2.562567   -0.046952   -2.904148
     55          1           0       -3.232361    0.689325   -2.704340
     56          6           0       -1.180803    0.417122   -3.024070
     57          1           0       -0.639457   -0.233759   -3.712727
     58          6           0       -0.515040    0.361965   -1.640400
     59          6           0       -1.229169    1.855872   -3.543549
     60          1           0       -1.639622    1.863431   -4.557060
     61          1           0       -0.211564    2.256122   -3.574066
     62          8           0       -0.397887    1.380246   -0.930784
     63          8           0       -2.100952    2.637117   -2.738112
     64          1           0       -1.664839    2.659392   -1.863926
     65          7           0       -0.148824   -0.857844   -1.223051
     66          1           0       -0.228532   -1.655312   -1.848738
     67          6           0        0.434133   -1.100959    0.089563
     68          1           0       -0.060732   -0.439349    0.808590
     69          6           0        1.931733   -0.753304    0.045399
     70          6           0        0.225451   -2.576098    0.480284
     71          1           0        0.738332   -2.727753    1.441831
     72          8           0        2.808267   -1.628645   -0.007997
     73          6           0       -1.246146   -2.937607    0.625079
     74          1           0       -1.745119   -2.282866    1.347954
     75          1           0       -1.749508   -2.854607   -0.342284
     76          1           0       -1.334510   -3.972251    0.967692
     77          8           0        0.775486   -3.416711   -0.521156
     78          1           0        1.732407   -3.216456   -0.517882
     79          7           0        2.211402    0.564553    0.053077
     80          1           0        1.420456    1.203144   -0.000376
     81          6           0        3.563656    1.054308   -0.219890
     82          1           0        4.032400    0.312755   -0.876590
     83          6           0        4.381299    1.107710    1.086308
     84          6           0        3.539874    2.419396   -0.908001
     85          1           0        4.572766    2.661498   -1.181023
     86          1           0        3.244330    3.185053   -0.184730
     87          8           0        4.732667    2.177068    1.595395
     88          6           0        2.612092    2.489590   -2.136796
     89          1           0        2.821632    3.418616   -2.681818
     90          1           0        1.565716    2.524143   -1.829792
     91          6           0        2.738018    1.309680   -3.093256
     92          7           0        3.980660    1.097333   -3.607416
     93          1           0        4.742947    1.741658   -3.459356
     94          1           0        4.105073    0.350937   -4.277455
     95          8           0        1.790400    0.578130   -3.372372
     96          7           0        4.660778   -0.099498    1.617061
     97          1           0        4.367476   -0.946801    1.132096
     98          6           0        5.272949   -0.245302    2.931498
     99          1           0        4.905642    0.569159    3.566452
    100          6           0        6.803157   -0.106997    2.824675
    101          6           0        4.886593   -1.604959    3.540390
    102          1           0        5.394340   -1.672996    4.513541
    103          8           0        7.566782   -1.076298    2.977147
    104          6           0        3.385485   -1.748269    3.749587
    105          1           0        2.998614   -0.943466    4.383843
    106          1           0        2.860059   -1.729068    2.790080
    107          1           0        3.176589   -2.707731    4.230631
    108          8           0        5.307082   -2.652859    2.681246
    109          1           0        6.280774   -2.573450    2.655926
    110          7           0        7.235085    1.137803    2.564549
    111          1           0        6.528358    1.857813    2.412664
    112          6           0        8.652854    1.470623    2.400799
    113          1           0        9.135479    0.592076    1.959304
    114          6           0        9.264440    1.717947    3.796399
    115          6           0        8.807796    2.686729    1.499293
    116          1           0        9.866746    2.911845    1.351476
    117          1           0        8.343995    2.498505    0.526101
    118          1           0        8.348451    3.566007    1.958920
    119          8           0        9.560117    2.847432    4.186735
    120          7           0        9.394457    0.603974    4.554197
    121          1           0        9.082354   -0.278753    4.159578
    122          6           0        9.684885    0.685303    5.988126
    123          1           0        9.273144    1.641294    6.327891
    124          6           0       11.213767    0.725803    6.207820
    125          6           0        9.051155   -0.473414    6.757635
    126          1           0        9.626706   -1.383565    6.556638
    127          1           0        9.192617   -0.264763    7.825675
    128          8           0       11.846486   -0.227867    6.652818
    129          6           0        7.559028   -0.722317    6.474361
    130          1           0        7.467325   -1.098266    5.448240
    131          6           0        7.031165   -1.817053    7.409571
    132          1           0        7.064167   -1.488117    8.455831
    133          1           0        7.629105   -2.731744    7.327937
    134          1           0        5.990971   -2.071784    7.172860
    135          6           0        6.708133    0.549272    6.586260
    136          1           0        6.799949    0.999116    7.582993
    137          1           0        5.646766    0.320592    6.426941
    138          1           0        7.000313    1.304773    5.849151
    139          7           0       11.784401    1.904426    5.855659
    140          1           0       11.217913    2.632564    5.422980
    141          6           0       13.220546    2.080134    5.916538
    142          1           0       13.581523    1.649217    6.856223
    143          6           0       13.517864    3.567460    5.918175
    144          6           0       13.950959    1.381707    4.753332
    145          1           0       15.033011    1.513349    4.839582
    146          1           0       13.716122    0.315598    4.789233
    147          1           0       13.616526    1.790450    3.793943
    148          8           0       12.723059    4.442826    5.657176
    149          8           0       14.813911    3.810714    6.216556
    150          1           0       14.929291    4.778150    6.164139
 ---------------------------------------------------------------------

 SCF Done:  E(RB3LYP) =  -3455.83542279     A.U. after    1 cycles

 Alpha  occ. eigenvalues --  -19.27293 -19.22609 -19.22279 -19.20829 -19.20510
 Alpha  occ. eigenvalues --  -19.20187 -19.19816 -19.19197 -19.18376 -19.18069
 Alpha  occ. eigenvalues --  -19.17948 -19.17606 -19.16970 -19.15422 -19.13138
 Alpha  occ. eigenvalues --  -14.60286 -14.49640 -14.46022 -14.44856 -14.43538
 Alpha  occ. eigenvalues --  -14.43179 -14.42666 -14.41551 -14.41210 -14.39136
 Alpha  occ. eigenvalues --  -14.37076 -10.43857 -10.40974 -10.39323 -10.37671
 Alpha  occ. eigenvalues --  -10.36725 -10.36198 -10.35904 -10.34858 -10.34831
 Alpha  occ. eigenvalues --  -10.34519 -10.34351 -10.33898 -10.32706 -10.32192
 Alpha  occ. eigenvalues --  -10.32180 -10.30437 -10.30195 -10.30169 -10.30167
 Alpha  occ. eigenvalues --  -10.30058 -10.29709 -10.29571 -10.29521 -10.28614
 Alpha  occ. eigenvalues --  -10.28474 -10.28357 -10.28050 -10.27843 -10.26566
 Alpha  occ. eigenvalues --  -10.26233 -10.26185 -10.26139 -10.25981 -10.25571
 Alpha  occ. eigenvalues --  -10.25465 -10.25398 -10.23707 -10.22251 -10.22202
 Alpha  occ. eigenvalues --  -10.21713 -10.20773 -10.20557 -10.20512 -10.20117
 Alpha  occ. eigenvalues --   -1.19739  -1.14582  -1.14026  -1.13556  -1.12825
 Alpha  occ. eigenvalues --   -1.11977  -1.11193  -1.10049  -1.09962  -1.09185
 Alpha  occ. eigenvalues --   -1.07982  -1.07192  -1.07105  -1.06575  -1.05476
 Alpha  occ. eigenvalues --   -1.05064  -1.04479  -1.02723  -1.01245  -1.00365
 Alpha  occ. eigenvalues --   -0.99512  -0.98430  -0.97453  -0.97293  -0.95741
 Alpha  occ. eigenvalues --   -0.95708  -0.94084  -0.91705  -0.89423  -0.88761
 Alpha  occ. eigenvalues --   -0.86984  -0.85031  -0.84183  -0.83379  -0.83222
 Alpha  occ. eigenvalues --   -0.82725  -0.81372  -0.80881  -0.80280  -0.79900
 Alpha  occ. eigenvalues --   -0.79767  -0.78761  -0.77394  -0.77299  -0.77001
 Alpha  occ. eigenvalues --   -0.76433  -0.75698  -0.74419  -0.73457  -0.72234
 Alpha  occ. eigenvalues --   -0.71516  -0.71310  -0.70454  -0.69961  -0.69865
 Alpha  occ. eigenvalues --   -0.69634  -0.69431  -0.68229  -0.67988  -0.67727
 Alpha  occ. eigenvalues --   -0.67415  -0.66828  -0.66125  -0.65647  -0.65309
 Alpha  occ. eigenvalues --   -0.65155  -0.64789  -0.63931  -0.63744  -0.63151
 Alpha  occ. eigenvalues --   -0.62953  -0.62186  -0.61679  -0.60906  -0.60204
 Alpha  occ. eigenvalues --   -0.59990  -0.59786  -0.59355  -0.59144  -0.58897
 Alpha  occ. eigenvalues --   -0.58564  -0.58128  -0.57899  -0.57484  -0.57313
 Alpha  occ. eigenvalues --   -0.56913  -0.56278  -0.55991  -0.55901  -0.55591
 Alpha  occ. eigenvalues --   -0.55423  -0.55285  -0.54463  -0.54333  -0.54046
 Alpha  occ. eigenvalues --   -0.53795  -0.53583  -0.53056  -0.52989  -0.52639
 Alpha  occ. eigenvalues --   -0.52063  -0.51956  -0.51884  -0.51803  -0.51366
 Alpha  occ. eigenvalues --   -0.51190  -0.51181  -0.50487  -0.50177  -0.50104
 Alpha  occ. eigenvalues --   -0.50043  -0.49929  -0.49634  -0.49442  -0.49199
 Alpha  occ. eigenvalues --   -0.49079  -0.48966  -0.48793  -0.48665  -0.48480
 Alpha  occ. eigenvalues --   -0.48236  -0.48057  -0.47801  -0.47637  -0.47302
 Alpha  occ. eigenvalues --   -0.47152  -0.47060  -0.47013  -0.46710  -0.46585
 Alpha  occ. eigenvalues --   -0.46164  -0.46087  -0.46079  -0.46008  -0.45616
 Alpha  occ. eigenvalues --   -0.45493  -0.45462  -0.45222  -0.45004  -0.44752
 Alpha  occ. eigenvalues --   -0.44588  -0.44396  -0.44167  -0.44086  -0.43950
 Alpha  occ. eigenvalues --   -0.43357  -0.43205  -0.43188  -0.43054  -0.42997
 Alpha  occ. eigenvalues --   -0.42926  -0.42810  -0.42731  -0.42402  -0.42257
 Alpha  occ. eigenvalues --   -0.42001  -0.41914  -0.41805  -0.41650  -0.41630
 Alpha  occ. eigenvalues --   -0.41544  -0.41248  -0.41080  -0.40819  -0.40443
 Alpha  occ. eigenvalues --   -0.40346  -0.40222  -0.40080  -0.39303  -0.39161
 Alpha  occ. eigenvalues --   -0.39022  -0.38480  -0.37753  -0.37387  -0.36798
 Alpha  occ. eigenvalues --   -0.36455  -0.35883  -0.35500  -0.35422  -0.35162
 Alpha  occ. eigenvalues --   -0.35083  -0.34738  -0.34720  -0.34319  -0.34100
 Alpha  occ. eigenvalues --   -0.33715  -0.33542  -0.32966  -0.32418  -0.32309
 Alpha  occ. eigenvalues --   -0.31916  -0.31360  -0.31205  -0.30695  -0.30657
 Alpha  occ. eigenvalues --   -0.30174  -0.29462  -0.28332  -0.27069  -0.26009
 Alpha virt. eigenvalues --   -0.12411  -0.11818  -0.08269  -0.07423  -0.07166
 Alpha virt. eigenvalues --   -0.06341  -0.05041  -0.04728  -0.04420  -0.04217
 Alpha virt. eigenvalues --   -0.03379  -0.02707  -0.01900  -0.01667  -0.01395

 Mulliken charges:
               1
     1  N   -0.758399
     2  H    0.416156
     3  H    0.412563
     4  H    0.434325
     5  C   -0.119134
     6  H    0.217711
     7  C    0.653177
     8  C   -0.300037
     9  H    0.198648
    10  H    0.173398
    11  O   -0.542661
    12  C   -0.099396
    13  H    0.114258
    14  C   -0.447955
    15  H    0.167764
    16  H    0.159294
    17  H    0.175800
    18  C   -0.454626
    19  H    0.170100
    20  H    0.130587
    21  H    0.185154
    22  N   -0.594803
    23  H    0.372221
    24  C   -0.075706
    25  H    0.186468
    26  C    0.629493
    27  C   -0.075886
    28  H    0.148908
    29  O   -0.553395
    30  C   -0.478432
    31  H    0.156218
    32  H    0.172581
    33  H    0.170801
    34  C   -0.446708
    35  H    0.164884
    36  H    0.168789
    37  H    0.130755
    38  N   -0.602397
    39  H    0.366354
    40  C   -0.067855
    41  H    0.182557
    42  C    0.641851
    43  C   -0.074733
    44  H    0.151390
    45  O   -0.561771
    46  C   -0.480334
    47  H    0.150579
    48  H    0.168078
    49  H    0.164813
    50  C   -0.443867
    51  H    0.157205
    52  H    0.137493
    53  H    0.156125
    54  N   -0.599057
    55  H    0.357785
    56  C   -0.077220
    57  H    0.205415
    58  C    0.682025
    59  C   -0.064713
    60  H    0.157111
    61  H    0.169190
    62  O   -0.596296
    63  O   -0.641376
    64  H    0.419611
    65  N   -0.594909
    66  H    0.385034
    67  C   -0.081272
    68  H    0.176438
    69  C    0.660296
    70  C    0.108817
    71  H    0.147372
    72  O   -0.567580
    73  C   -0.471434
    74  H    0.140820
    75  H    0.166508
    76  H    0.167893
    77  O   -0.644767
    78  H    0.425977
    79  N   -0.611677
    80  H    0.379359
    81  C   -0.068686
    82  H    0.189222
    83  C    0.636987
    84  C   -0.298394
    85  H    0.154411
    86  H    0.189711
    87  O   -0.550146
    88  C   -0.398612
    89  H    0.171628
    90  H    0.192769
    91  C    0.600649
    92  N   -0.732680
    93  H    0.347400
    94  H    0.352738
    95  O   -0.529047
    96  N   -0.618507
    97  H    0.391395
    98  C   -0.071685
    99  H    0.180767
   100  C    0.650386
   101  C    0.098708
   102  H    0.153363
   103  O   -0.575858
   104  C   -0.462948
   105  H    0.143226
   106  H    0.153331
   107  H    0.167999
   108  O   -0.645322
   109  H    0.420450
   110  N   -0.609205
   111  H    0.384183
   112  C   -0.062220
   113  H    0.178860
   114  C    0.627551
   115  C   -0.458800
   116  H    0.173859
   117  H    0.142308
   118  H    0.180695
   119  O   -0.532577
   120  N   -0.616291
   121  H    0.372762
   122  C   -0.071622
   123  H    0.175921
   124  C    0.632437
   125  C   -0.283743
   126  H    0.166593
   127  H    0.149277
   128  O   -0.536164
   129  C   -0.095334
   130  H    0.138902
   131  C   -0.445142
   132  H    0.143811
   133  H    0.149098
   134  H    0.134875
   135  C   -0.461706
   136  H    0.147650
   137  H    0.130700
   138  H    0.152477
   139  N   -0.631559
   140  H    0.384469
   141  C   -0.018100
   142  H    0.194589
   143  C    0.575168
   144  C   -0.454379
   145  H    0.166111
   146  H    0.187517
   147  H    0.148543
   148  O   -0.459078
   149  O   -0.567647
   150  H    0.414204
 Sum of Mulliken charges =   1.00000

 Dipole moment (field-independent basis, Debye):
    X=            -38.4642    Y=            -22.1331    Z=            -23.3334  Tot=             50.1380
 Quadrupole moment (field-independent basis, Debye-Ang):
   XX=            -26.6711   YY=           -268.3355   ZZ=           -319.7354
   XY=            281.3508   XZ=            125.5957   YZ=            116.1994

 Normal termination of Gaussian 16 at Sun Jul 24 19:01:35 2022.
