 Gaussian 16, Revision C.01,
 Gaussian 16:  ES64L-G16RevC.01  3-Jul-2019

 ----------------------------------------------------------------------
 # B3LYP/6-31G* empiricaldispersion=gd3bj guess=read geom=check nosymm
 integral(ultrafinegrid)
 ----------------------------------------------------------------------

 ------------------------------------------------------
 Candidate Structure: Conf:727 Charge calc in gas phase
 ------------------------------------------------------
 Structure from the checkpoint file:  "conf-727.chk"
 Charge =  1 Multiplicity = 1

                          Input orientation:
 ---------------------------------------------------------------------
 Center     Atomic      Atomic             Coordinates (Angstroms)
 Number     Number       Type             X           Y           Z
 ---------------------------------------------------------------------
      1          7           0       -8.642501   -7.216357   -4.591665
      2          1           0       -8.973887   -7.699649   -5.430445
      3          1           0       -9.285967   -7.422614   -3.822608
      4          1           0       -7.649577   -7.538806   -4.370430
      5          6           0       -8.435617   -5.730306   -4.796384
      6          1           0       -8.889496   -5.451854   -5.748647
      7          6           0       -6.891858   -5.609941   -4.849448
      8          6           0       -9.029053   -4.928301   -3.632227
      9          1           0       -8.759399   -3.877690   -3.793835
     10          1           0       -8.518395   -5.231637   -2.707889
     11          8           0       -6.226036   -6.605912   -4.526622
     12          6           0      -10.556524   -5.034211   -3.458858
     13          1           0      -10.823367   -6.087253   -3.260113
     14          6           0      -10.979555   -4.223552   -2.226551
     15          1           0      -10.758907   -3.159449   -2.370524
     16          1           0      -10.456364   -4.558660   -1.324429
     17          1           0      -12.054680   -4.321727   -2.050275
     18          6           0      -11.316748   -4.576613   -4.709589
     19          1           0      -11.060129   -3.540840   -4.962178
     20          1           0      -11.108540   -5.199099   -5.588464
     21          1           0      -12.396204   -4.617571   -4.537381
     22          7           0       -6.418655   -4.428134   -5.215621
     23          1           0       -7.036961   -3.624063   -5.336270
     24          6           0       -5.021187   -4.007143   -5.099897
     25          1           0       -4.519173   -4.677958   -4.395936
     26          6           0       -5.133524   -2.576713   -4.533440
     27          6           0       -4.288707   -4.047609   -6.468673
     28          1           0       -4.777592   -3.303581   -7.112632
     29          8           0       -6.161653   -1.924759   -4.744041
     30          6           0       -2.806231   -3.676839   -6.322237
     31          1           0       -2.295967   -4.363945   -5.634888
     32          1           0       -2.651141   -2.657661   -5.960735
     33          1           0       -2.307515   -3.760277   -7.292428
     34          6           0       -4.431195   -5.429527   -7.118544
     35          1           0       -4.005772   -6.211347   -6.479666
     36          1           0       -3.901038   -5.447510   -8.075651
     37          1           0       -5.477412   -5.682429   -7.315038
     38          7           0       -4.087117   -2.131949   -3.821321
     39          1           0       -3.224883   -2.666478   -3.777394
     40          6           0       -3.950161   -0.751689   -3.370888
     41          1           0       -4.680570   -0.148156   -3.917812
     42          6           0       -2.515852   -0.351730   -3.728602
     43          6           0       -4.211208   -0.618866   -1.844456
     44          1           0       -3.460581   -1.244965   -1.342337
     45          8           0       -1.617130   -1.195826   -3.736388
     46          6           0       -4.043974    0.827766   -1.358826
     47          1           0       -4.706431    1.507201   -1.912237
     48          1           0       -3.017748    1.193507   -1.449176
     49          1           0       -4.322374    0.898779   -0.302839
     50          6           0       -5.606673   -1.150223   -1.496762
     51          1           0       -6.384077   -0.573349   -2.010251
     52          1           0       -5.721240   -2.200071   -1.781985
     53          1           0       -5.779222   -1.072304   -0.418505
     54          7           0       -2.299755    0.949734   -4.025824
     55          1           0       -3.021307    1.641728   -3.858713
     56          6           0       -0.942647    1.466474   -4.136586
     57          1           0       -0.386467    0.846641   -4.845115
     58          6           0       -0.271140    1.448656   -2.757997
     59          6           0       -1.005206    2.918932   -4.633907
     60          1           0       -1.421773    2.948722   -5.644248
     61          1           0        0.013469    3.329073   -4.666576
     62          8           0       -0.674384    2.226569   -1.866021
     63          8           0       -1.859489    3.698474   -3.804823
     64          1           0       -1.594153    3.478961   -2.882288
     65          7           0        0.745256    0.607011   -2.579002
     66          1           0        1.047517   -0.030616   -3.309009
     67          6           0        1.509551    0.537667   -1.336305
     68          1           0        0.821158    0.700084   -0.501414
     69          6           0        2.566993    1.656599   -1.358924
     70          6           0        2.170397   -0.849966   -1.247079
     71          1           0        2.872435   -0.826086   -0.403189
     72          8           0        3.757436    1.415811   -1.615596
     73          6           0        1.147377   -1.958226   -1.046727
     74          1           0        0.636001   -1.838442   -0.085476
     75          1           0        0.396456   -1.954771   -1.844410
     76          1           0        1.656044   -2.925785   -1.053579
     77          8           0        2.860969   -1.099155   -2.468511
     78          1           0        3.589356   -0.447878   -2.479105
     79          7           0        2.081927    2.883925   -1.115232
     80          1           0        1.090377    2.961263   -0.909371
     81          6           0        2.902541    4.103352   -1.043890
     82          1           0        3.675626    4.013463   -1.813767
     83          6           0        3.536405    4.074764    0.365179
     84          6           0        2.037510    5.334641   -1.283192
     85          1           0        2.673612    6.223692   -1.286154
     86          1           0        1.352080    5.454058   -0.436964
     87          8           0        2.980168    4.567225    1.338905
     88          6           0        1.269017    5.271101   -2.605965
     89          1           0        0.526672    4.467807   -2.591025
     90          1           0        1.963638    5.043919   -3.427614
     91          6           0        0.600149    6.605688   -2.938839
     92          7           0       -0.592442    6.502928   -3.592203
     93          1           0       -1.087716    5.625502   -3.714596
     94          1           0       -1.070202    7.364586   -3.817695
     95          8           0        1.126391    7.676497   -2.671201
     96          7           0        4.665017    3.327089    0.413644
     97          1           0        5.116406    3.021500   -0.441460
     98          6           0        5.256501    2.811413    1.627917
     99          1           0        5.101360    3.532731    2.436061
    100          6           0        6.749294    2.608046    1.336128
    101          6           0        4.622045    1.444328    2.025460
    102          1           0        5.162842    1.078151    2.906394
    103          8           0        7.174606    2.565295    0.183586
    104          6           0        3.136937    1.548572    2.370130
    105          1           0        2.956762    2.272104    3.170775
    106          1           0        2.552648    1.869156    1.502862
    107          1           0        2.776317    0.564543    2.686070
    108          8           0        4.855552    0.468347    1.017587
    109          1           0        4.616493    0.850361    0.152373
    110          7           0        7.531400    2.442579    2.424431
    111          1           0        7.158938    2.448008    3.367855
    112          6           0        8.932588    2.087941    2.319679
    113          1           0        9.042613    1.342466    1.523739
    114          6           0        9.334138    1.487065    3.668679
    115          6           0        9.810411    3.308979    1.990200
    116          1           0       10.862508    3.025817    1.878693
    117          1           0        9.465994    3.748023    1.051344
    118          1           0        9.733848    4.055774    2.786875
    119          8           0        8.637161    1.659909    4.675710
    120          7           0       10.496398    0.800320    3.685190
    121          1           0       11.065270    0.771706    2.849071
    122          6           0       11.085386    0.288616    4.927672
    123          1           0       10.242097   -0.020494    5.549322
    124          6           0       11.830127    1.439112    5.635379
    125          6           0       11.992549   -0.903287    4.638074
    126          1           0       11.389732   -1.660747    4.118802
    127          1           0       12.788263   -0.585113    3.952755
    128          8           0       13.046032    1.580388    5.568608
    129          6           0       12.644178   -1.528396    5.886764
    130          1           0       13.370358   -0.803199    6.269098
    131          6           0       11.628650   -1.819756    7.000238
    132          1           0       10.804086   -2.446421    6.634582
    133          1           0       11.202106   -0.900896    7.418274
    134          1           0       12.110447   -2.356094    7.825183
    135          6           0       13.399830   -2.800532    5.485844
    136          1           0       12.708400   -3.569885    5.117888
    137          1           0       13.941328   -3.220335    6.340674
    138          1           0       14.129462   -2.598111    4.693112
    139          7           0       10.998376    2.284037    6.300066
    140          1           0        9.998190    2.132161    6.212198
    141          6           0       11.483728    3.438525    7.024704
    142          1           0       12.562561    3.472508    6.828730
    143          6           0       11.340876    3.272255    8.538260
    144          6           0       10.827222    4.736324    6.550563
    145          1           0       11.191882    5.581821    7.137088
    146          1           0       11.057078    4.900565    5.494014
    147          1           0        9.738711    4.687627    6.666925
    148          8           0       11.274677    4.191841    9.322446
    149          8           0       11.335647    1.975456    8.924336
    150          1           0       11.294653    1.990139    9.899298
 ---------------------------------------------------------------------

 SCF Done:  E(RB3LYP) =  -3455.81010104     A.U. after    1 cycles

 Alpha  occ. eigenvalues --  -19.27713 -19.23550 -19.22952 -19.22886 -19.22060
 Alpha  occ. eigenvalues --  -19.22008 -19.20240 -19.19963 -19.17914 -19.17798
 Alpha  occ. eigenvalues --  -19.17084 -19.15885 -19.15763 -19.14882 -19.14383
 Alpha  occ. eigenvalues --  -14.60688 -14.50130 -14.46731 -14.46231 -14.45877
 Alpha  occ. eigenvalues --  -14.43613 -14.42016 -14.40230 -14.39924 -14.39057
 Alpha  occ. eigenvalues --  -14.38745 -10.44302 -10.41370 -10.39945 -10.38814
 Alpha  occ. eigenvalues --  -10.38622 -10.36625 -10.35121 -10.35082 -10.34547
 Alpha  occ. eigenvalues --  -10.34264 -10.33199 -10.33079 -10.33065 -10.33029
 Alpha  occ. eigenvalues --  -10.32989 -10.32828 -10.32375 -10.31910 -10.30933
 Alpha  occ. eigenvalues --  -10.30439 -10.30132 -10.29821 -10.28995 -10.28904
 Alpha  occ. eigenvalues --  -10.28677 -10.28439 -10.28374 -10.27513 -10.27278
 Alpha  occ. eigenvalues --  -10.27121 -10.27056 -10.26865 -10.25894 -10.25683
 Alpha  occ. eigenvalues --  -10.24299 -10.23748 -10.23570 -10.22772 -10.22174
 Alpha  occ. eigenvalues --  -10.21677 -10.21578 -10.21545 -10.20143 -10.19963
 Alpha  occ. eigenvalues --   -1.20160  -1.15198  -1.14582  -1.14343  -1.13794
 Alpha  occ. eigenvalues --   -1.13426  -1.11691  -1.10574  -1.09726  -1.08365
 Alpha  occ. eigenvalues --   -1.07917  -1.07408  -1.07054  -1.06742  -1.06298
 Alpha  occ. eigenvalues --   -1.05457  -1.04684  -1.03448  -1.02574  -1.01992
 Alpha  occ. eigenvalues --   -0.99950  -0.98272  -0.97127  -0.96591  -0.96107
 Alpha  occ. eigenvalues --   -0.96007  -0.93518  -0.92225  -0.89991  -0.89287
 Alpha  occ. eigenvalues --   -0.87089  -0.85326  -0.85005  -0.83914  -0.83579
 Alpha  occ. eigenvalues --   -0.82985  -0.81419  -0.81339  -0.80544  -0.80391
 Alpha  occ. eigenvalues --   -0.79472  -0.79160  -0.77972  -0.77557  -0.77191
 Alpha  occ. eigenvalues --   -0.76829  -0.75065  -0.74813  -0.73926  -0.73618
 Alpha  occ. eigenvalues --   -0.72615  -0.71317  -0.70946  -0.70770  -0.70649
 Alpha  occ. eigenvalues --   -0.70155  -0.69359  -0.68760  -0.68541  -0.68526
 Alpha  occ. eigenvalues --   -0.67890  -0.67431  -0.67190  -0.66139  -0.65594
 Alpha  occ. eigenvalues --   -0.65434  -0.64754  -0.64193  -0.63420  -0.63001
 Alpha  occ. eigenvalues --   -0.62819  -0.62342  -0.62034  -0.61760  -0.61111
 Alpha  occ. eigenvalues --   -0.60481  -0.60352  -0.59904  -0.59724  -0.59369
 Alpha  occ. eigenvalues --   -0.58814  -0.58512  -0.58230  -0.58056  -0.57760
 Alpha  occ. eigenvalues --   -0.57005  -0.56711  -0.56590  -0.55937  -0.55787
 Alpha  occ. eigenvalues --   -0.55549  -0.55305  -0.55100  -0.54299  -0.54210
 Alpha  occ. eigenvalues --   -0.54065  -0.53874  -0.53474  -0.52792  -0.52603
 Alpha  occ. eigenvalues --   -0.52387  -0.52366  -0.52214  -0.52150  -0.51829
 Alpha  occ. eigenvalues --   -0.51747  -0.51447  -0.51212  -0.50799  -0.50777
 Alpha  occ. eigenvalues --   -0.50735  -0.50476  -0.50340  -0.49794  -0.49554
 Alpha  occ. eigenvalues --   -0.49516  -0.49427  -0.49333  -0.49172  -0.48807
 Alpha  occ. eigenvalues --   -0.48698  -0.48674  -0.48086  -0.47842  -0.47743
 Alpha  occ. eigenvalues --   -0.47619  -0.47442  -0.47158  -0.46746  -0.46591
 Alpha  occ. eigenvalues --   -0.46477  -0.46418  -0.46176  -0.45945  -0.45929
 Alpha  occ. eigenvalues --   -0.45806  -0.45581  -0.45147  -0.44909  -0.44737
 Alpha  occ. eigenvalues --   -0.44671  -0.44545  -0.44479  -0.44324  -0.44132
 Alpha  occ. eigenvalues --   -0.43887  -0.43782  -0.43585  -0.43477  -0.43457
 Alpha  occ. eigenvalues --   -0.43203  -0.43055  -0.42869  -0.42378  -0.42285
 Alpha  occ. eigenvalues --   -0.42080  -0.42067  -0.42017  -0.41968  -0.41670
 Alpha  occ. eigenvalues --   -0.41606  -0.41060  -0.40921  -0.40711  -0.40657
 Alpha  occ. eigenvalues --   -0.40034  -0.40026  -0.39744  -0.39657  -0.39563
 Alpha  occ. eigenvalues --   -0.39414  -0.39291  -0.38841  -0.38056  -0.37302
 Alpha  occ. eigenvalues --   -0.36855  -0.36614  -0.36477  -0.36234  -0.36015
 Alpha  occ. eigenvalues --   -0.35574  -0.35226  -0.35156  -0.34945  -0.34517
 Alpha  occ. eigenvalues --   -0.34293  -0.33842  -0.32742  -0.32267  -0.31972
 Alpha  occ. eigenvalues --   -0.31661  -0.31493  -0.30398  -0.30026  -0.29909
 Alpha  occ. eigenvalues --   -0.28989  -0.28480  -0.28259  -0.27905  -0.27788
 Alpha virt. eigenvalues --   -0.12848  -0.12168  -0.09001  -0.08682  -0.07689
 Alpha virt. eigenvalues --   -0.07462  -0.05939  -0.04841  -0.03863  -0.03094
 Alpha virt. eigenvalues --   -0.02485  -0.02358  -0.02061  -0.01791  -0.01605

 Mulliken charges:
               1
     1  N   -0.757929
     2  H    0.416881
     3  H    0.413180
     4  H    0.434335
     5  C   -0.119518
     6  H    0.218086
     7  C    0.653323
     8  C   -0.299687
     9  H    0.197868
    10  H    0.173729
    11  O   -0.541892
    12  C   -0.099982
    13  H    0.114867
    14  C   -0.447993
    15  H    0.167580
    16  H    0.159595
    17  H    0.176701
    18  C   -0.454720
    19  H    0.169917
    20  H    0.130682
    21  H    0.186091
    22  N   -0.595144
    23  H    0.372239
    24  C   -0.075088
    25  H    0.186039
    26  C    0.629983
    27  C   -0.075924
    28  H    0.149649
    29  O   -0.551385
    30  C   -0.477596
    31  H    0.155415
    32  H    0.168320
    33  H    0.172774
    34  C   -0.446901
    35  H    0.165170
    36  H    0.169970
    37  H    0.131833
    38  N   -0.603118
    39  H    0.364104
    40  C   -0.066721
    41  H    0.183592
    42  C    0.636123
    43  C   -0.071082
    44  H    0.145607
    45  O   -0.546436
    46  C   -0.492169
    47  H    0.145563
    48  H    0.178711
    49  H    0.168733
    50  C   -0.444947
    51  H    0.158559
    52  H    0.135724
    53  H    0.159213
    54  N   -0.592245
    55  H    0.357661
    56  C   -0.085620
    57  H    0.180705
    58  C    0.668144
    59  C   -0.061673
    60  H    0.177028
    61  H    0.164233
    62  O   -0.590690
    63  O   -0.648712
    64  H    0.440665
    65  N   -0.574559
    66  H    0.369838
    67  C   -0.084953
    68  H    0.186628
    69  C    0.639357
    70  C    0.093598
    71  H    0.170020
    72  O   -0.564955
    73  C   -0.467101
    74  H    0.145697
    75  H    0.163764
    76  H    0.174641
    77  O   -0.648307
    78  H    0.423046
    79  N   -0.601988
    80  H    0.376477
    81  C   -0.063446
    82  H    0.171810
    83  C    0.632096
    84  C   -0.293276
    85  H    0.199034
    86  H    0.175597
    87  O   -0.527981
    88  C   -0.380752
    89  H    0.124869
    90  H    0.166442
    91  C    0.603347
    92  N   -0.789589
    93  H    0.368518
    94  H    0.337828
    95  O   -0.504170
    96  N   -0.614002
    97  H    0.364991
    98  C   -0.099522
    99  H    0.180278
   100  C    0.655191
   101  C    0.144966
   102  H    0.141939
   103  O   -0.542540
   104  C   -0.455895
   105  H    0.163557
   106  H    0.135558
   107  H    0.149008
   108  O   -0.658696
   109  H    0.424130
   110  N   -0.624203
   111  H    0.354580
   112  C   -0.035531
   113  H    0.182986
   114  C    0.629315
   115  C   -0.450879
   116  H    0.147672
   117  H    0.196123
   118  H    0.163784
   119  O   -0.559312
   120  N   -0.609069
   121  H    0.341454
   122  C   -0.069457
   123  H    0.183134
   124  C    0.631830
   125  C   -0.272941
   126  H    0.136400
   127  H    0.147213
   128  O   -0.524760
   129  C   -0.080258
   130  H    0.167745
   131  C   -0.461540
   132  H    0.135732
   133  H    0.155088
   134  H    0.147715
   135  C   -0.446684
   136  H    0.135742
   137  H    0.146868
   138  H    0.144587
   139  N   -0.606749
   140  H    0.364007
   141  C   -0.062550
   142  H    0.217893
   143  C    0.592091
   144  C   -0.448879
   145  H    0.185559
   146  H    0.156050
   147  H    0.153368
   148  O   -0.459947
   149  O   -0.559742
   150  H    0.413651
 Sum of Mulliken charges =   1.00000

 Dipole moment (field-independent basis, Debye):
    X=            -37.1589    Y=            -28.7437    Z=            -21.8290  Tot=             51.8024
 Quadrupole moment (field-independent basis, Debye-Ang):
   XX=            -84.6497   YY=           -304.6044   ZZ=           -302.2295
   XY=            199.5402   XZ=            167.8199   YZ=             96.6249

 Normal termination of Gaussian 16 at Sun Jul 24 19:01:01 2022.
