 Gaussian 16, Revision C.01,
 Gaussian 16:  ES64L-G16RevC.01  3-Jul-2019

 ----------------------------------------------------------------------
 # B3LYP/6-31G* empiricaldispersion=gd3bj guess=read geom=check nosymm
 integral(ultrafinegrid)
 ----------------------------------------------------------------------

 ------------------------------------------------------
 Candidate Structure: Conf:745 Charge calc in gas phase
 ------------------------------------------------------
 Structure from the checkpoint file:  "conf-745.chk"
 Charge =  1 Multiplicity = 1

                          Input orientation:
 ---------------------------------------------------------------------
 Center     Atomic      Atomic             Coordinates (Angstroms)
 Number     Number       Type             X           Y           Z
 ---------------------------------------------------------------------
      1          7           0       -8.058748   -2.452354   -8.369284
      2          1           0       -7.803524   -3.061614   -9.151016
      3          1           0       -8.376706   -1.554027   -8.743260
      4          1           0       -8.824858   -2.922454   -7.794171
      5          6           0       -6.955546   -2.299664   -7.337648
      6          1           0       -6.044798   -2.730264   -7.756444
      7          6           0       -7.484428   -3.174694   -6.168057
      8          6           0       -6.759640   -0.809324   -7.010600
      9          1           0       -7.720218   -0.402016   -6.666394
     10          1           0       -6.504202   -0.300677   -7.951392
     11          8           0       -8.658206   -3.572828   -6.230605
     12          6           0       -5.671361   -0.483343   -5.965025
     13          1           0       -5.986481   -0.892525   -4.999982
     14          6           0       -4.297687   -1.071701   -6.320291
     15          1           0       -3.894548   -0.609513   -7.229682
     16          1           0       -4.315653   -2.156802   -6.490003
     17          1           0       -3.589175   -0.908901   -5.502862
     18          6           0       -5.577982    1.039418   -5.803458
     19          1           0       -5.257123    1.518652   -6.736410
     20          1           0       -6.540296    1.473665   -5.510030
     21          1           0       -4.846149    1.291720   -5.030398
     22          7           0       -6.615837   -3.448832   -5.204905
     23          1           0       -5.730107   -2.951984   -5.170938
     24          6           0       -6.915701   -4.143736   -3.953345
     25          1           0       -8.002109   -4.237127   -3.863509
     26          6           0       -6.344669   -3.223935   -2.861199
     27          6           0       -6.262799   -5.558098   -3.963277
     28          1           0       -5.186020   -5.402965   -4.113261
     29          8           0       -5.530263   -2.344654   -3.174125
     30          6           0       -6.446466   -6.310688   -2.638403
     31          1           0       -7.504577   -6.352210   -2.342503
     32          1           0       -5.847991   -5.866839   -1.840024
     33          1           0       -6.112624   -7.345536   -2.759753
     34          6           0       -6.819955   -6.374968   -5.135936
     35          1           0       -7.899634   -6.531901   -5.028147
     36          1           0       -6.338080   -7.356664   -5.168584
     37          1           0       -6.642858   -5.887094   -6.099273
     38          7           0       -6.743324   -3.420993   -1.594137
     39          1           0       -7.307831   -4.236376   -1.397851
     40          6           0       -5.962799   -2.866305   -0.482608
     41          1           0       -6.130596   -1.783453   -0.450789
     42          6           0       -4.475381   -3.158529   -0.778759
     43          6           0       -6.408844   -3.496170    0.851060
     44          1           0       -6.247814   -4.579629    0.758355
     45          8           0       -4.120767   -4.263171   -1.179265
     46          6           0       -5.539062   -2.981362    2.005492
     47          1           0       -5.622977   -1.892128    2.106848
     48          1           0       -4.482389   -3.227096    1.867661
     49          1           0       -5.866804   -3.426734    2.949463
     50          6           0       -7.892878   -3.224078    1.131176
     51          1           0       -8.077270   -2.147465    1.227086
     52          1           0       -8.554130   -3.603912    0.344401
     53          1           0       -8.193562   -3.699965    2.069678
     54          7           0       -3.645426   -2.107355   -0.603147
     55          1           0       -3.957237   -1.270569   -0.123100
     56          6           0       -2.234185   -2.132684   -0.926282
     57          1           0       -1.918633   -3.176182   -1.000855
     58          6           0       -1.487000   -1.374605    0.172270
     59          6           0       -1.997034   -1.423666   -2.285990
     60          1           0       -0.931762   -1.454721   -2.536267
     61          1           0       -2.282497   -0.365153   -2.167264
     62          8           0       -2.072483   -0.566668    0.889192
     63          8           0       -2.688454   -2.040509   -3.346523
     64          1           0       -3.635979   -2.073474   -3.117519
     65          7           0       -0.156177   -1.630439    0.236817
     66          1           0        0.284065   -2.122933   -0.537690
     67          6           0        0.767067   -0.734269    0.915361
     68          1           0        0.263549    0.224057    1.083644
     69          6           0        1.964033   -0.553424   -0.033151
     70          6           0        1.233158   -1.315074    2.274727
     71          1           0        1.967033   -0.625795    2.706607
     72          8           0        2.052696   -1.240551   -1.059567
     73          6           0        0.076840   -1.501225    3.251098
     74          1           0       -0.446694   -0.558275    3.435370
     75          1           0       -0.655494   -2.211872    2.851916
     76          1           0        0.459479   -1.891115    4.198449
     77          8           0        1.953039   -2.520900    2.059011
     78          1           0        1.311519   -3.181027    1.748106
     79          7           0        2.851479    0.377979    0.343515
     80          1           0        2.765780    0.820217    1.256551
     81          6           0        4.184668    0.548088   -0.217574
     82          1           0        4.481451   -0.384133   -0.707210
     83          6           0        5.098153    0.843359    0.979007
     84          6           0        4.249313    1.721472   -1.218639
     85          1           0        5.296136    1.946928   -1.450216
     86          1           0        3.825639    2.605404   -0.728113
     87          8           0        4.621242    1.267583    2.037968
     88          6           0        3.514662    1.427966   -2.534829
     89          1           0        3.457480    2.348932   -3.122025
     90          1           0        2.495675    1.080433   -2.339712
     91          6           0        4.314932    0.421467   -3.362902
     92          7           0        3.814668   -0.847029   -3.378970
     93          1           0        3.122273   -1.130025   -2.690558
     94          1           0        4.395523   -1.557763   -3.804128
     95          8           0        5.342868    0.751965   -3.939994
     96          7           0        6.412600    0.655407    0.776806
     97          1           0        6.784628    0.387567   -0.129592
     98          6           0        7.422498    1.046190    1.756608
     99          1           0        7.018812    0.849382    2.753607
    100          6           0        7.701682    2.552166    1.585220
    101          6           0        8.697186    0.224083    1.491364
    102          1           0        9.490595    0.633770    2.132027
    103          8           0        8.688191    2.961262    0.960874
    104          6           0        8.513213   -1.255747    1.788423
    105          1           0        8.280686   -1.414112    2.846788
    106          1           0        7.700658   -1.677268    1.188170
    107          1           0        9.433189   -1.794085    1.545350
    108          8           0        9.048681    0.361869    0.118574
    109          1           0        9.255039    1.313903    0.018519
    110          7           0        6.773880    3.366571    2.121342
    111          1           0        5.934527    2.987538    2.556989
    112          6           0        6.807017    4.803909    1.920711
    113          1           0        7.830696    5.151313    2.093809
    114          6           0        5.853569    5.421963    2.946714
    115          6           0        6.377424    5.193519    0.494551
    116          1           0        6.414099    6.279052    0.355455
    117          1           0        7.051821    4.724900   -0.225994
    118          1           0        5.353807    4.852171    0.307105
    119          8           0        4.932088    4.769629    3.434995
    120          7           0        6.096858    6.722712    3.230316
    121          1           0        6.768026    7.245570    2.676105
    122          6           0        5.167985    7.559116    3.968015
    123          1           0        4.200542    7.049026    3.984673
    124          6           0        5.061115    8.882527    3.203220
    125          6           0        5.650179    7.835976    5.408811
    126          1           0        6.629739    8.326079    5.339299
    127          1           0        4.975378    8.566142    5.876212
    128          8           0        5.935493    9.239406    2.418960
    129          6           0        5.752013    6.591785    6.305078
    130          1           0        6.392827    5.860793    5.794451
    131          6           0        6.422272    6.969910    7.632059
    132          1           0        5.817092    7.702617    8.181609
    133          1           0        7.413836    7.408661    7.470937
    134          1           0        6.542376    6.090788    8.274675
    135          6           0        4.385098    5.939296    6.545411
    136          1           0        3.679898    6.659843    6.982190
    137          1           0        4.477905    5.103302    7.247702
    138          1           0        3.962851    5.541584    5.618812
    139          7           0        3.949566    9.621419    3.473595
    140          1           0        3.352388    9.313779    4.229987
    141          6           0        3.840234   11.007767    3.058932
    142          1           0        4.528478   11.121460    2.215626
    143          6           0        4.321636   11.997962    4.122428
    144          6           0        2.417292   11.360120    2.615953
    145          1           0        2.370158   12.411987    2.327027
    146          1           0        2.126631   10.735650    1.767327
    147          1           0        1.700243   11.197928    3.429490
    148          8           0        4.238672   13.198060    4.004770
    149          8           0        4.852353   11.394822    5.212130
    150          1           0        5.144605   12.115042    5.802875
 ---------------------------------------------------------------------

 SCF Done:  E(RB3LYP) =  -3455.80415861     A.U. after    2 cycles

 Alpha  occ. eigenvalues --  -19.27352 -19.24839 -19.23726 -19.20997 -19.20391
 Alpha  occ. eigenvalues --  -19.19830 -19.19729 -19.19699 -19.18620 -19.18366
 Alpha  occ. eigenvalues --  -19.17502 -19.17137 -19.16540 -19.16389 -19.14191
 Alpha  occ. eigenvalues --  -14.60242 -14.49895 -14.47149 -14.44160 -14.43348
 Alpha  occ. eigenvalues --  -14.42955 -14.42313 -14.41597 -14.40441 -14.40085
 Alpha  occ. eigenvalues --  -14.38323 -10.44009 -10.40882 -10.40433 -10.37046
 Alpha  occ. eigenvalues --  -10.36786 -10.36597 -10.36527 -10.35210 -10.35150
 Alpha  occ. eigenvalues --  -10.34031 -10.33537 -10.33404 -10.33345 -10.32627
 Alpha  occ. eigenvalues --  -10.32010 -10.30913 -10.30751 -10.30506 -10.30335
 Alpha  occ. eigenvalues --  -10.30062 -10.29878 -10.29844 -10.29015 -10.28671
 Alpha  occ. eigenvalues --  -10.28050 -10.27951 -10.27928 -10.27865 -10.27674
 Alpha  occ. eigenvalues --  -10.27361 -10.26888 -10.26298 -10.26109 -10.25477
 Alpha  occ. eigenvalues --  -10.25110 -10.23757 -10.23444 -10.23232 -10.22887
 Alpha  occ. eigenvalues --  -10.22611 -10.22401 -10.21438 -10.20679 -10.20189
 Alpha  occ. eigenvalues --   -1.19795  -1.15851  -1.15518  -1.14106  -1.12247
 Alpha  occ. eigenvalues --   -1.11676  -1.11044  -1.10256  -1.09310  -1.08654
 Alpha  occ. eigenvalues --   -1.08584  -1.08077  -1.07931  -1.06921  -1.06410
 Alpha  occ. eigenvalues --   -1.06065  -1.05167  -1.03655  -1.00656  -1.00133
 Alpha  occ. eigenvalues --   -0.99770  -0.98664  -0.98346  -0.97298  -0.96745
 Alpha  occ. eigenvalues --   -0.94999  -0.93316  -0.91589  -0.89625  -0.88266
 Alpha  occ. eigenvalues --   -0.86661  -0.85495  -0.85063  -0.83568  -0.83006
 Alpha  occ. eigenvalues --   -0.82800  -0.82518  -0.81073  -0.80459  -0.79122
 Alpha  occ. eigenvalues --   -0.78832  -0.78409  -0.78118  -0.77641  -0.76887
 Alpha  occ. eigenvalues --   -0.76704  -0.74813  -0.74432  -0.73458  -0.72936
 Alpha  occ. eigenvalues --   -0.72393  -0.71933  -0.71462  -0.70863  -0.69954
 Alpha  occ. eigenvalues --   -0.69182  -0.68915  -0.68527  -0.68193  -0.68074
 Alpha  occ. eigenvalues --   -0.67145  -0.66821  -0.66635  -0.65788  -0.65238
 Alpha  occ. eigenvalues --   -0.64940  -0.64826  -0.64519  -0.63802  -0.63542
 Alpha  occ. eigenvalues --   -0.63003  -0.62768  -0.62217  -0.61422  -0.60838
 Alpha  occ. eigenvalues --   -0.60697  -0.60536  -0.60056  -0.59318  -0.58913
 Alpha  occ. eigenvalues --   -0.58673  -0.58316  -0.57844  -0.57464  -0.57025
 Alpha  occ. eigenvalues --   -0.56441  -0.56219  -0.55808  -0.55431  -0.55301
 Alpha  occ. eigenvalues --   -0.55081  -0.54765  -0.54381  -0.54063  -0.53839
 Alpha  occ. eigenvalues --   -0.53699  -0.53492  -0.52938  -0.52864  -0.52628
 Alpha  occ. eigenvalues --   -0.52475  -0.52205  -0.51940  -0.51687  -0.51560
 Alpha  occ. eigenvalues --   -0.51302  -0.51186  -0.51003  -0.50751  -0.50535
 Alpha  occ. eigenvalues --   -0.50393  -0.50115  -0.50002  -0.49737  -0.49185
 Alpha  occ. eigenvalues --   -0.49056  -0.48974  -0.48880  -0.48768  -0.48631
 Alpha  occ. eigenvalues --   -0.48593  -0.48370  -0.47826  -0.47704  -0.47593
 Alpha  occ. eigenvalues --   -0.47471  -0.47439  -0.47238  -0.46899  -0.46791
 Alpha  occ. eigenvalues --   -0.46547  -0.46364  -0.46005  -0.45928  -0.45659
 Alpha  occ. eigenvalues --   -0.45307  -0.45077  -0.44870  -0.44829  -0.44734
 Alpha  occ. eigenvalues --   -0.44617  -0.44380  -0.44131  -0.44097  -0.43990
 Alpha  occ. eigenvalues --   -0.43764  -0.43670  -0.43309  -0.43130  -0.43097
 Alpha  occ. eigenvalues --   -0.42721  -0.42715  -0.42560  -0.42454  -0.42369
 Alpha  occ. eigenvalues --   -0.42287  -0.42228  -0.42039  -0.41764  -0.41715
 Alpha  occ. eigenvalues --   -0.41593  -0.41529  -0.41327  -0.41293  -0.41233
 Alpha  occ. eigenvalues --   -0.40544  -0.40508  -0.40323  -0.40017  -0.39618
 Alpha  occ. eigenvalues --   -0.39427  -0.39310  -0.38693  -0.37580  -0.37280
 Alpha  occ. eigenvalues --   -0.37114  -0.36598  -0.36501  -0.36058  -0.35926
 Alpha  occ. eigenvalues --   -0.35252  -0.35035  -0.34366  -0.34189  -0.34122
 Alpha  occ. eigenvalues --   -0.33926  -0.33184  -0.33048  -0.32202  -0.32105
 Alpha  occ. eigenvalues --   -0.31766  -0.31491  -0.31137  -0.30738  -0.29950
 Alpha  occ. eigenvalues --   -0.29934  -0.29715  -0.29384  -0.28848  -0.27918
 Alpha virt. eigenvalues --   -0.12662  -0.11381  -0.09885  -0.06636  -0.06080
 Alpha virt. eigenvalues --   -0.05918  -0.05218  -0.04772  -0.04550  -0.03935
 Alpha virt. eigenvalues --   -0.02928  -0.02523  -0.02371  -0.01675  -0.01573

 Mulliken charges:
               1
     1  N   -0.760462
     2  H    0.416676
     3  H    0.413691
     4  H    0.434478
     5  C   -0.119090
     6  H    0.221456
     7  C    0.639851
     8  C   -0.284336
     9  H    0.168189
    10  H    0.164369
    11  O   -0.540703
    12  C   -0.122800
    13  H    0.177299
    14  C   -0.480007
    15  H    0.155915
    16  H    0.126796
    17  H    0.210737
    18  C   -0.450913
    19  H    0.154141
    20  H    0.153523
    21  H    0.175018
    22  N   -0.588539
    23  H    0.392036
    24  C   -0.106756
    25  H    0.194293
    26  C    0.668761
    27  C   -0.065376
    28  H    0.163221
    29  O   -0.563805
    30  C   -0.505401
    31  H    0.135338
    32  H    0.204117
    33  H    0.174129
    34  C   -0.446152
    35  H    0.160178
    36  H    0.172419
    37  H    0.129622
    38  N   -0.608737
    39  H    0.351339
    40  C   -0.005051
    41  H    0.160177
    42  C    0.613321
    43  C   -0.125858
    44  H    0.156618
    45  O   -0.531458
    46  C   -0.465747
    47  H    0.153462
    48  H    0.171621
    49  H    0.168479
    50  C   -0.452104
    51  H    0.157880
    52  H    0.138222
    53  H    0.171678
    54  N   -0.602753
    55  H    0.352386
    56  C   -0.099064
    57  H    0.196415
    58  C    0.617095
    59  C   -0.025137
    60  H    0.162214
    61  H    0.128677
    62  O   -0.531694
    63  O   -0.651251
    64  H    0.446112
    65  N   -0.620878
    66  H    0.361488
    67  C   -0.095488
    68  H    0.187239
    69  C    0.656791
    70  C    0.127896
    71  H    0.160711
    72  O   -0.569187
    73  C   -0.459926
    74  H    0.163375
    75  H    0.145291
    76  H    0.170385
    77  O   -0.616322
    78  H    0.392853
    79  N   -0.599584
    80  H    0.367561
    81  C   -0.076615
    82  H    0.184078
    83  C    0.634906
    84  C   -0.271320
    85  H    0.177630
    86  H    0.156405
    87  O   -0.552769
    88  C   -0.343335
    89  H    0.173524
    90  H    0.147806
    91  C    0.552220
    92  N   -0.768129
    93  H    0.384436
    94  H    0.331518
    95  O   -0.506151
    96  N   -0.600433
    97  H    0.359931
    98  C   -0.081913
    99  H    0.181981
   100  C    0.638492
   101  C    0.116389
   102  H    0.144273
   103  O   -0.555466
   104  C   -0.449409
   105  H    0.147141
   106  H    0.150089
   107  H    0.171537
   108  O   -0.650997
   109  H    0.423292
   110  N   -0.624149
   111  H    0.384783
   112  C   -0.040156
   113  H    0.180401
   114  C    0.613513
   115  C   -0.459022
   116  H    0.161446
   117  H    0.189667
   118  H    0.153476
   119  O   -0.533637
   120  N   -0.601220
   121  H    0.354225
   122  C   -0.085964
   123  H    0.177962
   124  C    0.623412
   125  C   -0.250755
   126  H    0.147260
   127  H    0.136228
   128  O   -0.527766
   129  C   -0.066132
   130  H    0.139772
   131  C   -0.443982
   132  H    0.137824
   133  H    0.143133
   134  H    0.147257
   135  C   -0.465447
   136  H    0.122787
   137  H    0.145171
   138  H    0.179109
   139  N   -0.591214
   140  H    0.334258
   141  C   -0.065246
   142  H    0.223726
   143  C    0.597014
   144  C   -0.454621
   145  H    0.192419
   146  H    0.166744
   147  H    0.148575
   148  O   -0.451908
   149  O   -0.568002
   150  H    0.418987
 Sum of Mulliken charges =   1.00000

 Dipole moment (field-independent basis, Debye):
    X=            -34.4925    Y=             -7.8158    Z=            -21.1103  Tot=             41.1882
 Quadrupole moment (field-independent basis, Debye-Ang):
   XX=           -196.2148   YY=           -347.7170   ZZ=           -164.3386
   XY=             87.0289   XZ=            253.2099   YZ=             98.8393

 Normal termination of Gaussian 16 at Sun Jul 24 19:01:38 2022.
