 Gaussian 16, Revision C.01,
 Gaussian 16:  ES64L-G16RevC.01  3-Jul-2019

 ----------------------------------------------------------------------
 # B3LYP/6-31G* empiricaldispersion=gd3 guess=read geom=check nosymm in
 tegral(ultrafinegrid)
 ----------------------------------------------------------------------

 ------------------------------------------------------
 Candidate Structure: Conf:879 Charge calc in gas phase
 ------------------------------------------------------
 Structure from the checkpoint file:  "conf-879.chk"
 Charge =  1 Multiplicity = 1

                          Input orientation:
 ---------------------------------------------------------------------
 Center     Atomic      Atomic             Coordinates (Angstroms)
 Number     Number       Type             X           Y           Z
 ---------------------------------------------------------------------
      1          7           0       -2.062530   -2.520000    2.324515
      2          1           0       -1.928513   -3.101064    1.490512
      3          1           0       -2.636820   -3.006836    3.015245
      4          6           0       -0.760249   -2.062460    2.872893
      5          1           0       -0.854804   -1.974710    3.961529
      6          6           0       -0.447522   -0.636006    2.348051
      7          6           0        0.428458   -2.999591    2.565574
      8          1           0        1.325901   -2.582628    3.041113
      9          1           0        0.235744   -3.968070    3.043258
     10          8           0        0.687068   -0.103225    2.486634
     11          6           0        0.673518   -3.216982    1.091288
     12          6           0        0.212067   -2.479745    0.015181
     13          1           0       -0.368163   -1.576136   -0.018214
     14          6           0        1.543346   -4.247158    0.552708
     15          6           0        1.570551   -4.080756   -0.863593
     16          6           0        2.304435   -5.268937    1.144239
     17          1           0        2.297865   -5.407752    2.219052
     18          7           0        0.763659   -2.988022   -1.159736
     19          1           0        0.534082   -2.656037   -2.087932
     20          6           0        3.068704   -5.925780   -1.076661
     21          1           0        3.663644   -6.592930   -1.688385
     22          6           0        2.326985   -4.920537   -1.686588
     23          1           0        2.333725   -4.797723   -2.762832
     24          6           0        3.059961   -6.097804    0.324914
     25          1           0        3.650478   -6.893471    0.762247
     26          7           0       -1.512805   -0.099044    1.737591
     27          1           0       -2.305205   -0.766278    1.744502
     28          6           0       -1.578014    1.167236    0.979371
     29          1           0       -1.840989    1.999813    1.642736
     30          6           0       -0.179004    1.354251    0.376089
     31          6           0       -2.642517    1.030604   -0.140357
     32          1           0       -2.245822    0.295017   -0.851043
     33          8           0        0.270998    0.539482   -0.457301
     34          6           0       -2.869871    2.373184   -0.883300
     35          1           0       -3.685360    2.206676   -1.597115
     36          1           0       -3.229449    3.119480   -0.161422
     37          6           0       -3.996528    0.537024    0.425157
     38          1           0       -4.349514    1.210468    1.214969
     39          1           0       -4.743565    0.530553   -0.374831
     40          1           0       -3.945865   -0.480628    0.826505
     41          6           0       -1.648085    2.927761   -1.654352
     42          1           0       -1.969036    3.710847   -2.348612
     43          1           0       -1.159766    2.130577   -2.224776
     44          1           0       -0.907748    3.361110   -0.977609
     45          7           0        0.559473    2.386562    0.868211
     46          1           0        0.186600    2.993872    1.592507
     47          6           0        2.014121    2.219252    0.842945
     48          1           0        2.157957    1.148623    0.945526
     49          6           0        2.659906    2.819650    2.069363
     50          6           0        2.744680    2.686673   -0.467212
     51          1           0        2.028463    3.291380   -1.028304
     52          1           0        3.603458    3.319685   -0.215478
     53          8           0        3.834299    2.610003    2.399798
     54          6           0        3.205012    1.483435   -1.329661
     55          1           0        3.390598    1.819209   -2.356126
     56          1           0        2.374147    0.772138   -1.348959
     57          6           0        4.520283    0.830190   -0.815182
     58          1           0        4.761429   -0.075048   -1.382228
     59          1           0        5.353488    1.524958   -0.944491
     60          7           0        4.472292    0.508958    0.635793
     61          1           0        4.651962    1.301272    1.264534
     62          7           0        3.045552   -1.326303    0.359111
     63          1           0        2.416800   -2.029332    0.749257
     64          1           0        3.094244   -1.285277   -0.649428
     65          7           0        3.356276   -0.430252    2.465337
     66          1           0        3.852175    0.235793    3.051676
     67          1           0        2.360328   -0.597259    2.709387
     68          6           0        3.644107   -0.428445    1.140537
     69          8           0        1.822771    3.616687    2.786556
     70          1           0        2.285328    3.993421    3.586384
 ---------------------------------------------------------------------

 SCF Done:  E(RB3LYP) =  -1582.25626865     A.U. after   13 cycles

 Alpha  occ. eigenvalues --  -19.33158 -19.27558 -19.23316 -19.22981 -14.48619
 Alpha  occ. eigenvalues --  -14.48559 -14.47655 -14.47219 -14.46894 -14.46420
 Alpha  occ. eigenvalues --  -14.43648 -10.45939 -10.44747 -10.40079 -10.39750
 Alpha  occ. eigenvalues --  -10.35484 -10.34600 -10.34305 -10.33788 -10.31394
 Alpha  occ. eigenvalues --  -10.31280 -10.30527 -10.29786 -10.29628 -10.29195
 Alpha  occ. eigenvalues --  -10.28445 -10.27724 -10.27597 -10.27269 -10.27174
 Alpha  occ. eigenvalues --  -10.26976 -10.26846 -10.26510 -10.25564  -1.22739
 Alpha  occ. eigenvalues --   -1.14649  -1.14263  -1.13195  -1.12944  -1.06985
 Alpha  occ. eigenvalues --   -1.03824  -1.03782  -1.02645  -1.00941  -0.99271
 Alpha  occ. eigenvalues --   -0.92642  -0.91431  -0.90312  -0.89617  -0.86566
 Alpha  occ. eigenvalues --   -0.84487  -0.82853  -0.82239  -0.81001  -0.80568
 Alpha  occ. eigenvalues --   -0.80063  -0.76266  -0.75430  -0.73531  -0.71977
 Alpha  occ. eigenvalues --   -0.71388  -0.71047  -0.70634  -0.70033  -0.68226
 Alpha  occ. eigenvalues --   -0.68071  -0.66895  -0.66247  -0.64954  -0.64501
 Alpha  occ. eigenvalues --   -0.63261  -0.62605  -0.61840  -0.61365  -0.61097
 Alpha  occ. eigenvalues --   -0.60652  -0.59474  -0.58992  -0.58569  -0.58206
 Alpha  occ. eigenvalues --   -0.57209  -0.56916  -0.56163  -0.55724  -0.54773
 Alpha  occ. eigenvalues --   -0.54220  -0.53778  -0.53072  -0.52923  -0.52625
 Alpha  occ. eigenvalues --   -0.52433  -0.51940  -0.51704  -0.51462  -0.51046
 Alpha  occ. eigenvalues --   -0.50601  -0.50548  -0.50033  -0.49607  -0.49337
 Alpha  occ. eigenvalues --   -0.48558  -0.47932  -0.47211  -0.46684  -0.46578
 Alpha  occ. eigenvalues --   -0.45606  -0.45594  -0.44849  -0.44662  -0.44247
 Alpha  occ. eigenvalues --   -0.43976  -0.42252  -0.42200  -0.42057  -0.41789
 Alpha  occ. eigenvalues --   -0.41380  -0.41284  -0.39364  -0.38847  -0.37853
 Alpha  occ. eigenvalues --   -0.37291  -0.36639  -0.36586  -0.36123  -0.34570
 Alpha  occ. eigenvalues --   -0.31303  -0.29833
 Alpha virt. eigenvalues --   -0.13164  -0.10795  -0.10355  -0.09819  -0.08772
 Alpha virt. eigenvalues --   -0.06459  -0.05500  -0.04346  -0.03307  -0.02446
 Alpha virt. eigenvalues --   -0.01423  -0.01108  -0.00284  -0.00232   0.00681

 Mulliken charges:
               1
     1  N   -0.787205
     2  H    0.338379
     3  H    0.339505
     4  C   -0.065563
     5  H    0.184451
     6  C    0.627593
     7  C   -0.343072
     8  H    0.163458
     9  H    0.171316
    10  O   -0.603643
    11  C   -0.047995
    12  C   -0.006280
    13  H    0.202967
    14  C    0.070276
    15  C    0.303956
    16  C   -0.199565
    17  H    0.138488
    18  N   -0.706851
    19  H    0.342591
    20  C   -0.145304
    21  H    0.150644
    22  C   -0.169574
    23  H    0.141078
    24  C   -0.138112
    25  H    0.147411
    26  N   -0.633756
    27  H    0.412413
    28  C    0.011740
    29  H    0.154660
    30  C    0.641647
    31  C   -0.114809
    32  H    0.154947
    33  O   -0.549351
    34  C   -0.262297
    35  H    0.156515
    36  H    0.140077
    37  C   -0.479409
    38  H    0.159229
    39  H    0.171480
    40  H    0.154839
    41  C   -0.473890
    42  H    0.163104
    43  H    0.159259
    44  H    0.146910
    45  N   -0.611382
    46  H    0.363945
    47  C   -0.038209
    48  H    0.221975
    49  C    0.616647
    50  C   -0.287203
    51  H    0.191268
    52  H    0.167826
    53  O   -0.499584
    54  C   -0.311822
    55  H    0.169948
    56  H    0.193134
    57  C   -0.184230
    58  H    0.178503
    59  H    0.191961
    60  N   -0.581523
    61  H    0.387542
    62  N   -0.746600
    63  H    0.412671
    64  H    0.372531
    65  N   -0.778305
    66  H    0.363138
    67  H    0.413312
    68  C    0.701637
    69  O   -0.571860
    70  H    0.442423
 Sum of Mulliken charges =   1.00000

 Dipole moment (field-independent basis, Debye):
    X=              5.3266    Y=              0.3736    Z=              4.4651  Tot=              6.9605
 Quadrupole moment (field-independent basis, Debye-Ang):
   XX=           -154.2068   YY=           -154.1600   ZZ=           -162.2153
   XY=              5.3663   XZ=             -4.0219   YZ=              6.3411

 Normal termination of Gaussian 16 at Sat Jul  9 00:28:37 2022.
