 Gaussian 16, Revision C.01,
 Gaussian 16:  ES64L-G16RevC.01  3-Jul-2019

 -------------------------------------------------------------------
 # B3LYP/6-31G* guess=read geom=check nosymm integral(ultrafinegrid)
 -------------------------------------------------------------------

 ------------------------------------------------------
 Candidate Structure: Conf:308 Charge calc in gas phase
 ------------------------------------------------------
 Structure from the checkpoint file:  "conf-308.chk"
 Charge =  1 Multiplicity = 1

                          Input orientation:
 ---------------------------------------------------------------------
 Center     Atomic      Atomic             Coordinates (Angstroms)
 Number     Number       Type             X           Y           Z
 ---------------------------------------------------------------------
      1          7           0       -5.328679    3.773810    2.000701
      2          1           0       -5.722916    3.601843    1.087329
      3          1           0       -5.769514    3.107593    2.626070
      4          6           0       -3.898034    3.532267    1.976927
      5          1           0       -3.418787    4.339690    1.408568
      6          6           0       -3.532433    2.197367    1.308128
      7          6           0       -3.330879    3.565680    3.400077
      8          1           0       -3.791998    2.758806    3.979056
      9          1           0       -2.252760    3.380338    3.371767
     10          8           0       -4.323839    1.270357    1.209873
     11          6           0       -3.613379    4.879255    4.113736
     12          1           0       -3.385066    5.746853    3.497523
     13          1           0       -3.030780    4.944586    5.035748
     14          6           0       -5.096454    4.942747    4.552257
     15          8           0       -5.657541    6.045905    4.403418
     16          8           0       -5.554740    3.905957    5.074190
     17          7           0       -2.254488    2.105556    0.870503
     18          1           0       -1.590519    2.857245    0.972653
     19          6           0       -1.758023    0.892467    0.254139
     20          1           0       -2.121442    0.038997    0.829703
     21          6           0       -0.235819    0.975196    0.336066
     22          6           0       -2.272508    0.755114   -1.191884
     23          1           0       -2.030191    1.677126   -1.724150
     24          1           0       -3.359159    0.706336   -1.133979
     25          8           0        0.339360    2.043874    0.514921
     26          6           0       -1.707340   -0.396699   -1.976397
     27          6           0       -1.844144   -1.740844   -1.767909
     28          1           0       -2.376498   -2.274813   -0.993994
     29          6           0       -0.881447   -0.252982   -3.148083
     30          6           0       -0.562806   -1.538922   -3.610069
     31          6           0       -0.424149    0.871956   -3.843064
     32          1           0       -0.642145    1.867993   -3.478229
     33          7           0       -1.159573   -2.433398   -2.750547
     34          1           0       -1.113082   -3.431225   -2.826652
     35          6           0        0.671456   -0.619056   -5.420389
     36          1           0        1.283320   -0.731686   -6.306025
     37          6           0        0.220700   -1.750406   -4.748362
     38          1           0        0.466206   -2.748795   -5.090306
     39          6           0        0.339509    0.673915   -4.977439
     40          1           0        0.722500    1.530187   -5.525816
     41          7           0        0.429862   -0.200006    0.218262
     42          1           0       -0.048041   -0.967946   -0.226173
     43          6           0        1.885542   -0.242033    0.188165
     44          1           0        2.226431    0.452041    0.957423
     45          6           0        2.378244    0.210344   -1.184362
     46          6           0        2.360970   -1.656796    0.537147
     47          1           0        1.940575   -2.346980   -0.196349
     48          8           0        2.670014   -0.573754   -2.082611
     49          6           0        3.863478   -1.795764    0.637662
     50          1           0        4.344149   -1.552647   -0.307220
     51          1           0        4.119448   -2.821891    0.903468
     52          1           0        4.244861   -1.124481    1.408393
     53          8           0        1.791019   -2.061956    1.851024
     54          1           0        2.353594   -1.698523    2.567577
     55          7           0        2.468709    1.553315   -1.356253
     56          1           0        2.014583    2.157218   -0.685329
     57          6           0        2.834038    2.072827   -2.653167
     58          1           0        2.222325    1.572494   -3.415577
     59          6           0        4.263169    1.737203   -3.029421
     60          6           0        2.610773    3.581051   -2.725418
     61          1           0        3.112822    3.961464   -3.615884
     62          1           0        3.102621    4.031013   -1.863501
     63          8           0        4.614324    1.507084   -4.160763
     64          6           0        1.134218    3.936086   -2.770360
     65          1           0        0.719684    3.578191   -3.714090
     66          1           0        0.593239    3.427202   -1.965880
     67          6           0        0.860106    5.429371   -2.663769
     68          1           0       -0.214064    5.628547   -2.721043
     69          1           0        1.186098    5.801166   -1.690407
     70          7           0        1.559220    6.261699   -3.663245
     71          1           0        2.516567    6.483169   -3.430418
     72          7           0        0.238754    5.493584   -5.427228
     73          1           0       -0.101604    5.682282   -6.356636
     74          1           0       -0.473280    5.265115   -4.753030
     75          7           0        2.158166    6.778510   -5.848297
     76          1           0        2.757798    7.509980   -5.490281
     77          1           0        1.837374    6.919267   -6.794743
     78          6           0        1.302725    6.191780   -4.975435
     79          8           0        5.119718    1.776335   -1.988270
     80          1           0        5.991657    1.576792   -2.351354
     81          1           0        0.874238   -1.713544    1.965344
 ---------------------------------------------------------------------

 SCF Done:  E(RB3LYP) =  -2053.69936648     A.U. after    3 cycles

 Alpha  occ. eigenvalues --  -19.46741 -19.30424 -19.26536 -19.25012 -19.24425
 Alpha  occ. eigenvalues --  -19.16436 -19.05308 -19.04360 -14.55141 -14.55115
 Alpha  occ. eigenvalues --  -14.54783 -14.51438 -14.48711 -14.48115 -14.42451
 Alpha  occ. eigenvalues --  -14.31862 -10.50487 -10.44500 -10.42738 -10.42719
 Alpha  occ. eigenvalues --  -10.42329 -10.39699 -10.38946 -10.35698 -10.34360
 Alpha  occ. eigenvalues --  -10.33630 -10.33604 -10.33391 -10.32750 -10.32217
 Alpha  occ. eigenvalues --  -10.31795 -10.29042 -10.28838 -10.28656 -10.28626
 Alpha  occ. eigenvalues --  -10.28229 -10.28215 -10.28133 -10.24423 -10.22233
 Alpha  occ. eigenvalues --  -10.19407 -10.15835  -1.33884  -1.21676  -1.19790
 Alpha  occ. eigenvalues --   -1.18957  -1.17038  -1.12344  -1.09259  -1.08948
 Alpha  occ. eigenvalues --   -1.08611  -1.08302  -1.08274  -1.05894  -0.99879
 Alpha  occ. eigenvalues --   -0.98032  -0.97543  -0.95384  -0.94210  -0.91176
 Alpha  occ. eigenvalues --   -0.90403  -0.90208  -0.89175  -0.88209  -0.85225
 Alpha  occ. eigenvalues --   -0.84544  -0.83873  -0.83221  -0.81896  -0.81009
 Alpha  occ. eigenvalues --   -0.80780  -0.78180  -0.77423  -0.77123  -0.75858
 Alpha  occ. eigenvalues --   -0.74858  -0.73488  -0.72563  -0.72380  -0.71412
 Alpha  occ. eigenvalues --   -0.71285  -0.69618  -0.69298  -0.68403  -0.68045
 Alpha  occ. eigenvalues --   -0.67413  -0.67060  -0.66022  -0.65251  -0.64415
 Alpha  occ. eigenvalues --   -0.64187  -0.62991  -0.62442  -0.61885  -0.61365
 Alpha  occ. eigenvalues --   -0.59941  -0.59567  -0.59449  -0.58728  -0.58152
 Alpha  occ. eigenvalues --   -0.57942  -0.57665  -0.57273  -0.57241  -0.56714
 Alpha  occ. eigenvalues --   -0.56519  -0.55343  -0.54932  -0.54629  -0.54410
 Alpha  occ. eigenvalues --   -0.53815  -0.53420  -0.53304  -0.52653  -0.52108
 Alpha  occ. eigenvalues --   -0.51841  -0.51544  -0.51460  -0.50837  -0.50456
 Alpha  occ. eigenvalues --   -0.49649  -0.49368  -0.48935  -0.48602  -0.48206
 Alpha  occ. eigenvalues --   -0.47341  -0.46343  -0.46219  -0.45896  -0.45266
 Alpha  occ. eigenvalues --   -0.44508  -0.44212  -0.43937  -0.43520  -0.43017
 Alpha  occ. eigenvalues --   -0.42915  -0.42398  -0.41033  -0.39963  -0.39818
 Alpha  occ. eigenvalues --   -0.39713  -0.38450  -0.37917  -0.37540  -0.37057
 Alpha  occ. eigenvalues --   -0.36322  -0.35337  -0.33317  -0.32583  -0.32291
 Alpha  occ. eigenvalues --   -0.31477  -0.30424  -0.29830  -0.24615  -0.20038
 Alpha  occ. eigenvalues --   -0.18567  -0.17519
 Alpha virt. eigenvalues --   -0.16592  -0.16452  -0.12836  -0.11750  -0.11460
 Alpha virt. eigenvalues --   -0.11385  -0.09899  -0.08638  -0.08469  -0.07513
 Alpha virt. eigenvalues --   -0.07010  -0.06873  -0.05860  -0.04926  -0.03934

 Mulliken charges:
               1
     1  N   -0.670479
     2  H    0.284993
     3  H    0.332536
     4  C   -0.059934
     5  H    0.105819
     6  C    0.581227
     7  C   -0.268769
     8  H    0.171870
     9  H    0.077269
    10  O   -0.528446
    11  C   -0.332054
    12  H    0.112913
    13  H    0.128187
    14  C    0.611530
    15  O   -0.524820
    16  O   -0.571296
    17  N   -0.621147
    18  H    0.343899
    19  C   -0.029704
    20  H    0.176998
    21  C    0.622373
    22  C   -0.341355
    23  H    0.141282
    24  H    0.223763
    25  O   -0.541780
    26  C    0.031442
    27  C   -0.046177
    28  H    0.176105
    29  C    0.080007
    30  C    0.324369
    31  C   -0.202226
    32  H    0.104606
    33  N   -0.690784
    34  H    0.340227
    35  C   -0.136774
    36  H    0.149563
    37  C   -0.148083
    38  H    0.147703
    39  C   -0.150899
    40  H    0.114306
    41  N   -0.651311
    42  H    0.359048
    43  C   -0.088056
    44  H    0.193204
    45  C    0.654142
    46  C    0.028975
    47  H    0.236501
    48  O   -0.516971
    49  C   -0.496759
    50  H    0.244435
    51  H    0.209954
    52  H    0.174626
    53  O   -0.528475
    54  H    0.417821
    55  N   -0.628297
    56  H    0.372080
    57  C   -0.015462
    58  H    0.218584
    59  C    0.589098
    60  C   -0.328300
    61  H    0.169514
    62  H    0.167655
    63  O   -0.450094
    64  C   -0.299497
    65  H    0.173378
    66  H    0.186787
    67  C   -0.207374
    68  H    0.195072
    69  H    0.210066
    70  N   -0.562511
    71  H    0.367931
    72  N   -0.722689
    73  H    0.380967
    74  H    0.386150
    75  N   -0.731336
    76  H    0.382804
    77  H    0.379020
    78  C    0.733631
    79  O   -0.567828
    80  H    0.423958
    81  H    0.421300
 Sum of Mulliken charges =   1.00000

 Dipole moment (field-independent basis, Debye):
    X=             29.3842    Y=              4.1022    Z=            -29.1058  Tot=             41.5620
 Quadrupole moment (field-independent basis, Debye-Ang):
   XX=           -314.4305   YY=           -126.1657   ZZ=           -193.7955
   XY=            120.4465   XZ=             83.8152   YZ=           -205.6837

 Normal termination of Gaussian 16 at Thu May 26 18:17:20 2022.
