 Gaussian 16, Revision C.01,
 Gaussian 16:  ES64L-G16RevC.01  3-Jul-2019

 -------------------------------------------------------------------
 # B3LYP/6-31G* guess=read geom=check nosymm integral(ultrafinegrid)
 -------------------------------------------------------------------

 ------------------------------------------------------
 Candidate Structure: Conf:807 Charge calc in gas phase
 ------------------------------------------------------
 Structure from the checkpoint file:  "conf-807.chk"
 Charge =  1 Multiplicity = 1

                          Input orientation:
 ---------------------------------------------------------------------
 Center     Atomic      Atomic             Coordinates (Angstroms)
 Number     Number       Type             X           Y           Z
 ---------------------------------------------------------------------
      1          7           0       -3.441489   -0.496669    4.652506
      2          1           0       -4.164021   -1.105772    4.286852
      3          1           0       -2.580019   -1.032080    4.617621
      4          6           0       -3.305487    0.678992    3.817812
      5          1           0       -4.272624    1.183178    3.759281
      6          6           0       -2.875211    0.378026    2.357940
      7          6           0       -2.287933    1.652323    4.422815
      8          1           0       -1.345355    1.115305    4.589896
      9          1           0       -2.081241    2.470833    3.722953
     10          8           0       -2.145485   -0.604782    2.060010
     11          6           0       -2.718091    2.263930    5.755518
     12          1           0       -2.859000    1.490313    6.512299
     13          1           0       -3.634923    2.845209    5.643479
     14          6           0       -1.549676    3.186798    6.132184
     15          8           0       -1.614560    4.346697    5.686606
     16          8           0       -0.644158    2.671234    6.814423
     17          7           0       -3.295672    1.323774    1.454918
     18          1           0       -3.575176    2.211544    1.830115
     19          6           0       -2.741890    1.324858    0.110818
     20          1           0       -2.833042    0.296885   -0.245709
     21          6           0       -1.278877    1.722647    0.196578
     22          6           0       -3.500023    2.293576   -0.796331
     23          1           0       -2.944335    2.423792   -1.729244
     24          1           0       -3.537502    3.267074   -0.307622
     25          8           0       -0.932253    2.771416    0.727210
     26          6           0       -4.883494    1.794745   -1.094773
     27          6           0       -6.059980    2.247984   -0.571239
     28          1           0       -6.239939    3.060978    0.115709
     29          6           0       -5.218431    0.691350   -1.957344
     30          6           0       -6.610086    0.517449   -1.896252
     31          6           0       -4.445281   -0.159009   -2.757006
     32          1           0       -3.366622   -0.033828   -2.820012
     33          7           0       -7.104621    1.480183   -1.046130
     34          1           0       -8.069485    1.608310   -0.810027
     35          6           0       -6.483609   -1.320775   -3.392778
     36          1           0       -6.955166   -2.113484   -3.961160
     37          6           0       -7.268075   -0.490577   -2.606661
     38          1           0       -8.343579   -0.612462   -2.543856
     39          6           0       -5.088200   -1.155043   -3.471666
     40          1           0       -4.510824   -1.823340   -4.099059
     41          7           0       -0.414472    0.810070   -0.293580
     42          1           0       -0.778014   -0.026940   -0.716429
     43          6           0        1.015634    0.846803   -0.044720
     44          1           0        1.319648    1.888318   -0.070361
     45          6           0        1.646378    0.020253   -1.148569
     46          6           0        1.437448    0.236364    1.308466
     47          1           0        2.530080    0.248234    1.345359
     48          8           0        1.380075   -1.188346   -1.250253
     49          6           0        0.840283    0.931075    2.513017
     50          1           0        0.933372    2.013319    2.428381
     51          1           0        1.334512    0.590534    3.423051
     52          1           0       -0.211921    0.673649    2.585607
     53          8           0        1.047059   -1.189680    1.350831
     54          1           0        0.090869   -1.235646    1.593546
     55          7           0        2.414909    0.661778   -2.039938
     56          1           0        2.772659    1.574792   -1.815337
     57          6           0        3.139450   -0.092738   -3.050849
     58          1           0        2.472344   -0.876075   -3.421561
     59          6           0        4.344399   -0.814687   -2.476043
     60          6           0        3.588331    0.824134   -4.189724
     61          1           0        4.248467    0.257138   -4.851536
     62          1           0        4.190515    1.626772   -3.758484
     63          8           0        4.812260   -1.823253   -2.941050
     64          6           0        2.429251    1.413688   -4.988353
     65          1           0        1.717721    1.885578   -4.306961
     66          1           0        2.804281    2.200271   -5.646547
     67          6           0        1.704192    0.380144   -5.833785
     68          1           0        2.401573   -0.108814   -6.523064
     69          1           0        1.295453   -0.406571   -5.200266
     70          7           0        0.557675    0.915416   -6.592871
     71          1           0       -0.275475    1.081691   -6.045970
     72          7           0        1.913723    1.970104   -8.177369
     73          1           0        1.990023    2.324690   -9.117328
     74          1           0        2.686046    1.410464   -7.856044
     75          7           0       -0.408951    2.312597   -8.166851
     76          1           0       -1.296524    1.862804   -7.985524
     77          1           0       -0.330389    2.741425   -9.077173
     78          6           0        0.697462    1.715310   -7.659927
     79          8           0        4.885443   -0.173873   -1.415514
     80          1           0        5.653489   -0.695026   -1.151854
     81          1           0        1.130982   -1.478904    0.390504
 ---------------------------------------------------------------------

 SCF Done:  E(RB3LYP) =  -2053.74167936     A.U. after    3 cycles

 Alpha  occ. eigenvalues --  -19.42768 -19.32925 -19.30323 -19.27063 -19.22609
 Alpha  occ. eigenvalues --  -19.20958 -19.04113 -19.04109 -14.55144 -14.55060
 Alpha  occ. eigenvalues --  -14.54348 -14.53499 -14.49584 -14.45213 -14.44674
 Alpha  occ. eigenvalues --  -14.35784 -10.49703 -10.46069 -10.45381 -10.41864
 Alpha  occ. eigenvalues --  -10.40025 -10.39625 -10.39460 -10.39205 -10.36537
 Alpha  occ. eigenvalues --  -10.35232 -10.35077 -10.32796 -10.29422 -10.29285
 Alpha  occ. eigenvalues --  -10.29177 -10.28742 -10.26832 -10.26620 -10.26257
 Alpha  occ. eigenvalues --  -10.25833 -10.25819 -10.25774 -10.25756 -10.21828
 Alpha  occ. eigenvalues --  -10.20965 -10.15732  -1.30413  -1.24195  -1.21916
 Alpha  occ. eigenvalues --   -1.19566  -1.15274  -1.14936  -1.10766  -1.10471
 Alpha  occ. eigenvalues --   -1.09230  -1.08055  -1.06562  -1.05550  -1.01450
 Alpha  occ. eigenvalues --   -0.97779  -0.97445  -0.94929  -0.93606  -0.91746
 Alpha  occ. eigenvalues --   -0.91687  -0.89315  -0.88825  -0.87317  -0.85291
 Alpha  occ. eigenvalues --   -0.84219  -0.81394  -0.81328  -0.80834  -0.80061
 Alpha  occ. eigenvalues --   -0.79223  -0.77635  -0.77166  -0.76929  -0.76137
 Alpha  occ. eigenvalues --   -0.75311  -0.75065  -0.73453  -0.73300  -0.71351
 Alpha  occ. eigenvalues --   -0.69975  -0.68428  -0.68017  -0.67955  -0.67450
 Alpha  occ. eigenvalues --   -0.67317  -0.66369  -0.65973  -0.65668  -0.64909
 Alpha  occ. eigenvalues --   -0.64300  -0.62964  -0.62099  -0.61890  -0.61593
 Alpha  occ. eigenvalues --   -0.61301  -0.60926  -0.59852  -0.59443  -0.58868
 Alpha  occ. eigenvalues --   -0.58269  -0.57737  -0.57345  -0.56418  -0.56190
 Alpha  occ. eigenvalues --   -0.55706  -0.55126  -0.54926  -0.54543  -0.54150
 Alpha  occ. eigenvalues --   -0.53409  -0.52900  -0.52227  -0.52072  -0.51928
 Alpha  occ. eigenvalues --   -0.51522  -0.51248  -0.51026  -0.50517  -0.50199
 Alpha  occ. eigenvalues --   -0.50072  -0.49791  -0.49442  -0.48421  -0.48076
 Alpha  occ. eigenvalues --   -0.47501  -0.46525  -0.46276  -0.46148  -0.45474
 Alpha  occ. eigenvalues --   -0.45335  -0.45229  -0.44912  -0.44198  -0.43775
 Alpha  occ. eigenvalues --   -0.43049  -0.42685  -0.41265  -0.40979  -0.40268
 Alpha  occ. eigenvalues --   -0.39990  -0.38667  -0.38245  -0.37252  -0.36493
 Alpha  occ. eigenvalues --   -0.36244  -0.35026  -0.34664  -0.33692  -0.33027
 Alpha  occ. eigenvalues --   -0.31770  -0.29861  -0.28151  -0.27938  -0.19659
 Alpha  occ. eigenvalues --   -0.18281  -0.17226
 Alpha virt. eigenvalues --   -0.16451  -0.15840  -0.12711  -0.11855  -0.10369
 Alpha virt. eigenvalues --   -0.09112  -0.08969  -0.08618  -0.07602  -0.07223
 Alpha virt. eigenvalues --   -0.05960  -0.05895  -0.04936  -0.04816  -0.03897

 Mulliken charges:
               1
     1  N   -0.669152
     2  H    0.298511
     3  H    0.298284
     4  C   -0.079007
     5  H    0.142599
     6  C    0.597419
     7  C   -0.288555
     8  H    0.136965
     9  H    0.143861
    10  O   -0.613708
    11  C   -0.297570
    12  H    0.149956
    13  H    0.113926
    14  C    0.533377
    15  O   -0.564238
    16  O   -0.564133
    17  N   -0.562550
    18  H    0.359465
    19  C   -0.054757
    20  H    0.168815
    21  C    0.648024
    22  C   -0.386900
    23  H    0.141605
    24  H    0.183893
    25  O   -0.511264
    26  C    0.074525
    27  C    0.005157
    28  H    0.168389
    29  C    0.091576
    30  C    0.320191
    31  C   -0.207424
    32  H    0.074620
    33  N   -0.691373
    34  H    0.340492
    35  C   -0.151977
    36  H    0.137974
    37  C   -0.154194
    38  H    0.143473
    39  C   -0.139593
    40  H    0.111957
    41  N   -0.625024
    42  H    0.345652
    43  C   -0.089966
    44  H    0.216843
    45  C    0.633972
    46  C    0.046413
    47  H    0.216479
    48  O   -0.566885
    49  C   -0.499151
    50  H    0.237679
    51  H    0.216622
    52  H    0.206603
    53  O   -0.601401
    54  H    0.499622
    55  N   -0.588550
    56  H    0.363769
    57  C   -0.061566
    58  H    0.214395
    59  C    0.596543
    60  C   -0.315764
    61  H    0.192256
    62  H    0.182543
    63  O   -0.429034
    64  C   -0.278606
    65  H    0.164782
    66  H    0.174308
    67  C   -0.196083
    68  H    0.186590
    69  H    0.199146
    70  N   -0.573863
    71  H    0.362951
    72  N   -0.733463
    73  H    0.380138
    74  H    0.379919
    75  N   -0.734463
    76  H    0.378299
    77  H    0.375088
    78  C    0.729643
    79  O   -0.575949
    80  H    0.438736
    81  H    0.482115
 Sum of Mulliken charges =   1.00000

 Dipole moment (field-independent basis, Debye):
    X=              6.3845    Y=             -1.9444    Z=            -47.9345  Tot=             48.3969
 Quadrupole moment (field-independent basis, Debye-Ang):
   XX=           -147.0906   YY=           -276.7979   ZZ=           -122.7763
   XY=             10.9187   XZ=            -10.6451   YZ=           -127.9405

 Normal termination of Gaussian 16 at Thu May 26 18:16:44 2022.
