 Gaussian 16, Revision C.01,
 Gaussian 16:  ES64L-G16RevC.01  3-Jul-2019

 -------------------------------------------------------------------
 # B3LYP/6-31G* guess=read geom=check nosymm integral(ultrafinegrid)
 -------------------------------------------------------------------

 ------------------------------------------------------
 Candidate Structure: Conf:746 Charge calc in gas phase
 ------------------------------------------------------
 Structure from the checkpoint file:  "conf-746.chk"
 Charge =  1 Multiplicity = 1

                          Input orientation:
 ---------------------------------------------------------------------
 Center     Atomic      Atomic             Coordinates (Angstroms)
 Number     Number       Type             X           Y           Z
 ---------------------------------------------------------------------
      1          7           0       -3.110755   -1.893290    4.326047
      2          1           0       -2.555661   -2.539792    3.768422
      3          1           0       -2.708309   -1.880976    5.259919
      4          6           0       -2.990006   -0.568295    3.728395
      5          1           0       -3.812147    0.063434    4.090096
      6          6           0       -3.069998   -0.763308    2.203761
      7          6           0       -1.632225    0.152291    4.011937
      8          1           0       -1.342962   -0.022660    5.057381
      9          1           0       -0.878213   -0.349755    3.401347
     10          8           0       -2.519935   -1.729204    1.672981
     11          6           0       -1.618070    1.663315    3.758068
     12          1           0       -2.304736    2.172955    4.439954
     13          1           0       -1.912675    1.906424    2.738773
     14          6           0       -0.211636    2.332604    3.843479
     15          8           0        0.744033    1.651504    3.311352
     16          8           0       -0.138896    3.476148    4.294606
     17          7           0       -3.674027    0.210189    1.445937
     18          1           0       -3.869791    1.077542    1.929809
     19          6           0       -3.244852    0.383496    0.038799
     20          1           0       -3.209145   -0.604639   -0.421395
     21          6           0       -1.828880    0.986076    0.097416
     22          6           0       -4.218093    1.306034   -0.708240
     23          1           0       -4.245545    2.265930   -0.182017
     24          1           0       -5.214896    0.860251   -0.651902
     25          8           0       -1.638219    2.070688    0.645257
     26          6           0       -3.818849    1.535737   -2.138885
     27          6           0       -2.954428    2.502491   -2.584500
     28          1           0       -2.419363    3.243649   -2.007075
     29          6           0       -4.194187    0.758517   -3.296358
     30          6           0       -3.530005    1.320855   -4.414471
     31          6           0       -5.027850   -0.356544   -3.487838
     32          1           0       -5.548589   -0.811368   -2.649616
     33          7           0       -2.782080    2.385837   -3.950312
     34          1           0       -2.193931    2.974204   -4.515733
     35          6           0       -4.507550   -0.291193   -5.867381
     36          1           0       -4.646314   -0.715275   -6.857036
     37          6           0       -3.676614    0.810470   -5.708284
     38          1           0       -3.162418    1.258573   -6.553964
     39          6           0       -5.175742   -0.869379   -4.768623
     40          1           0       -5.817612   -1.729444   -4.931858
     41          7           0       -0.799742    0.282592   -0.469268
     42          1           0       -0.925294   -0.635913   -0.873943
     43          6           0        0.554323    0.670573   -0.121881
     44          1           0        0.546878    1.764309   -0.066942
     45          6           0        1.530510    0.186172   -1.174891
     46          6           0        0.914011    0.077704    1.290737
     47          1           0        0.313523    0.562217    2.079495
     48          8           0        1.450878   -0.902436   -1.723077
     49          6           0        0.779597   -1.424435    1.379381
     50          1           0       -0.244910   -1.724617    1.153903
     51          1           0        1.019211   -1.727074    2.400515
     52          1           0        1.445948   -1.940883    0.677881
     53          8           0        2.325884    0.399985    1.696437
     54          1           0        3.018070   -0.005060    1.093508
     55          7           0        2.581814    1.049869   -1.429676
     56          1           0        2.672581    1.863603   -0.836207
     57          6           0        3.794239    0.545466   -2.040639
     58          1           0        3.489019   -0.107299   -2.865258
     59          6           0        4.570939   -0.341313   -1.066910
     60          6           0        4.667956    1.693604   -2.576140
     61          1           0        5.627745    1.271870   -2.891207
     62          1           0        4.875133    2.388532   -1.752331
     63          8           0        4.289712   -0.509740    0.107346
     64          6           0        4.008171    2.426597   -3.747645
     65          1           0        3.718792    1.702528   -4.517702
     66          1           0        3.086556    2.909604   -3.409181
     67          6           0        4.917758    3.463996   -4.419763
     68          1           0        5.798370    2.975248   -4.844183
     69          1           0        4.409707    3.950030   -5.259489
     70          7           0        5.446637    4.516334   -3.521012
     71          1           0        6.249837    4.237561   -2.970021
     72          7           0        3.429911    5.672664   -3.324471
     73          1           0        2.973640    6.553764   -3.127179
     74          1           0        3.057921    5.158527   -4.109811
     75          7           0        5.251636    6.258548   -2.009241
     76          1           0        6.260712    6.332338   -1.967147
     77          1           0        4.758631    7.090898   -1.712218
     78          6           0        4.707831    5.487746   -2.970511
     79          8           0        5.620138   -0.929554   -1.642874
     80          1           0        6.062540   -1.480775   -0.970181
     81          1           0        2.482489    1.361117    1.780124
 ---------------------------------------------------------------------

 SCF Done:  E(RB3LYP) =  -2053.79486457     A.U. after    1 cycles

 Alpha  occ. eigenvalues --  -19.37098 -19.34994 -19.30597 -19.24431 -19.19143
 Alpha  occ. eigenvalues --  -19.16776 -19.08372 -19.06702 -14.58233 -14.58133
 Alpha  occ. eigenvalues --  -14.57635 -14.50127 -14.44857 -14.44066 -14.41245
 Alpha  occ. eigenvalues --  -14.33618 -10.54366 -10.48007 -10.41616 -10.41269
 Alpha  occ. eigenvalues --  -10.39153 -10.36219 -10.36217 -10.36189 -10.34098
 Alpha  occ. eigenvalues --  -10.33936 -10.33381 -10.29634 -10.27673 -10.27457
 Alpha  occ. eigenvalues --  -10.25860 -10.25384 -10.25362 -10.25340 -10.24389
 Alpha  occ. eigenvalues --  -10.23998 -10.23810 -10.23718 -10.23705 -10.23110
 Alpha  occ. eigenvalues --  -10.20745 -10.17935  -1.26566  -1.23805  -1.22990
 Alpha  occ. eigenvalues --   -1.17629  -1.16524  -1.12134  -1.11446  -1.11134
 Alpha  occ. eigenvalues --   -1.08491  -1.06917  -1.03820  -1.01295  -1.00665
 Alpha  occ. eigenvalues --   -0.97471  -0.97324  -0.92470  -0.92122  -0.91340
 Alpha  occ. eigenvalues --   -0.89242  -0.88468  -0.86796  -0.86412  -0.84066
 Alpha  occ. eigenvalues --   -0.82435  -0.81060  -0.80296  -0.78948  -0.78800
 Alpha  occ. eigenvalues --   -0.78758  -0.77208  -0.75968  -0.75366  -0.74919
 Alpha  occ. eigenvalues --   -0.73119  -0.72100  -0.71863  -0.71113  -0.70297
 Alpha  occ. eigenvalues --   -0.69830  -0.67811  -0.67476  -0.66902  -0.66661
 Alpha  occ. eigenvalues --   -0.65156  -0.65027  -0.64727  -0.64016  -0.63545
 Alpha  occ. eigenvalues --   -0.62876  -0.62533  -0.61888  -0.60818  -0.60437
 Alpha  occ. eigenvalues --   -0.60301  -0.59357  -0.58110  -0.57754  -0.57349
 Alpha  occ. eigenvalues --   -0.56823  -0.55606  -0.55197  -0.54842  -0.53949
 Alpha  occ. eigenvalues --   -0.53279  -0.53045  -0.52725  -0.52344  -0.51982
 Alpha  occ. eigenvalues --   -0.51541  -0.51240  -0.50763  -0.49780  -0.49538
 Alpha  occ. eigenvalues --   -0.49189  -0.49035  -0.48857  -0.48379  -0.47976
 Alpha  occ. eigenvalues --   -0.47606  -0.47516  -0.47136  -0.46931  -0.46890
 Alpha  occ. eigenvalues --   -0.46119  -0.46071  -0.44842  -0.44382  -0.44231
 Alpha  occ. eigenvalues --   -0.43796  -0.43555  -0.42674  -0.42511  -0.42096
 Alpha  occ. eigenvalues --   -0.41332  -0.40353  -0.40038  -0.39613  -0.38785
 Alpha  occ. eigenvalues --   -0.38677  -0.38430  -0.37881  -0.37591  -0.35653
 Alpha  occ. eigenvalues --   -0.34905  -0.33663  -0.32914  -0.32725  -0.31332
 Alpha  occ. eigenvalues --   -0.29766  -0.27709  -0.26135  -0.25872  -0.23668
 Alpha  occ. eigenvalues --   -0.23100  -0.20661
 Alpha virt. eigenvalues --   -0.18860  -0.15100  -0.13980  -0.11105  -0.10650
 Alpha virt. eigenvalues --   -0.09368  -0.08651  -0.08315  -0.06663  -0.06093
 Alpha virt. eigenvalues --   -0.05738  -0.05060  -0.04141  -0.03466  -0.03073

 Mulliken charges:
               1
     1  N   -0.719466
     2  H    0.310899
     3  H    0.296004
     4  C   -0.040690
     5  H    0.138271
     6  C    0.611358
     7  C   -0.286000
     8  H    0.142325
     9  H    0.134737
    10  O   -0.543202
    11  C   -0.399604
    12  H    0.135970
    13  H    0.165327
    14  C    0.567694
    15  O   -0.667204
    16  O   -0.557783
    17  N   -0.587331
    18  H    0.344583
    19  C   -0.043444
    20  H    0.174848
    21  C    0.641848
    22  C   -0.364510
    23  H    0.167589
    24  H    0.176091
    25  O   -0.521280
    26  C    0.048723
    27  C   -0.000214
    28  H    0.154258
    29  C    0.075479
    30  C    0.313727
    31  C   -0.208748
    32  H    0.137119
    33  N   -0.695100
    34  H    0.312494
    35  C   -0.149240
    36  H    0.132358
    37  C   -0.163586
    38  H    0.116095
    39  C   -0.140001
    40  H    0.134921
    41  N   -0.606795
    42  H    0.364053
    43  C   -0.074896
    44  H    0.183534
    45  C    0.598134
    46  C    0.028030
    47  H    0.313399
    48  O   -0.495779
    49  C   -0.507915
    50  H    0.233339
    51  H    0.196437
    52  H    0.151416
    53  O   -0.615445
    54  H    0.491480
    55  N   -0.614229
    56  H    0.319639
    57  C   -0.048781
    58  H    0.235045
    59  C    0.632549
    60  C   -0.309577
    61  H    0.192311
    62  H    0.138298
    63  O   -0.496240
    64  C   -0.276613
    65  H    0.199816
    66  H    0.165134
    67  C   -0.206965
    68  H    0.216089
    69  H    0.197720
    70  N   -0.570822
    71  H    0.374180
    72  N   -0.728009
    73  H    0.394606
    74  H    0.394424
    75  N   -0.732638
    76  H    0.392476
    77  H    0.391936
    78  C    0.780933
    79  O   -0.539933
    80  H    0.447358
    81  H    0.446985
 Sum of Mulliken charges =   1.00000

 Dipole moment (field-independent basis, Debye):
    X=             31.4676    Y=             21.6604    Z=            -26.1286  Tot=             46.2826
 Quadrupole moment (field-independent basis, Debye-Ang):
   XX=            -84.7099   YY=           -113.2023   ZZ=           -215.0356
   XY=            111.8313   XZ=            -71.7553   YZ=           -112.4420

 Normal termination of Gaussian 16 at Thu May 26 18:16:34 2022.
