 Gaussian 16, Revision C.01,
 Gaussian 16:  ES64L-G16RevC.01  3-Jul-2019

 -------------------------------------------------------------------
 # B3LYP/6-31G* guess=read geom=check nosymm integral(ultrafinegrid)
 -------------------------------------------------------------------

 ------------------------------------------------------
 Candidate Structure: Conf:549 Charge calc in gas phase
 ------------------------------------------------------
 Structure from the checkpoint file:  "conf-549.chk"
 Charge =  1 Multiplicity = 1

                          Input orientation:
 ---------------------------------------------------------------------
 Center     Atomic      Atomic             Coordinates (Angstroms)
 Number     Number       Type             X           Y           Z
 ---------------------------------------------------------------------
      1          7           0       -4.967163    1.992564    3.096374
      2          1           0       -5.683734    1.293933    2.936552
      3          1           0       -5.313560    2.641353    3.793563
      4          6           0       -3.760002    1.354316    3.615211
      5          1           0       -3.147978    2.129892    4.084618
      6          6           0       -2.901203    0.788725    2.477638
      7          6           0       -4.009621    0.259169    4.665912
      8          1           0       -4.475988   -0.615470    4.203225
      9          1           0       -3.029810   -0.045289    5.046148
     10          8           0       -1.924273    0.076403    2.686499
     11          6           0       -4.868031    0.780206    5.815610
     12          1           0       -4.793651    0.131990    6.690051
     13          1           0       -5.915800    0.874784    5.523390
     14          6           0       -4.268234    2.156521    6.147407
     15          8           0       -4.915855    3.148656    5.747998
     16          8           0       -3.180365    2.146956    6.734976
     17          7           0       -3.299485    1.151235    1.246090
     18          1           0       -4.048974    1.823698    1.206205
     19          6           0       -2.563633    0.738800    0.073600
     20          1           0       -2.565467   -0.352706    0.036798
     21          6           0       -1.116984    1.204463    0.172308
     22          6           0       -3.195802    1.299247   -1.216064
     23          1           0       -3.219646    2.387150   -1.144581
     24          1           0       -4.216875    0.926491   -1.295251
     25          8           0       -0.800455    2.338567    0.476001
     26          6           0       -2.373228    0.905429   -2.411350
     27          6           0       -1.602246    1.736138   -3.173035
     28          1           0       -1.513702    2.811533   -3.143954
     29          6           0       -2.080477   -0.435729   -2.842294
     30          6           0       -1.117570   -0.347929   -3.857128
     31          6           0       -2.516599   -1.692042   -2.398375
     32          1           0       -3.249749   -1.763284   -1.600272
     33          7           0       -0.853273    0.987023   -4.059499
     34          1           0       -0.149796    1.341558   -4.681881
     35          6           0       -1.024781   -2.721136   -4.015004
     36          1           0       -0.626320   -3.621784   -4.463228
     37          6           0       -0.585977   -1.480760   -4.468886
     38          1           0        0.149491   -1.396145   -5.262170
     39          6           0       -1.982579   -2.824863   -2.994134
     40          1           0       -2.306821   -3.804539   -2.668184
     41          7           0       -0.203781    0.243412   -0.157372
     42          1           0       -0.519196   -0.596041   -0.621069
     43          6           0        1.211909    0.562550   -0.254442
     44          1           0        1.302768    1.626149   -0.449108
     45          6           0        1.790476   -0.279918   -1.372533
     46          6           0        1.945819    0.202105    1.046576
     47          1           0        3.020614    0.315185    0.889907
     48          8           0        1.762219   -1.522665   -1.298018
     49          6           0        1.475297    0.998809    2.242376
     50          1           0        1.546293    2.070054    2.046828
     51          1           0        2.078873    0.754484    3.116333
     52          1           0        0.442402    0.754589    2.461322
     53          8           0        1.705455   -1.237343    1.309369
     54          1           0        0.760867   -1.291864    1.589382
     55          7           0        2.282194    0.354207   -2.443253
     56          1           0        2.457212    1.343522   -2.396661
     57          6           0        2.983197   -0.395699   -3.477213
     58          1           0        2.379446   -1.279455   -3.702556
     59          6           0        4.340381   -0.897045   -3.023904
     60          6           0        3.137559    0.482064   -4.720644
     61          1           0        3.636997    1.408132   -4.423594
     62          1           0        2.128228    0.757198   -5.051866
     63          8           0        4.878190   -1.868006   -3.504221
     64          6           0        3.896229   -0.147855   -5.885496
     65          1           0        3.907818    0.564147   -6.713315
     66          1           0        4.937557   -0.323204   -5.615825
     67          6           0        3.293775   -1.459891   -6.369434
     68          1           0        3.279180   -2.190061   -5.562595
     69          1           0        2.260711   -1.303224   -6.684393
     70          7           0        3.986518   -2.034802   -7.538180
     71          1           0        3.781059   -1.591908   -8.421847
     72          7           0        5.737090   -2.944349   -6.288141
     73          1           0        6.711938   -3.199622   -6.254099
     74          1           0        5.368790   -2.552370   -5.432132
     75          7           0        5.827082   -2.931649   -8.629720
     76          1           0        5.231184   -3.026607   -9.444069
     77          1           0        6.529332   -3.657071   -8.566042
     78          6           0        5.182718   -2.634698   -7.465665
     79          8           0        4.925265   -0.125799   -2.091659
     80          1           0        5.790505   -0.517050   -1.915695
     81          1           0        1.734987   -1.621876    0.372211
 ---------------------------------------------------------------------

 SCF Done:  E(RB3LYP) =  -2053.76265650     A.U. after    4 cycles

 Alpha  occ. eigenvalues --  -19.43103 -19.35680 -19.30440 -19.30087 -19.21684
 Alpha  occ. eigenvalues --  -19.15829 -19.04061 -19.03905 -14.55589 -14.54672
 Alpha  occ. eigenvalues --  -14.54657 -14.53623 -14.48290 -14.48153 -14.40206
 Alpha  occ. eigenvalues --  -14.31922 -10.50562 -10.48041 -10.45776 -10.41889
 Alpha  occ. eigenvalues --  -10.40311 -10.39903 -10.38732 -10.38492 -10.36514
 Alpha  occ. eigenvalues --  -10.35714 -10.32068 -10.31752 -10.31600 -10.31334
 Alpha  occ. eigenvalues --  -10.29647 -10.29627 -10.28701 -10.28438 -10.28189
 Alpha  occ. eigenvalues --  -10.28092 -10.27832 -10.27730 -10.22415 -10.21484
 Alpha  occ. eigenvalues --  -10.17735 -10.14554  -1.30758  -1.27169  -1.21565
 Alpha  occ. eigenvalues --   -1.19872  -1.18121  -1.14378  -1.10584  -1.09526
 Alpha  occ. eigenvalues --   -1.08521  -1.08038  -1.07900  -1.05373  -0.98283
 Alpha  occ. eigenvalues --   -0.98087  -0.97933  -0.94663  -0.94299  -0.92134
 Alpha  occ. eigenvalues --   -0.90688  -0.89592  -0.88721  -0.87206  -0.85586
 Alpha  occ. eigenvalues --   -0.84373  -0.83762  -0.82070  -0.81681  -0.80569
 Alpha  occ. eigenvalues --   -0.79496  -0.77241  -0.77058  -0.76416  -0.76068
 Alpha  occ. eigenvalues --   -0.75599  -0.74749  -0.73203  -0.72540  -0.71910
 Alpha  occ. eigenvalues --   -0.70278  -0.69491  -0.69054  -0.68038  -0.67657
 Alpha  occ. eigenvalues --   -0.67505  -0.66441  -0.66020  -0.65760  -0.65053
 Alpha  occ. eigenvalues --   -0.64442  -0.63902  -0.63536  -0.62756  -0.62396
 Alpha  occ. eigenvalues --   -0.61471  -0.60323  -0.60085  -0.59465  -0.59090
 Alpha  occ. eigenvalues --   -0.58340  -0.57877  -0.57680  -0.57182  -0.56895
 Alpha  occ. eigenvalues --   -0.56635  -0.56010  -0.55522  -0.54900  -0.54116
 Alpha  occ. eigenvalues --   -0.53641  -0.53341  -0.52953  -0.52760  -0.51861
 Alpha  occ. eigenvalues --   -0.51691  -0.51448  -0.51177  -0.51023  -0.49983
 Alpha  occ. eigenvalues --   -0.49856  -0.49280  -0.48546  -0.48045  -0.47975
 Alpha  occ. eigenvalues --   -0.46972  -0.46670  -0.46379  -0.46221  -0.45845
 Alpha  occ. eigenvalues --   -0.44768  -0.44652  -0.44519  -0.43908  -0.43715
 Alpha  occ. eigenvalues --   -0.43701  -0.42728  -0.42558  -0.42234  -0.41093
 Alpha  occ. eigenvalues --   -0.38275  -0.38045  -0.37130  -0.36654  -0.35881
 Alpha  occ. eigenvalues --   -0.35456  -0.34370  -0.32597  -0.32248  -0.31144
 Alpha  occ. eigenvalues --   -0.30956  -0.30230  -0.29628  -0.25099  -0.19773
 Alpha  occ. eigenvalues --   -0.17898  -0.17269
 Alpha virt. eigenvalues --   -0.16601  -0.16241  -0.15205  -0.11540  -0.11493
 Alpha virt. eigenvalues --   -0.10319  -0.09141  -0.07727  -0.07540  -0.07059
 Alpha virt. eigenvalues --   -0.06831  -0.06556  -0.05931  -0.04897  -0.04166

 Mulliken charges:
               1
     1  N   -0.780924
     2  H    0.288581
     3  H    0.361661
     4  C   -0.086085
     5  H    0.219251
     6  C    0.626100
     7  C   -0.265424
     8  H    0.095081
     9  H    0.158426
    10  O   -0.597294
    11  C   -0.322141
    12  H    0.130197
    13  H    0.109257
    14  C    0.552668
    15  O   -0.574717
    16  O   -0.553841
    17  N   -0.607743
    18  H    0.362224
    19  C   -0.012289
    20  H    0.143511
    21  C    0.657646
    22  C   -0.377098
    23  H    0.184753
    24  H    0.183697
    25  O   -0.510247
    26  C    0.052816
    27  C   -0.001655
    28  H    0.176077
    29  C    0.059579
    30  C    0.319974
    31  C   -0.227409
    32  H    0.161011
    33  N   -0.704876
    34  H    0.322384
    35  C   -0.148983
    36  H    0.132484
    37  C   -0.174109
    38  H    0.095892
    39  C   -0.141748
    40  H    0.149055
    41  N   -0.643998
    42  H    0.358995
    43  C   -0.093412
    44  H    0.209900
    45  C    0.660849
    46  C    0.037017
    47  H    0.206596
    48  O   -0.571378
    49  C   -0.496811
    50  H    0.217541
    51  H    0.199515
    52  H    0.246704
    53  O   -0.585483
    54  H    0.496315
    55  N   -0.604451
    56  H    0.360026
    57  C   -0.045901
    58  H    0.226105
    59  C    0.611647
    60  C   -0.319133
    61  H    0.181750
    62  H    0.169848
    63  O   -0.486504
    64  C   -0.283005
    65  H    0.177153
    66  H    0.164125
    67  C   -0.198300
    68  H    0.205541
    69  H    0.199127
    70  N   -0.578526
    71  H    0.365998
    72  N   -0.765394
    73  H    0.379425
    74  H    0.425265
    75  N   -0.733876
    76  H    0.376560
    77  H    0.377414
    78  C    0.740730
    79  O   -0.559879
    80  H    0.436420
    81  H    0.479745
 Sum of Mulliken charges =   1.00000

 Dipole moment (field-independent basis, Debye):
    X=             36.0469    Y=            -15.7062    Z=            -49.8002  Tot=             63.4517
 Quadrupole moment (field-independent basis, Debye-Ang):
   XX=           -136.4416   YY=           -236.0117   ZZ=           -111.6997
   XY=            -12.6070   XZ=            -84.6575   YZ=              7.0106

 Normal termination of Gaussian 16 at Thu May 26 18:17:49 2022.
