 Gaussian 16, Revision C.01,
 Gaussian 16:  ES64L-G16RevC.01  3-Jul-2019

 -------------------------------------------------------------------
 # B3LYP/6-31G* guess=read geom=check nosymm integral(ultrafinegrid)
 -------------------------------------------------------------------

 ------------------------------------------------------
 Candidate Structure: Conf:472 Charge calc in gas phase
 ------------------------------------------------------
 Structure from the checkpoint file:  "conf-472.chk"
 Charge =  1 Multiplicity = 1

                          Input orientation:
 ---------------------------------------------------------------------
 Center     Atomic      Atomic             Coordinates (Angstroms)
 Number     Number       Type             X           Y           Z
 ---------------------------------------------------------------------
      1          7           0       -2.402690   -2.002516    3.165608
      2          1           0       -2.378961   -2.796970    2.533471
      3          1           0       -1.512931   -1.913008    3.650762
      4          6           0       -2.859624   -0.763783    2.542735
      5          1           0       -3.790323   -1.020344    2.017087
      6          6           0       -1.934793   -0.202710    1.445056
      7          6           0       -3.180449    0.293522    3.639975
      8          1           0       -2.799057   -0.102877    4.586623
      9          1           0       -2.635371    1.223334    3.450449
     10          8           0       -1.073925   -1.100235    0.870340
     11          6           0       -4.677722    0.577925    3.826184
     12          1           0       -4.829434    1.139793    4.755982
     13          1           0       -5.229851   -0.359564    3.959719
     14          6           0       -5.421018    1.377395    2.749319
     15          8           0       -6.618250    1.530156    2.801819
     16          8           0       -4.708205    1.918595    1.740066
     17          7           0       -2.029731    1.001700    1.056912
     18          1           0       -3.751669    1.689742    1.739976
     19          6           0       -1.154548    1.556985    0.006873
     20          1           0       -0.940079    0.791452   -0.751065
     21          6           0        0.199655    1.943799    0.662080
     22          6           0       -1.833696    2.758823   -0.672367
     23          1           0       -1.054611    3.359450   -1.156443
     24          1           0       -2.267282    3.397053    0.104015
     25          8           0        0.582922    3.086921    0.862798
     26          6           0       -2.870590    2.343633   -1.676059
     27          6           0       -4.219182    2.185719   -1.466651
     28          1           0       -4.800318    2.339506   -0.566236
     29          6           0       -2.628594    1.987748   -3.053451
     30          6           0       -3.882481    1.621984   -3.622690
     31          6           0       -1.484194    1.956496   -3.869777
     32          1           0       -0.515862    2.249552   -3.468841
     33          7           0       -4.827507    1.749370   -2.628299
     34          1           0       -5.817937    1.591892   -2.735465
     35          6           0       -2.859788    1.207475   -5.738909
     36          1           0       -2.930816    0.916162   -6.783505
     37          6           0       -4.011198    1.230585   -4.959011
     38          1           0       -4.976972    0.959764   -5.377541
     39          6           0       -1.608456    1.569588   -5.199472
     40          1           0       -0.730891    1.560864   -5.842963
     41          7           0        0.938093    0.831689    0.961813
     42          1           0        0.491691   -0.068769    0.816814
     43          6           0        2.126360    0.797124    1.793931
     44          1           0        2.313247    1.810851    2.163029
     45          6           0        3.255881    0.324666    0.871918
     46          6           0        1.912717   -0.194323    2.964784
     47          1           0        2.890904   -0.402068    3.421041
     48          8           0        3.514870   -0.873571    0.714394
     49          6           0        0.967743    0.346285    4.027304
     50          1           0        1.401121    1.225047    4.516316
     51          1           0        0.794367   -0.418312    4.791207
     52          1           0        0.005868    0.640836    3.594922
     53          8           0        1.364529   -1.417586    2.442943
     54          1           0       -0.750770   -1.706866    1.568598
     55          7           0        3.879519    1.304556    0.164967
     56          1           0        3.552075    2.259236    0.257609
     57          6           0        4.720367    0.976120   -0.977291
     58          1           0        5.357612    0.131642   -0.699219
     59          6           0        5.641682    2.131438   -1.349680
     60          6           0        3.851097    0.560163   -2.196208
     61          1           0        3.240859    1.420788   -2.500196
     62          1           0        3.169614   -0.213793   -1.828106
     63          8           0        6.597657    2.015734   -2.083268
     64          6           0        4.646117    0.017635   -3.390957
     65          1           0        5.348718    0.771836   -3.759580
     66          1           0        5.238503   -0.850563   -3.070083
     67          6           0        3.701746   -0.401952   -4.519875
     68          1           0        3.013265   -1.182883   -4.171338
     69          1           0        3.109818    0.456641   -4.857829
     70          7           0        4.474324   -0.906276   -5.673603
     71          1           0        5.432672   -1.183176   -5.496737
     72          7           0        2.688181   -0.953358   -7.153103
     73          1           0        2.335033   -0.881521   -8.097282
     74          1           0        2.013974   -0.913827   -6.401602
     75          7           0        4.834316   -1.348307   -7.926786
     76          1           0        5.836342   -1.266803   -7.824223
     77          1           0        4.488885   -1.703154   -8.807929
     78          6           0        4.000784   -1.073267   -6.908385
     79          8           0        5.235197    3.307515   -0.829993
     80          1           0        5.864396    3.994396   -1.124904
     81          1           0        2.057704   -1.760178    1.843571
 ---------------------------------------------------------------------

 SCF Done:  E(RB3LYP) =  -2053.89905793     A.U. after    1 cycles

 Alpha  occ. eigenvalues --  -19.30479 -19.27084 -19.24544 -19.22889 -19.22224
 Alpha  occ. eigenvalues --  -19.21920 -19.19018 -19.16053 -14.55280 -14.55254
 Alpha  occ. eigenvalues --  -14.55135 -14.46134 -14.43003 -14.42761 -14.40420
 Alpha  occ. eigenvalues --  -14.40144 -10.51641 -10.42904 -10.38534 -10.38533
 Alpha  occ. eigenvalues --  -10.36202 -10.35924 -10.35267 -10.34923 -10.32497
 Alpha  occ. eigenvalues --  -10.32428 -10.31567 -10.31354 -10.30756 -10.29517
 Alpha  occ. eigenvalues --  -10.27288 -10.26406 -10.25706 -10.25464 -10.25073
 Alpha  occ. eigenvalues --  -10.24662 -10.24599 -10.24410 -10.24403 -10.24328
 Alpha  occ. eigenvalues --  -10.23859 -10.23112  -1.21319  -1.19973  -1.15784
 Alpha  occ. eigenvalues --   -1.13754  -1.12757  -1.12310  -1.10713  -1.09873
 Alpha  occ. eigenvalues --   -1.09177  -1.08121  -1.04445  -1.02941  -1.02900
 Alpha  occ. eigenvalues --   -1.00219  -0.98968  -0.96865  -0.93856  -0.89478
 Alpha  occ. eigenvalues --   -0.88545  -0.86675  -0.85350  -0.84671  -0.83231
 Alpha  occ. eigenvalues --   -0.82023  -0.80974  -0.79302  -0.78931  -0.77780
 Alpha  occ. eigenvalues --   -0.77520  -0.76069  -0.74890  -0.73347  -0.71796
 Alpha  occ. eigenvalues --   -0.70976  -0.70165  -0.69114  -0.68649  -0.67902
 Alpha  occ. eigenvalues --   -0.67771  -0.67120  -0.66480  -0.65817  -0.64990
 Alpha  occ. eigenvalues --   -0.64529  -0.64457  -0.63415  -0.62402  -0.61784
 Alpha  occ. eigenvalues --   -0.61031  -0.60104  -0.59775  -0.58915  -0.58596
 Alpha  occ. eigenvalues --   -0.58082  -0.57703  -0.57181  -0.57058  -0.56922
 Alpha  occ. eigenvalues --   -0.56036  -0.55630  -0.54246  -0.53603  -0.53399
 Alpha  occ. eigenvalues --   -0.53135  -0.52664  -0.52632  -0.51999  -0.51206
 Alpha  occ. eigenvalues --   -0.51034  -0.50248  -0.49680  -0.49324  -0.48892
 Alpha  occ. eigenvalues --   -0.48814  -0.48516  -0.48243  -0.48021  -0.47706
 Alpha  occ. eigenvalues --   -0.47319  -0.46901  -0.46591  -0.46289  -0.46214
 Alpha  occ. eigenvalues --   -0.46133  -0.45651  -0.45518  -0.44764  -0.44719
 Alpha  occ. eigenvalues --   -0.44264  -0.43925  -0.43508  -0.43137  -0.43015
 Alpha  occ. eigenvalues --   -0.42367  -0.42185  -0.41627  -0.40882  -0.40663
 Alpha  occ. eigenvalues --   -0.39898  -0.38981  -0.38732  -0.38545  -0.36576
 Alpha  occ. eigenvalues --   -0.36233  -0.36040  -0.35423  -0.35271  -0.34196
 Alpha  occ. eigenvalues --   -0.33028  -0.32279  -0.31654  -0.31420  -0.29977
 Alpha  occ. eigenvalues --   -0.27769  -0.25457
 Alpha virt. eigenvalues --   -0.15262  -0.11178  -0.10079  -0.08206  -0.07721
 Alpha virt. eigenvalues --   -0.07487  -0.06583  -0.06515  -0.05826  -0.03773
 Alpha virt. eigenvalues --   -0.03382  -0.03165  -0.02621  -0.02394  -0.02078

 Mulliken charges:
               1
     1  N   -0.739482
     2  H    0.315994
     3  H    0.319024
     4  C   -0.036206
     5  H    0.191007
     6  C    0.516321
     7  C   -0.313281
     8  H    0.168663
     9  H    0.172726
    10  O   -0.631239
    11  C   -0.381940
    12  H    0.191086
    13  H    0.192969
    14  C    0.574244
    15  O   -0.447645
    16  O   -0.613155
    17  N   -0.479065
    18  H    0.455753
    19  C   -0.080192
    20  H    0.160485
    21  C    0.603830
    22  C   -0.357804
    23  H    0.158365
    24  H    0.174455
    25  O   -0.515327
    26  C    0.042162
    27  C   -0.006140
    28  H    0.208701
    29  C    0.085207
    30  C    0.316037
    31  C   -0.212688
    32  H    0.100729
    33  N   -0.690672
    34  H    0.337392
    35  C   -0.153235
    36  H    0.116747
    37  C   -0.159686
    38  H    0.133383
    39  C   -0.139296
    40  H    0.073916
    41  N   -0.632327
    42  H    0.383933
    43  C   -0.095512
    44  H    0.184572
    45  C    0.653353
    46  C    0.133512
    47  H    0.148819
    48  O   -0.555942
    49  C   -0.477332
    50  H    0.168289
    51  H    0.170368
    52  H    0.161879
    53  O   -0.671271
    54  H    0.420598
    55  N   -0.617271
    56  H    0.372254
    57  C   -0.044843
    58  H    0.212156
    59  C    0.595768
    60  C   -0.287341
    61  H    0.161574
    62  H    0.187411
    63  O   -0.457757
    64  C   -0.321215
    65  H    0.196705
    66  H    0.170422
    67  C   -0.145625
    68  H    0.191787
    69  H    0.190921
    70  N   -0.610735
    71  H    0.372105
    72  N   -0.755571
    73  H    0.391266
    74  H    0.401059
    75  N   -0.762120
    76  H    0.390197
    77  H    0.390235
    78  C    0.841868
    79  O   -0.563594
    80  H    0.432754
    81  H    0.422508
 Sum of Mulliken charges =   1.00000

 Dipole moment (field-independent basis, Debye):
    X=             21.4234    Y=             -6.5787    Z=            -26.9521  Tot=             35.0522
 Quadrupole moment (field-independent basis, Debye-Ang):
   XX=           -176.5801   YY=           -240.9221   ZZ=            -13.7631
   XY=              6.4268   XZ=           -100.1714   YZ=             34.0377

 Normal termination of Gaussian 16 at Thu May 26 18:16:29 2022.
