 Gaussian 16, Revision C.01,
 Gaussian 16:  ES64L-G16RevC.01  3-Jul-2019

 -------------------------------------------------------------------
 # B3LYP/6-31G* guess=read geom=check nosymm integral(ultrafinegrid)
 -------------------------------------------------------------------

 ------------------------------------------------------
 Candidate Structure: Conf:102 Charge calc in gas phase
 ------------------------------------------------------
 Structure from the checkpoint file:  "conf-102.chk"
 Charge =  1 Multiplicity = 1

                          Input orientation:
 ---------------------------------------------------------------------
 Center     Atomic      Atomic             Coordinates (Angstroms)
 Number     Number       Type             X           Y           Z
 ---------------------------------------------------------------------
      1          7           0       -5.864872    1.063624    3.800035
      2          1           0       -6.083960    1.489238    4.700748
      3          1           0       -6.446234    1.529758    3.101866
      4          6           0       -4.440218    1.256350    3.510847
      5          1           0       -4.148312    2.326496    3.484221
      6          6           0       -4.055019    0.603792    2.175491
      7          6           0       -3.572535    0.534242    4.566989
      8          1           0       -3.676656    1.012752    5.547922
      9          1           0       -3.955073   -0.486173    4.667631
     10          8           0       -4.218903   -0.586101    1.945588
     11          6           0       -2.114286    0.496485    4.125590
     12          1           0       -1.763959    1.494630    3.832872
     13          1           0       -2.033542   -0.146151    3.236673
     14          6           0       -1.078397   -0.053986    5.130088
     15          8           0        0.130542   -0.121390    4.622102
     16          8           0       -1.417994   -0.378184    6.258187
     17          7           0       -3.424810    1.422747    1.227946
     18          1           0       -3.185053    2.373421    1.493691
     19          6           0       -2.468174    0.789531    0.337457
     20          1           0       -2.696024   -0.280807    0.408368
     21          6           0       -1.005399    1.036923    0.801592
     22          6           0       -2.653858    1.262510   -1.142087
     23          1           0       -3.665408    0.959420   -1.430224
     24          1           0       -1.945403    0.724757   -1.785102
     25          8           0       -0.631390    1.939039    1.540003
     26          6           0       -2.512101    2.751011   -1.354274
     27          6           0       -3.498962    3.685001   -1.119148
     28          1           0       -4.515168    3.534804   -0.780406
     29          6           0       -1.354401    3.499756   -1.781412
     30          6           0       -1.721714    4.882619   -1.794550
     31          6           0       -0.044399    3.151668   -2.158084
     32          1           0        0.272943    2.112727   -2.154654
     33          7           0       -3.032120    4.958661   -1.385874
     34          1           0       -3.560712    5.812177   -1.258551
     35          6           0        0.451539    5.518044   -2.546476
     36          1           0        1.168517    6.280038   -2.851646
     37          6           0       -0.834699    5.896946   -2.174452
     38          1           0       -1.142671    6.939328   -2.178931
     39          6           0        0.840433    4.159064   -2.536411
     40          1           0        1.858471    3.896861   -2.818796
     41          7           0       -0.109730    0.122672    0.296926
     42          1           0       -0.398591   -0.514555   -0.442649
     43          6           0        1.335060    0.248216    0.389771
     44          1           0        1.598977    1.312750    0.466611
     45          6           0        1.856918   -0.311913   -0.973476
     46          6           0        1.958043   -0.505069    1.598353
     47          1           0        1.644527   -1.543399    1.524201
     48          8           0        1.155912   -1.054010   -1.651970
     49          6           0        3.475915   -0.421162    1.682693
     50          1           0        3.933695   -1.062659    0.921313
     51          1           0        3.824423   -0.766751    2.660166
     52          1           0        3.834303    0.606482    1.531616
     53          8           0        1.490232    0.055171    2.901060
     54          1           0        1.159430    1.005258    2.892701
     55          7           0        3.092880    0.109094   -1.401932
     56          1           0        3.739204    0.484852   -0.716667
     57          6           0        3.656657   -0.418756   -2.646326
     58          1           0        2.824139   -0.556907   -3.338597
     59          6           0        4.298411   -1.806754   -2.490858
     60          6           0        4.688359    0.545617   -3.270431
     61          1           0        5.056620    0.061723   -4.184713
     62          1           0        5.553459    0.653002   -2.597790
     63          8           0        4.329729   -2.632308   -3.368747
     64          6           0        4.097383    1.923530   -3.616462
     65          1           0        3.161013    1.797944   -4.175331
     66          1           0        3.836513    2.467443   -2.697896
     67          6           0        5.084032    2.758348   -4.460030
     68          1           0        6.056861    2.862412   -3.963882
     69          1           0        5.278224    2.253710   -5.410854
     70          7           0        4.591266    4.103803   -4.818503
     71          1           0        3.952314    4.130602   -5.608587
     72          7           0        4.968304    5.112534   -2.739062
     73          1           0        5.196340    5.971284   -2.248826
     74          1           0        5.482435    4.297992   -2.429105
     75          7           0        3.978418    6.309862   -4.459711
     76          1           0        3.985574    6.457738   -5.463170
     77          1           0        4.156903    7.163889   -3.941311
     78          6           0        4.540383    5.169225   -4.007833
     79          8           0        4.877148   -1.970186   -1.271356
     80          1           0        5.291839   -2.861609   -1.271654
     81          1           0        0.782707   -0.343379    3.547145
 ---------------------------------------------------------------------

 SCF Done:  E(RB3LYP) =  -2053.82486421     A.U. after    1 cycles

 Alpha  occ. eigenvalues --  -19.31478 -19.31171 -19.25130 -19.24826 -19.20862
 Alpha  occ. eigenvalues --  -19.16006 -19.11512 -19.10019 -14.57448 -14.57270
 Alpha  occ. eigenvalues --  -14.56669 -14.49337 -14.46011 -14.45059 -14.40894
 Alpha  occ. eigenvalues --  -14.35019 -10.53441 -10.43306 -10.42009 -10.40708
 Alpha  occ. eigenvalues --  -10.37813 -10.37551 -10.36743 -10.35919 -10.34944
 Alpha  occ. eigenvalues --  -10.34114 -10.32983 -10.30231 -10.30221 -10.29620
 Alpha  occ. eigenvalues --  -10.29442 -10.28862 -10.27638 -10.27581 -10.27551
 Alpha  occ. eigenvalues --  -10.27497 -10.27129 -10.26846 -10.26118 -10.25995
 Alpha  occ. eigenvalues --  -10.20215 -10.19678  -1.21942  -1.21538  -1.18835
 Alpha  occ. eigenvalues --   -1.16776  -1.12813  -1.12550  -1.11152  -1.10167
 Alpha  occ. eigenvalues --   -1.07936  -1.05820  -1.05497  -1.03564  -1.01855
 Alpha  occ. eigenvalues --   -0.97273  -0.95820  -0.95696  -0.92295  -0.91983
 Alpha  occ. eigenvalues --   -0.91369  -0.89743  -0.87841  -0.85342  -0.83925
 Alpha  occ. eigenvalues --   -0.82381  -0.81999  -0.81359  -0.80305  -0.79138
 Alpha  occ. eigenvalues --   -0.79005  -0.76298  -0.75206  -0.74707  -0.73986
 Alpha  occ. eigenvalues --   -0.72467  -0.72111  -0.70859  -0.70288  -0.70230
 Alpha  occ. eigenvalues --   -0.69207  -0.69027  -0.67690  -0.66815  -0.65662
 Alpha  occ. eigenvalues --   -0.65025  -0.64494  -0.64137  -0.63818  -0.63506
 Alpha  occ. eigenvalues --   -0.62634  -0.62052  -0.61667  -0.60780  -0.59639
 Alpha  occ. eigenvalues --   -0.58959  -0.58320  -0.57035  -0.56949  -0.56365
 Alpha  occ. eigenvalues --   -0.56138  -0.55900  -0.55623  -0.54218  -0.53762
 Alpha  occ. eigenvalues --   -0.53520  -0.53060  -0.52650  -0.52332  -0.51962
 Alpha  occ. eigenvalues --   -0.51821  -0.51649  -0.51032  -0.50962  -0.50535
 Alpha  occ. eigenvalues --   -0.50408  -0.50035  -0.49794  -0.49439  -0.49157
 Alpha  occ. eigenvalues --   -0.48932  -0.48557  -0.48305  -0.48008  -0.47324
 Alpha  occ. eigenvalues --   -0.46957  -0.46239  -0.45775  -0.45555  -0.45468
 Alpha  occ. eigenvalues --   -0.44482  -0.43995  -0.43856  -0.43021  -0.42903
 Alpha  occ. eigenvalues --   -0.41980  -0.41795  -0.41649  -0.41186  -0.40825
 Alpha  occ. eigenvalues --   -0.38876  -0.38633  -0.38303  -0.37204  -0.36965
 Alpha  occ. eigenvalues --   -0.35767  -0.35275  -0.34753  -0.34418  -0.31197
 Alpha  occ. eigenvalues --   -0.30589  -0.29210  -0.28224  -0.27465  -0.27079
 Alpha  occ. eigenvalues --   -0.26398  -0.23716
 Alpha virt. eigenvalues --   -0.18102  -0.13455  -0.11480  -0.10581  -0.09947
 Alpha virt. eigenvalues --   -0.09553  -0.08492  -0.07576  -0.07018  -0.06079
 Alpha virt. eigenvalues --   -0.05374  -0.04385  -0.03800  -0.03483  -0.03370

 Mulliken charges:
               1
     1  N   -0.707738
     2  H    0.305937
     3  H    0.293034
     4  C   -0.039971
     5  H    0.095128
     6  C    0.590855
     7  C   -0.247050
     8  H    0.151788
     9  H    0.185663
    10  O   -0.491744
    11  C   -0.398186
    12  H    0.141226
    13  H    0.137368
    14  C    0.606106
    15  O   -0.715989
    16  O   -0.500518
    17  N   -0.593384
    18  H    0.331420
    19  C   -0.083122
    20  H    0.208321
    21  C    0.635695
    22  C   -0.357196
    23  H    0.184444
    24  H    0.146064
    25  O   -0.538328
    26  C    0.058437
    27  C    0.007471
    28  H    0.175545
    29  C    0.082006
    30  C    0.321503
    31  C   -0.211803
    32  H    0.118387
    33  N   -0.685140
    34  H    0.341027
    35  C   -0.150456
    36  H    0.089384
    37  C   -0.155051
    38  H    0.136990
    39  C   -0.148368
    40  H    0.066414
    41  N   -0.620941
    42  H    0.371299
    43  C   -0.084423
    44  H    0.178422
    45  C    0.611238
    46  C    0.146676
    47  H    0.205983
    48  O   -0.496810
    49  C   -0.503426
    50  H    0.185615
    51  H    0.215732
    52  H    0.140421
    53  O   -0.618504
    54  H    0.459972
    55  N   -0.614513
    56  H    0.339159
    57  C   -0.038834
    58  H    0.220809
    59  C    0.595717
    60  C   -0.311097
    61  H    0.193715
    62  H    0.157375
    63  O   -0.425355
    64  C   -0.279313
    65  H    0.184596
    66  H    0.164172
    67  C   -0.192917
    68  H    0.183947
    69  H    0.215065
    70  N   -0.579622
    71  H    0.382160
    72  N   -0.722012
    73  H    0.389374
    74  H    0.389075
    75  N   -0.719796
    76  H    0.387435
    77  H    0.383399
    78  C    0.780651
    79  O   -0.576229
    80  H    0.433876
    81  H    0.481745
 Sum of Mulliken charges =   1.00000

 Dipole moment (field-independent basis, Debye):
    X=             27.5770    Y=             28.7008    Z=            -27.0633  Tot=             48.1316
 Quadrupole moment (field-independent basis, Debye-Ang):
   XX=            -93.5416   YY=            -87.2215   ZZ=           -231.1204
   XY=             70.3246   XZ=            -71.3974   YZ=            -85.9343

 Normal termination of Gaussian 16 at Thu May 26 18:15:37 2022.
