 Gaussian 16, Revision C.01,
 Gaussian 16:  ES64L-G16RevC.01  3-Jul-2019

 -------------------------------------------------------------------
 # B3LYP/6-31G* guess=read geom=check nosymm integral(ultrafinegrid)
 -------------------------------------------------------------------

 ------------------------------------------------------
 Candidate Structure: Conf:662 Charge calc in gas phase
 ------------------------------------------------------
 Structure from the checkpoint file:  "conf-662.chk"
 Charge =  1 Multiplicity = 1

                          Input orientation:
 ---------------------------------------------------------------------
 Center     Atomic      Atomic             Coordinates (Angstroms)
 Number     Number       Type             X           Y           Z
 ---------------------------------------------------------------------
      1          7           0       -3.863128    1.674204    4.770759
      2          1           0       -3.980467    2.294720    5.565195
      3          1           0       -4.713693    1.744043    4.219978
      4          6           0       -2.707509    2.114620    3.984324
      5          1           0       -2.787793    3.173284    3.669585
      6          6           0       -2.636640    1.261703    2.721178
      7          6           0       -1.416049    1.937824    4.779996
      8          1           0       -1.332115    0.892163    5.082241
      9          1           0       -0.568127    2.160014    4.124166
     10          8           0       -2.034277    0.191786    2.676383
     11          6           0       -1.291142    2.829970    6.014630
     12          1           0       -2.039575    2.570008    6.770392
     13          1           0       -1.385458    3.885343    5.743470
     14          6           0        0.132538    2.556147    6.564723
     15          8           0        1.038119    3.291107    6.115790
     16          8           0        0.236633    1.595478    7.355889
     17          7           0       -3.320005    1.724798    1.625257
     18          1           0       -3.418160    2.728105    1.525396
     19          6           0       -3.031193    1.019836    0.388010
     20          1           0       -3.228344   -0.037286    0.587420
     21          6           0       -1.534417    1.167992    0.109849
     22          6           0       -3.951077    1.473010   -0.760699
     23          1           0       -4.975269    1.242815   -0.452184
     24          1           0       -3.728500    0.872108   -1.648353
     25          8           0       -0.872569    2.124084    0.485377
     26          6           0       -3.839959    2.937551   -1.068895
     27          6           0       -4.563942    3.940417   -0.476927
     28          1           0       -5.359619    3.879261    0.249845
     29          6           0       -2.922856    3.579528   -1.978554
     30          6           0       -3.138152    4.971928   -1.876924
     31          6           0       -1.942706    3.104448   -2.863560
     32          1           0       -1.746542    2.039235   -2.960490
     33          7           0       -4.144149    5.163017   -0.954067
     34          1           0       -4.500885    6.053368   -0.658089
     35          6           0       -1.452560    5.401855   -3.496081
     36          1           0       -0.870870    6.091451   -4.097951
     37          6           0       -2.411671    5.900626   -2.626813
     38          1           0       -2.594724    6.966037   -2.532454
     39          6           0       -1.219771    4.018143   -3.614993
     40          1           0       -0.465997    3.663916   -4.308556
     41          7           0       -0.949538    0.139459   -0.576349
     42          1           0       -1.446347   -0.721251   -0.749915
     43          6           0        0.491435    0.047751   -0.556379
     44          1           0        0.887869    1.013030   -0.888277
     45          6           0        0.916662   -1.085135   -1.479080
     46          6           0        1.014128   -0.200132    0.899729
     47          1           0        0.862544    0.716454    1.467563
     48          8           0        0.299978   -2.140025   -1.522963
     49          6           0        0.392244   -1.376268    1.617894
     50          1           0       -0.662020   -1.160040    1.808786
     51          1           0        0.880717   -1.518193    2.583294
     52          1           0        0.474983   -2.290268    1.025756
     53          8           0        2.507574   -0.413185    0.884720
     54          1           0        2.779778   -1.235550    0.368615
     55          7           0        2.079149   -0.882037   -2.163527
     56          1           0        2.542574    0.008342   -2.100727
     57          6           0        2.803398   -2.010602   -2.733758
     58          1           0        2.051742   -2.800418   -2.842044
     59          6           0        3.850030   -2.534875   -1.766513
     60          6           0        3.403609   -1.670006   -4.101781
     61          1           0        4.309676   -1.071799   -3.964390
     62          1           0        2.677226   -1.041401   -4.624680
     63          8           0        4.913773   -3.025521   -2.053755
     64          6           0        3.705380   -2.898050   -4.959275
     65          1           0        4.436423   -3.535282   -4.457040
     66          1           0        2.789361   -3.484109   -5.081275
     67          6           0        4.222812   -2.510049   -6.338517
     68          1           0        3.480927   -1.879458   -6.839706
     69          1           0        5.147208   -1.923761   -6.242386
     70          7           0        4.447862   -3.718798   -7.147229
     71          1           0        4.794406   -4.513757   -6.625330
     72          7           0        5.040818   -2.490217   -9.064478
     73          1           0        5.052405   -2.476733  -10.073393
     74          1           0        4.709736   -1.649308   -8.619916
     75          7           0        5.218238   -4.832474   -9.033268
     76          1           0        4.755543   -5.669619   -8.702719
     77          1           0        5.372183   -4.811610  -10.031030
     78          6           0        4.885150   -3.666598   -8.423025
     79          8           0        3.473913   -2.409066   -0.437000
     80          1           0        4.172037   -2.872230    0.061292
     81          1           0        2.986207    0.331826    0.507127
 ---------------------------------------------------------------------

 SCF Done:  E(RB3LYP) =  -2053.71773906     A.U. after    4 cycles

 Alpha  occ. eigenvalues --  -19.43046 -19.37240 -19.29808 -19.26438 -19.20688
 Alpha  occ. eigenvalues --  -19.17263 -19.04592 -19.04469 -14.54880 -14.54620
 Alpha  occ. eigenvalues --  -14.54073 -14.52046 -14.46649 -14.44172 -14.41471
 Alpha  occ. eigenvalues --  -14.34050 -10.49573 -10.47333 -10.43543 -10.40428
 Alpha  occ. eigenvalues --  -10.39524 -10.39482 -10.37602 -10.37504 -10.34688
 Alpha  occ. eigenvalues --  -10.34483 -10.33335 -10.30526 -10.28360 -10.28322
 Alpha  occ. eigenvalues --  -10.28006 -10.27207 -10.25062 -10.24972 -10.24847
 Alpha  occ. eigenvalues --  -10.24624 -10.24589 -10.24559 -10.24474 -10.22029
 Alpha  occ. eigenvalues --  -10.17908 -10.15198  -1.30377  -1.26730  -1.18960
 Alpha  occ. eigenvalues --   -1.18873  -1.17730  -1.13483  -1.09137  -1.08831
 Alpha  occ. eigenvalues --   -1.08637  -1.07618  -1.04359  -1.03726  -0.98520
 Alpha  occ. eigenvalues --   -0.97625  -0.96519  -0.93115  -0.91506  -0.91357
 Alpha  occ. eigenvalues --   -0.90251  -0.88807  -0.87394  -0.85715  -0.84301
 Alpha  occ. eigenvalues --   -0.82191  -0.81154  -0.80688  -0.79905  -0.78839
 Alpha  occ. eigenvalues --   -0.78355  -0.77394  -0.76934  -0.76302  -0.75151
 Alpha  occ. eigenvalues --   -0.74278  -0.73367  -0.72799  -0.71189  -0.70031
 Alpha  occ. eigenvalues --   -0.68736  -0.68114  -0.68071  -0.67290  -0.66802
 Alpha  occ. eigenvalues --   -0.65896  -0.65215  -0.64428  -0.64265  -0.64125
 Alpha  occ. eigenvalues --   -0.63334  -0.62723  -0.62516  -0.61238  -0.60401
 Alpha  occ. eigenvalues --   -0.60173  -0.59921  -0.58809  -0.58213  -0.57732
 Alpha  occ. eigenvalues --   -0.57134  -0.56626  -0.55324  -0.55075  -0.54769
 Alpha  occ. eigenvalues --   -0.54433  -0.54027  -0.53723  -0.53529  -0.53005
 Alpha  occ. eigenvalues --   -0.52051  -0.51629  -0.50884  -0.50793  -0.50276
 Alpha  occ. eigenvalues --   -0.50080  -0.49887  -0.49720  -0.49507  -0.49029
 Alpha  occ. eigenvalues --   -0.48560  -0.48377  -0.48301  -0.47714  -0.47327
 Alpha  occ. eigenvalues --   -0.46164  -0.45977  -0.45473  -0.44609  -0.44393
 Alpha  occ. eigenvalues --   -0.44191  -0.44047  -0.43688  -0.42186  -0.41805
 Alpha  occ. eigenvalues --   -0.41196  -0.40706  -0.40199  -0.39833  -0.39627
 Alpha  occ. eigenvalues --   -0.39432  -0.36797  -0.36185  -0.35308  -0.35234
 Alpha  occ. eigenvalues --   -0.34668  -0.33731  -0.32639  -0.32502  -0.31320
 Alpha  occ. eigenvalues --   -0.30127  -0.28599  -0.26702  -0.26151  -0.19748
 Alpha  occ. eigenvalues --   -0.18239  -0.17209
 Alpha virt. eigenvalues --   -0.16517  -0.16076  -0.14170  -0.12063  -0.10915
 Alpha virt. eigenvalues --   -0.07891  -0.07687  -0.07409  -0.07106  -0.06314
 Alpha virt. eigenvalues --   -0.05678  -0.05489  -0.04893  -0.03674  -0.03480

 Mulliken charges:
               1
     1  N   -0.711987
     2  H    0.317693
     3  H    0.287348
     4  C   -0.061713
     5  H    0.102474
     6  C    0.636386
     7  C   -0.247145
     8  H    0.172188
     9  H    0.121712
    10  O   -0.539335
    11  C   -0.334612
    12  H    0.124639
    13  H    0.111939
    14  C    0.547566
    15  O   -0.558451
    16  O   -0.540211
    17  N   -0.592826
    18  H    0.343529
    19  C   -0.067832
    20  H    0.172917
    21  C    0.662863
    22  C   -0.363334
    23  H    0.178713
    24  H    0.151528
    25  O   -0.523916
    26  C    0.047847
    27  C   -0.007568
    28  H    0.167117
    29  C    0.097395
    30  C    0.318189
    31  C   -0.205712
    32  H    0.101893
    33  N   -0.686217
    34  H    0.339221
    35  C   -0.150088
    36  H    0.130397
    37  C   -0.153804
    38  H    0.139342
    39  C   -0.139154
    40  H    0.101698
    41  N   -0.623356
    42  H    0.359048
    43  C   -0.047128
    44  H    0.184665
    45  C    0.586805
    46  C    0.020385
    47  H    0.276066
    48  O   -0.490980
    49  C   -0.509552
    50  H    0.271495
    51  H    0.209982
    52  H    0.171199
    53  O   -0.629261
    54  H    0.514743
    55  N   -0.632314
    56  H    0.331848
    57  C   -0.058073
    58  H    0.237610
    59  C    0.601197
    60  C   -0.287960
    61  H    0.166627
    62  H    0.176073
    63  O   -0.426422
    64  C   -0.316697
    65  H    0.193902
    66  H    0.178181
    67  C   -0.153889
    68  H    0.178113
    69  H    0.187129
    70  N   -0.597050
    71  H    0.365272
    72  N   -0.734663
    73  H    0.378589
    74  H    0.384716
    75  N   -0.733274
    76  H    0.377712
    77  H    0.374047
    78  C    0.739029
    79  O   -0.641807
    80  H    0.455151
    81  H    0.472156
 Sum of Mulliken charges =   1.00000

 Dipole moment (field-independent basis, Debye):
    X=             19.4049    Y=            -16.9637    Z=            -52.8618  Tot=             58.8106
 Quadrupole moment (field-independent basis, Debye-Ang):
   XX=           -109.8679   YY=           -168.0627   ZZ=            -92.6121
   XY=           -106.3766   XZ=           -177.6493   YZ=             76.7230

 Normal termination of Gaussian 16 at Thu May 26 18:17:30 2022.
