 Gaussian 16, Revision C.01,
 Gaussian 16:  ES64L-G16RevC.01  3-Jul-2019

 ----------------------------------------------------------------------
 # B3LYP/6-31G* empiricaldispersion=gd3 guess=read geom=check nosymm in
 tegral(ultrafinegrid)
 ----------------------------------------------------------------------

 ------------------------------------------------------
 Candidate Structure: Conf:617 Charge calc in gas phase
 ------------------------------------------------------
 Structure from the checkpoint file:  "conf-617.chk"
 Charge =  1 Multiplicity = 1

                          Input orientation:
 ---------------------------------------------------------------------
 Center     Atomic      Atomic             Coordinates (Angstroms)
 Number     Number       Type             X           Y           Z
 ---------------------------------------------------------------------
      1          7           0       -4.803013    3.360966    0.465390
      2          1           0       -5.780445    3.206577    0.731987
      3          1           0       -4.336268    3.879252    1.238173
      4          1           0       -4.772599    3.887585   -0.427903
      5          6           0       -4.015870    2.079984    0.326921
      6          1           0       -4.673102    1.322809   -0.106177
      7          6           0       -3.541844    1.755700    1.748348
      8          6           0       -2.796311    2.359465   -0.592949
      9          1           0       -2.205529    1.443796   -0.690834
     10          1           0       -2.156523    3.104388   -0.106442
     11          8           0       -3.309173    2.706915    2.506573
     12          6           0       -3.236235    2.841466   -1.931853
     13          6           0       -3.526518    4.105183   -2.415325
     14          1           0       -3.323921    5.061095   -1.944723
     15          7           0       -3.619970    1.980927   -2.939957
     16          1           0       -3.371739    0.997987   -2.968337
     17          6           0       -4.071954    2.748217   -3.977718
     18          1           0       -4.415247    2.317329   -4.908919
     19          7           0       -4.041334    4.032683   -3.691122
     20          7           0       -3.352121    0.466478    2.025904
     21          1           0       -3.517547   -0.269483    1.339988
     22          6           0       -2.615658   -0.016549    3.201368
     23          1           0       -2.876794    0.606036    4.061530
     24          6           0       -1.122059    0.112604    2.840282
     25          6           0       -3.015211   -1.495301    3.415487
     26          1           0       -2.301129   -1.928852    4.127585
     27          8           0       -0.503384   -0.862070    2.384656
     28          6           0       -4.434280   -1.647728    3.941146
     29          1           0       -4.541109   -1.173683    4.922327
     30          1           0       -4.674216   -2.709658    4.035195
     31          1           0       -5.156701   -1.195473    3.252965
     32          8           0       -2.936787   -2.165797    2.157424
     33          1           0       -1.983568   -2.212356    1.947844
     34          7           0       -0.601551    1.346657    2.939571
     35          1           0       -1.184030    2.082416    3.323442
     36          6           0        0.642305    1.755762    2.260152
     37          1           0        0.699609    1.147301    1.350945
     38          6           0        1.912984    1.418928    3.075633
     39          6           0        0.565363    3.244209    1.899517
     40          1           0        0.715131    3.829475    2.814460
     41          1           0       -0.455636    3.452773    1.542014
     42          8           0        2.766438    2.270150    3.310134
     43          6           0        1.571027    3.718563    0.829102
     44          1           0        2.577895    3.479783    1.181846
     45          6           0        1.367142    3.021692   -0.522861
     46          1           0        0.342987    3.169848   -0.898979
     47          1           0        1.559661    1.947600   -0.478641
     48          1           0        2.057424    3.433432   -1.267647
     49          6           0        1.462651    5.241484    0.674443
     50          1           0        0.465277    5.534210    0.314262
     51          1           0        2.198594    5.611683   -0.047625
     52          1           0        1.641203    5.755732    1.625458
     53          7           0        2.039972    0.108896    3.411026
     54          1           0        1.342966   -0.532443    3.041034
     55          6           0        3.338288   -0.469201    3.771216
     56          1           0        3.919423    0.338982    4.225835
     57          6           0        4.053676   -0.923819    2.470825
     58          6           0        3.173502   -1.629417    4.745048
     59          1           0        4.148134   -2.061361    4.982972
     60          1           0        2.566824   -2.425853    4.301527
     61          1           0        2.695812   -1.282362    5.665815
     62          8           0        4.447216   -2.073655    2.305426
     63          7           0        4.140386    0.043149    1.517538
     64          1           0        3.966227    1.018178    1.746964
     65          6           0        4.743558   -0.186204    0.221682
     66          1           0        5.751209   -0.606041    0.355121
     67          6           0        4.884296    1.194746   -0.437749
     68          6           0        3.944524   -1.206815   -0.642235
     69          1           0        4.562051   -1.480698   -1.506651
     70          1           0        3.860149   -2.109461   -0.031646
     71          8           0        4.523589    2.223757    0.132166
     72          6           0        2.584914   -0.750072   -1.121617
     73          6           0        1.428562   -0.911687   -0.343961
     74          1           0        1.499070   -1.364010    0.640312
     75          6           0        2.435584   -0.181960   -2.393401
     76          1           0        3.300479   -0.048204   -3.035868
     77          6           0        0.172251   -0.520338   -0.813784
     78          1           0       -0.709281   -0.672610   -0.197727
     79          6           0        1.189206    0.211461   -2.873042
     80          1           0        1.119607    0.633589   -3.867884
     81          8           0       -1.201297    0.433415   -2.518777
     82          6           0        0.042298    0.046928   -2.086728
     83          7           0        5.446576    1.209379   -1.672694
     84          1           0        5.625303    0.349636   -2.175042
     85          6           0        5.590262    2.435967   -2.423247
     86          1           0        4.955277    3.183869   -1.937229
     87          6           0        5.090401    2.213215   -3.857194
     88          6           0        7.054518    2.953821   -2.409414
     89          1           0        7.186390    3.741214   -3.156354
     90          1           0        7.734560    2.128776   -2.637114
     91          8           0        4.918219    1.090540   -4.324347
     92          6           0        7.345379    3.558327   -1.050642
     93          8           0        7.093224    4.703663   -0.753849
     94          8           0        7.860775    2.652666   -0.190982
     95          7           0        4.843460    3.362402   -4.538777
     96          1           0        5.067217    4.247048   -4.101922
     97          6           0        4.388176    3.388806   -5.916318
     98          1           0        4.359354    2.345128   -6.247703
     99          6           0        5.353466    4.117040   -6.851314
    100          6           0        2.977348    4.002489   -6.035357
    101          1           0        2.718805    4.059687   -7.097467
    102          1           0        3.011033    5.036366   -5.662284
    103          8           0        5.118640    4.314852   -8.019808
    104          6           0        1.929050    3.205954   -5.253811
    105          1           0        1.839206    2.207467   -5.706899
    106          1           0        2.283633    3.041729   -4.227754
    107          6           0        0.564453    3.906220   -5.193910
    108          1           0        0.701760    4.913722   -4.778037
    109          1           0        0.154263    4.041625   -6.204545
    110          6           0       -0.448719    3.163957   -4.315174
    111          1           0       -1.333089    3.783214   -4.141835
    112          1           0        0.001528    2.966158   -3.334317
    113          7           0       -0.929744    1.866674   -4.855523
    114          1           0       -1.128395    0.876108   -3.420202
    115          1           0       -0.188264    1.408283   -5.384883
    116          1           0       -1.678858    2.033127   -5.525866
    117          8           0        6.484168    4.526445   -6.231095
    118          1           0        7.027006    4.974604   -6.908235
    119          1           0        7.944972    3.102439    0.671754
 ---------------------------------------------------------------------

 SCF Done:  E(RB3LYP) =  -2933.89339796     A.U. after    2 cycles

 Alpha  occ. eigenvalues --  -19.27804 -19.27616 -19.25760 -19.24674 -19.24393
 Alpha  occ. eigenvalues --  -19.24052 -19.21442 -19.20532 -19.19833 -19.19458
 Alpha  occ. eigenvalues --  -19.18974 -19.17346 -14.61490 -14.51297 -14.51077
 Alpha  occ. eigenvalues --  -14.47571 -14.44984 -14.43770 -14.43721 -14.43368
 Alpha  occ. eigenvalues --  -14.42430 -14.41146 -10.44844 -10.42031 -10.40696
 Alpha  occ. eigenvalues --  -10.39768 -10.38301 -10.37612 -10.36489 -10.36110
 Alpha  occ. eigenvalues --  -10.35983 -10.35687 -10.35340 -10.35087 -10.34839
 Alpha  occ. eigenvalues --  -10.34242 -10.32751 -10.32191 -10.32081 -10.32057
 Alpha  occ. eigenvalues --  -10.31979 -10.30377 -10.30257 -10.29249 -10.27720
 Alpha  occ. eigenvalues --  -10.27394 -10.27274 -10.27173 -10.27057 -10.26788
 Alpha  occ. eigenvalues --  -10.25965 -10.25859 -10.25843 -10.25823 -10.25685
 Alpha  occ. eigenvalues --  -10.25517 -10.25188 -10.24012 -10.23865 -10.23508
 Alpha  occ. eigenvalues --   -1.20234  -1.18277  -1.16506  -1.16001  -1.15436
 Alpha  occ. eigenvalues --   -1.13651  -1.12558  -1.12269  -1.12049  -1.11428
 Alpha  occ. eigenvalues --   -1.10858  -1.09293  -1.09021  -1.07569  -1.07517
 Alpha  occ. eigenvalues --   -1.03676  -1.01721  -1.00562  -0.99484  -0.99395
 Alpha  occ. eigenvalues --   -0.99358  -0.97846  -0.95206  -0.92161  -0.90368
 Alpha  occ. eigenvalues --   -0.89166  -0.88559  -0.87189  -0.87174  -0.85088
 Alpha  occ. eigenvalues --   -0.84252  -0.83893  -0.82631  -0.81706  -0.81467
 Alpha  occ. eigenvalues --   -0.80078  -0.79884  -0.78747  -0.76230  -0.75565
 Alpha  occ. eigenvalues --   -0.75065  -0.74972  -0.74488  -0.73645  -0.73350
 Alpha  occ. eigenvalues --   -0.72819  -0.72132  -0.71350  -0.71119  -0.70199
 Alpha  occ. eigenvalues --   -0.69829  -0.69072  -0.68293  -0.68021  -0.67551
 Alpha  occ. eigenvalues --   -0.67323  -0.67093  -0.66636  -0.66266  -0.65928
 Alpha  occ. eigenvalues --   -0.65114  -0.64399  -0.63316  -0.63105  -0.62774
 Alpha  occ. eigenvalues --   -0.62341  -0.62124  -0.61379  -0.61022  -0.60474
 Alpha  occ. eigenvalues --   -0.59500  -0.58633  -0.58405  -0.57819  -0.57449
 Alpha  occ. eigenvalues --   -0.57236  -0.57096  -0.56967  -0.56136  -0.55867
 Alpha  occ. eigenvalues --   -0.55723  -0.55540  -0.54908  -0.54689  -0.54570
 Alpha  occ. eigenvalues --   -0.54404  -0.54096  -0.53866  -0.53611  -0.53502
 Alpha  occ. eigenvalues --   -0.53290  -0.53122  -0.53029  -0.52896  -0.52562
 Alpha  occ. eigenvalues --   -0.52302  -0.52225  -0.51853  -0.51459  -0.50858
 Alpha  occ. eigenvalues --   -0.50827  -0.50344  -0.50230  -0.50039  -0.49860
 Alpha  occ. eigenvalues --   -0.49373  -0.48999  -0.48871  -0.48696  -0.48418
 Alpha  occ. eigenvalues --   -0.48335  -0.47861  -0.47590  -0.47571  -0.47310
 Alpha  occ. eigenvalues --   -0.47213  -0.46762  -0.46693  -0.46417  -0.45970
 Alpha  occ. eigenvalues --   -0.45836  -0.45601  -0.45185  -0.44996  -0.44894
 Alpha  occ. eigenvalues --   -0.44758  -0.44260  -0.43901  -0.43741  -0.43477
 Alpha  occ. eigenvalues --   -0.43282  -0.43157  -0.42994  -0.42730  -0.42532
 Alpha  occ. eigenvalues --   -0.42081  -0.41905  -0.41803  -0.41695  -0.40550
 Alpha  occ. eigenvalues --   -0.40419  -0.40301  -0.40200  -0.39861  -0.39291
 Alpha  occ. eigenvalues --   -0.39179  -0.38767  -0.38539  -0.38357  -0.37772
 Alpha  occ. eigenvalues --   -0.37720  -0.36765  -0.36502  -0.36159  -0.35489
 Alpha  occ. eigenvalues --   -0.34871  -0.34196  -0.34039  -0.33492  -0.33050
 Alpha  occ. eigenvalues --   -0.32775  -0.32329  -0.31779  -0.31237  -0.29605
 Alpha  occ. eigenvalues --   -0.28830
 Alpha virt. eigenvalues --   -0.14664  -0.11365  -0.10202  -0.09795  -0.07836
 Alpha virt. eigenvalues --   -0.07583  -0.07186  -0.06755  -0.06729  -0.06123
 Alpha virt. eigenvalues --   -0.05911  -0.05063  -0.04895  -0.04540  -0.03216

 Mulliken charges:
               1
     1  N   -0.738036
     2  H    0.420240
     3  H    0.424018
     4  H    0.401971
     5  C   -0.123784
     6  H    0.211572
     7  C    0.664210
     8  C   -0.410365
     9  H    0.248202
    10  H    0.212348
    11  O   -0.546850
    12  C    0.308052
    13  C   -0.121148
    14  H    0.163620
    15  N   -0.584777
    16  H    0.367649
    17  C    0.201401
    18  H    0.189172
    19  N   -0.394439
    20  N   -0.593928
    21  H    0.368590
    22  C   -0.096843
    23  H    0.196006
    24  C    0.644672
    25  C    0.106951
    26  H    0.168560
    27  O   -0.559876
    28  C   -0.450928
    29  H    0.161230
    30  H    0.192167
    31  H    0.142687
    32  O   -0.645622
    33  H    0.431909
    34  N   -0.602253
    35  H    0.364750
    36  C   -0.089820
    37  H    0.204890
    38  C    0.622305
    39  C   -0.289789
    40  H    0.166616
    41  H    0.103941
    42  O   -0.516719
    43  C   -0.094449
    44  H    0.206480
    45  C   -0.465511
    46  H    0.105286
    47  H    0.175789
    48  H    0.145657
    49  C   -0.443231
    50  H    0.109004
    51  H    0.152880
    52  H    0.157030
    53  N   -0.607990
    54  H    0.375562
    55  C   -0.083329
    56  H    0.197623
    57  C    0.614070
    58  C   -0.441211
    59  H    0.180519
    60  H    0.155008
    61  H    0.151832
    62  O   -0.519268
    63  N   -0.648008
    64  H    0.383165
    65  C   -0.019927
    66  H    0.187821
    67  C    0.630514
    68  C   -0.398904
    69  H    0.148502
    70  H    0.207693
    71  O   -0.536272
    72  C    0.177920
    73  C   -0.201267
    74  H    0.147029
    75  C   -0.210859
    76  H    0.173510
    77  C   -0.186413
    78  H    0.108131
    79  C   -0.192262
    80  H    0.112400
    81  O   -0.757176
    82  C    0.367787
    83  N   -0.603517
    84  H    0.350637
    85  C   -0.100922
    86  H    0.212026
    87  C    0.626997
    88  C   -0.327358
    89  H    0.184795
    90  H    0.185512
    91  O   -0.521792
    92  C    0.578450
    93  O   -0.453447
    94  O   -0.554927
    95  N   -0.594235
    96  H    0.347482
    97  C   -0.072730
    98  H    0.220475
    99  C    0.595840
   100  C   -0.268654
   101  H    0.184220
   102  H    0.142044
   103  O   -0.446193
   104  C   -0.277418
   105  H    0.135073
   106  H    0.156108
   107  C   -0.268199
   108  H    0.149709
   109  H    0.146041
   110  C   -0.174088
   111  H    0.171681
   112  H    0.168090
   113  N   -0.790139
   114  H    0.475126
   115  H    0.335903
   116  H    0.324360
   117  O   -0.570588
   118  H    0.425736
   119  H    0.420216
 Sum of Mulliken charges =   1.00000

 Dipole moment (field-independent basis, Debye):
    X=            -14.1136    Y=             12.1321    Z=             -3.7712  Tot=             18.9896
 Quadrupole moment (field-independent basis, Debye-Ang):
   XX=           -228.0023   YY=           -327.6284   ZZ=           -299.9497
   XY=            -20.7780   XZ=            -35.9975   YZ=            -22.2262

 Normal termination of Gaussian 16 at Sun Jun 19 14:04:24 2022.
