 Gaussian 16, Revision C.01,
 Gaussian 16:  ES64L-G16RevC.01  3-Jul-2019

 ----------------------------------------------------------------------
 # B3LYP/6-31G* empiricaldispersion=gd3 guess=read geom=check nosymm in
 tegral(ultrafinegrid)
 ----------------------------------------------------------------------

 ------------------------------------------------------
 Candidate Structure: Conf:399 Charge calc in gas phase
 ------------------------------------------------------
 Structure from the checkpoint file:  "conf-399.chk"
 Charge =  1 Multiplicity = 1

                          Input orientation:
 ---------------------------------------------------------------------
 Center     Atomic      Atomic             Coordinates (Angstroms)
 Number     Number       Type             X           Y           Z
 ---------------------------------------------------------------------
      1          7           0       -5.872351    0.918371    6.221960
      2          1           0       -5.282710    1.313925    6.959443
      3          1           0       -6.214566    1.709686    5.617873
      4          1           0       -6.643111    0.380608    6.658761
      5          6           0       -5.107707    0.054482    5.254287
      6          1           0       -4.221465   -0.333370    5.760634
      7          6           0       -4.767734    1.014217    4.090489
      8          6           0       -6.025380   -1.101115    4.759986
      9          1           0       -5.420736   -1.750115    4.116850
     10          1           0       -6.805184   -0.669622    4.121778
     11          8           0       -5.423532    2.060830    4.001877
     12          6           0       -6.670849   -1.839934    5.883118
     13          6           0       -7.886344   -1.636465    6.511097
     14          1           0       -8.687256   -0.975129    6.199877
     15          7           0       -6.052624   -2.823767    6.635399
     16          1           0       -5.175464   -3.280493    6.422787
     17          6           0       -6.921017   -3.176070    7.635251
     18          1           0       -6.689032   -3.950709    8.354012
     19          7           0       -8.028047   -2.470645    7.594642
     20          7           0       -3.835184    0.587829    3.249425
     21          1           0       -3.380336   -0.317041    3.357940
     22          6           0       -3.488920    1.227869    1.989734
     23          1           0       -4.320367    1.861351    1.667165
     24          6           0       -3.185323    0.082626    1.012443
     25          6           0       -2.180019    2.082095    2.126848
     26          1           0       -1.988204    2.533944    1.142314
     27          8           0       -2.899323   -1.030564    1.451091
     28          6           0       -2.324943    3.181453    3.169076
     29          1           0       -3.188919    3.819529    2.960816
     30          1           0       -1.418985    3.793016    3.178171
     31          1           0       -2.444602    2.740951    4.164156
     32          8           0       -1.100562    1.249986    2.519138
     33          1           0       -0.760146    0.774170    1.734555
     34          7           0       -3.116333    0.431169   -0.298513
     35          1           0       -3.276820    1.409409   -0.520251
     36          6           0       -2.087414   -0.185953   -1.163388
     37          1           0       -1.929901   -1.195093   -0.781915
     38          6           0       -0.854603    0.708750   -0.931914
     39          6           0       -2.515014   -0.209100   -2.630204
     40          1           0       -2.769476    0.815419   -2.929960
     41          1           0       -3.430426   -0.810965   -2.702633
     42          8           0       -0.847872    1.866043   -1.328396
     43          6           0       -1.440958   -0.757985   -3.592185
     44          1           0       -0.577832   -0.083072   -3.550791
     45          6           0       -0.954554   -2.158232   -3.190040
     46          1           0       -1.790521   -2.868164   -3.130631
     47          1           0       -0.443100   -2.146139   -2.221952
     48          1           0       -0.243192   -2.547181   -3.928089
     49          6           0       -1.987197   -0.757127   -5.026175
     50          1           0       -2.843710   -1.437208   -5.121761
     51          1           0       -1.220081   -1.086838   -5.735295
     52          1           0       -2.316984    0.243890   -5.328498
     53          7           0        0.106217    0.185292   -0.089779
     54          1           0        0.138280   -0.832697   -0.046186
     55          6           0        1.437873    0.793253   -0.087611
     56          1           0        1.291108    1.864620   -0.259986
     57          6           0        2.193564    0.236214   -1.317927
     58          6           0        2.123772    0.560848    1.262114
     59          1           0        3.091604    1.070326    1.320105
     60          1           0        2.274602   -0.509323    1.438272
     61          1           0        1.498587    0.964766    2.063377
     62          8           0        1.558474   -0.192518   -2.285969
     63          7           0        3.545576    0.234561   -1.294669
     64          1           0        4.042990    0.505185   -0.458310
     65          6           0        4.336420   -0.290614   -2.419864
     66          1           0        3.759283   -0.065472   -3.322030
     67          6           0        4.449186   -1.830413   -2.305040
     68          6           0        5.710873    0.388078   -2.503834
     69          1           0        5.559714    1.454594   -2.290917
     70          1           0        6.360163   -0.019760   -1.721938
     71          8           0        5.524280   -2.416407   -2.180028
     72          6           0        6.363007    0.228024   -3.862831
     73          6           0        7.523451   -0.529860   -4.042848
     74          1           0        7.959574   -1.046109   -3.192002
     75          6           0        5.820348    0.872640   -4.985847
     76          1           0        4.925300    1.483070   -4.874570
     77          6           0        8.136916   -0.632506   -5.293615
     78          1           0        9.062760   -1.190870   -5.400575
     79          6           0        6.402298    0.757240   -6.241829
     80          1           0        5.976549    1.252762   -7.108681
     81          8           0        8.091772   -0.061522   -7.660001
     82          6           0        7.573070   -0.000712   -6.414845
     83          7           0        3.249253   -2.468029   -2.323651
     84          1           0        2.420310   -1.919660   -2.548144
     85          6           0        3.124387   -3.916214   -2.189665
     86          1           0        3.952893   -4.253682   -1.559756
     87          6           0        3.241749   -4.554661   -3.590941
     88          6           0        1.782290   -4.275428   -1.536012
     89          1           0        1.729927   -5.361109   -1.419216
     90          1           0        0.957950   -3.958351   -2.174946
     91          8           0        2.271195   -4.962368   -4.217648
     92          6           0        1.672095   -3.606251   -0.190154
     93          8           0        1.019969   -2.608817    0.069376
     94          8           0        2.435227   -4.217826    0.735780
     95          7           0        4.510349   -4.534157   -4.065784
     96          1           0        5.225035   -4.092775   -3.494076
     97          6           0        4.808925   -4.795077   -5.462662
     98          1           0        4.104502   -4.243534   -6.095873
     99          6           0        4.644537   -6.258168   -5.861682
    100          6           0        6.248060   -4.321959   -5.746391
    101          1           0        6.951249   -5.001708   -5.245274
    102          1           0        6.364959   -3.340035   -5.268049
    103          8           0        4.459073   -6.616178   -7.003140
    104          6           0        6.604864   -4.178121   -7.229091
    105          1           0        6.482045   -5.131238   -7.754849
    106          1           0        5.900747   -3.472641   -7.690895
    107          6           0        8.032251   -3.633611   -7.363064
    108          1           0        8.155762   -2.828554   -6.632449
    109          1           0        8.759176   -4.413006   -7.091015
    110          6           0        8.377952   -3.054945   -8.734657
    111          1           0        7.556256   -2.418322   -9.081193
    112          1           0        8.513181   -3.856271   -9.476994
    113          7           0        9.564490   -2.178993   -8.604883
    114          1           0        9.852737   -1.832994   -9.519619
    115          1           0       10.353861   -2.708495   -8.235665
    116          1           0        8.796353   -0.761280   -7.767251
    117          8           0        4.803173   -7.114959   -4.828946
    118          1           0        4.704352   -8.009465   -5.206559
    119          1           0        2.346192   -3.714969    1.567236
 ---------------------------------------------------------------------

 SCF Done:  E(RB3LYP) =  -2933.86804957     A.U. after    2 cycles

 Alpha  occ. eigenvalues --  -19.28210 -19.26770 -19.23868 -19.23175 -19.22971
 Alpha  occ. eigenvalues --  -19.22559 -19.20100 -19.20043 -19.18921 -19.18543
 Alpha  occ. eigenvalues --  -19.17891 -19.17081 -14.60174 -14.51692 -14.49777
 Alpha  occ. eigenvalues --  -14.45793 -14.44791 -14.43945 -14.43011 -14.42545
 Alpha  occ. eigenvalues --  -14.40790 -14.38540 -10.43794 -10.41521 -10.41021
 Alpha  occ. eigenvalues --  -10.39280 -10.37148 -10.36891 -10.36065 -10.36006
 Alpha  occ. eigenvalues --  -10.36000 -10.35679 -10.35460 -10.34355 -10.34018
 Alpha  occ. eigenvalues --  -10.33985 -10.32602 -10.31746 -10.31141 -10.30639
 Alpha  occ. eigenvalues --  -10.30363 -10.28498 -10.28034 -10.27332 -10.27023
 Alpha  occ. eigenvalues --  -10.26528 -10.25838 -10.25048 -10.25010 -10.24142
 Alpha  occ. eigenvalues --  -10.24093 -10.23025 -10.22827 -10.22797 -10.22752
 Alpha  occ. eigenvalues --  -10.22693 -10.22464 -10.22113 -10.22062 -10.21734
 Alpha  occ. eigenvalues --   -1.19341  -1.19316  -1.14787  -1.14687  -1.14252
 Alpha  occ. eigenvalues --   -1.13562  -1.12649  -1.11619  -1.10692  -1.10510
 Alpha  occ. eigenvalues --   -1.10145  -1.08773  -1.07007  -1.06348  -1.05590
 Alpha  occ. eigenvalues --   -1.02383  -1.00873  -1.00487  -0.99431  -0.99407
 Alpha  occ. eigenvalues --   -0.97761  -0.94989  -0.94271  -0.89558  -0.89127
 Alpha  occ. eigenvalues --   -0.87754  -0.86979  -0.86336  -0.85659  -0.85185
 Alpha  occ. eigenvalues --   -0.83474  -0.82459  -0.81115  -0.80720  -0.79589
 Alpha  occ. eigenvalues --   -0.78171  -0.78036  -0.75870  -0.74507  -0.74258
 Alpha  occ. eigenvalues --   -0.74051  -0.73654  -0.73650  -0.73284  -0.73094
 Alpha  occ. eigenvalues --   -0.71513  -0.71173  -0.70599  -0.69526  -0.68979
 Alpha  occ. eigenvalues --   -0.68940  -0.67983  -0.67202  -0.67133  -0.66364
 Alpha  occ. eigenvalues --   -0.65838  -0.65226  -0.64997  -0.64355  -0.64059
 Alpha  occ. eigenvalues --   -0.63820  -0.62883  -0.62520  -0.62014  -0.61958
 Alpha  occ. eigenvalues --   -0.61159  -0.60292  -0.59326  -0.59170  -0.58257
 Alpha  occ. eigenvalues --   -0.58065  -0.57991  -0.57714  -0.57385  -0.56735
 Alpha  occ. eigenvalues --   -0.56578  -0.56227  -0.56163  -0.55713  -0.55170
 Alpha  occ. eigenvalues --   -0.54931  -0.54395  -0.54086  -0.53927  -0.53884
 Alpha  occ. eigenvalues --   -0.53671  -0.53159  -0.52981  -0.52871  -0.52750
 Alpha  occ. eigenvalues --   -0.52354  -0.52054  -0.51625  -0.51450  -0.51237
 Alpha  occ. eigenvalues --   -0.51056  -0.50846  -0.50160  -0.49946  -0.49584
 Alpha  occ. eigenvalues --   -0.49053  -0.48960  -0.48727  -0.48243  -0.48063
 Alpha  occ. eigenvalues --   -0.47925  -0.47894  -0.47658  -0.47487  -0.47246
 Alpha  occ. eigenvalues --   -0.47150  -0.46990  -0.46610  -0.46293  -0.46179
 Alpha  occ. eigenvalues --   -0.45842  -0.45503  -0.45375  -0.45036  -0.44754
 Alpha  occ. eigenvalues --   -0.44296  -0.44120  -0.43998  -0.43498  -0.43350
 Alpha  occ. eigenvalues --   -0.43130  -0.42975  -0.42682  -0.42346  -0.42234
 Alpha  occ. eigenvalues --   -0.41945  -0.41684  -0.41633  -0.40564  -0.40353
 Alpha  occ. eigenvalues --   -0.40334  -0.39920  -0.39903  -0.39361  -0.38824
 Alpha  occ. eigenvalues --   -0.38523  -0.38164  -0.38154  -0.38060  -0.37827
 Alpha  occ. eigenvalues --   -0.37628  -0.37181  -0.36801  -0.36559  -0.36154
 Alpha  occ. eigenvalues --   -0.35659  -0.35620  -0.35553  -0.35520  -0.35328
 Alpha  occ. eigenvalues --   -0.35053  -0.34021  -0.33569  -0.32811  -0.32554
 Alpha  occ. eigenvalues --   -0.31569  -0.30840  -0.29969  -0.29646  -0.28639
 Alpha  occ. eigenvalues --   -0.24708
 Alpha virt. eigenvalues --   -0.12844  -0.10858  -0.09738  -0.09465  -0.08176
 Alpha virt. eigenvalues --   -0.07321  -0.07267  -0.05820  -0.05234  -0.04929
 Alpha virt. eigenvalues --   -0.04216  -0.04007  -0.03267  -0.03150  -0.02860

 Mulliken charges:
               1
     1  N   -0.748116
     2  H    0.417159
     3  H    0.427315
     4  H    0.401169
     5  C   -0.114991
     6  H    0.209343
     7  C    0.658191
     8  C   -0.389624
     9  H    0.212850
    10  H    0.214447
    11  O   -0.538591
    12  C    0.294869
    13  C   -0.098928
    14  H    0.169861
    15  N   -0.603096
    16  H    0.351857
    17  C    0.223315
    18  H    0.197595
    19  N   -0.387972
    20  N   -0.575618
    21  H    0.367558
    22  C   -0.097250
    23  H    0.191587
    24  C    0.600378
    25  C    0.116563
    26  H    0.160325
    27  O   -0.527363
    28  C   -0.444269
    29  H    0.163243
    30  H    0.179502
    31  H    0.137130
    32  O   -0.663038
    33  H    0.442911
    34  N   -0.587450
    35  H    0.345234
    36  C   -0.083537
    37  H    0.190602
    38  C    0.628582
    39  C   -0.260076
    40  H    0.150529
    41  H    0.145782
    42  O   -0.522519
    43  C   -0.096853
    44  H    0.174769
    45  C   -0.474483
    46  H    0.138866
    47  H    0.143964
    48  H    0.165057
    49  C   -0.446151
    50  H    0.141042
    51  H    0.154559
    52  H    0.145631
    53  N   -0.657024
    54  H    0.401024
    55  C   -0.072677
    56  H    0.212524
    57  C    0.651606
    58  C   -0.491437
    59  H    0.154817
    60  H    0.162288
    61  H    0.187282
    62  O   -0.539795
    63  N   -0.616610
    64  H    0.343008
    65  C   -0.066224
    66  H    0.202028
    67  C    0.630147
    68  C   -0.371789
    69  H    0.154202
    70  H    0.162799
    71  O   -0.534864
    72  C    0.155287
    73  C   -0.185256
    74  H    0.135948
    75  C   -0.190623
    76  H    0.121024
    77  C   -0.207578
    78  H    0.130970
    79  C   -0.164875
    80  H    0.138554
    81  O   -0.688751
    82  C    0.363963
    83  N   -0.632189
    84  H    0.389736
    85  C   -0.084219
    86  H    0.199064
    87  C    0.647581
    88  C   -0.364338
    89  H    0.200567
    90  H    0.216104
    91  O   -0.525368
    92  C    0.589863
    93  O   -0.493102
    94  O   -0.543113
    95  N   -0.637159
    96  H    0.371145
    97  C    0.000740
    98  H    0.185992
    99  C    0.603386
   100  C   -0.332260
   101  H    0.154518
   102  H    0.173979
   103  O   -0.464246
   104  C   -0.266451
   105  H    0.169396
   106  H    0.146085
   107  C   -0.279351
   108  H    0.155680
   109  H    0.133048
   110  C   -0.143493
   111  H    0.166231
   112  H    0.142202
   113  N   -0.767696
   114  H    0.326944
   115  H    0.316700
   116  H    0.457339
   117  O   -0.562160
   118  H    0.413507
   119  H    0.413516
 Sum of Mulliken charges =   1.00000

 Dipole moment (field-independent basis, Debye):
    X=            -10.4072    Y=             -3.1553    Z=             20.6143  Tot=             23.3070
 Quadrupole moment (field-independent basis, Debye-Ang):
   XX=           -184.1542   YY=           -327.4782   ZZ=           -194.7215
   XY=            -36.9690   XZ=           -148.3334   YZ=              3.6086

 Normal termination of Gaussian 16 at Sun Jun 19 14:03:44 2022.
