 Gaussian 16, Revision C.01,
 Gaussian 16:  ES64L-G16RevC.01  3-Jul-2019

 ----------------------------------------------------------------------
 # B3LYP/6-31G* empiricaldispersion=gd3 guess=read geom=check nosymm in
 tegral(ultrafinegrid)
 ----------------------------------------------------------------------

 ------------------------------------------------------
 Candidate Structure: Conf:883 Charge calc in gas phase
 ------------------------------------------------------
 Structure from the checkpoint file:  "conf-883.chk"
 Charge =  1 Multiplicity = 1

                          Input orientation:
 ---------------------------------------------------------------------
 Center     Atomic      Atomic             Coordinates (Angstroms)
 Number     Number       Type             X           Y           Z
 ---------------------------------------------------------------------
      1          7           0       -5.778832   -2.118537    6.509078
      2          1           0       -5.200780   -2.173093    7.352559
      3          1           0       -6.164442   -1.142228    6.443332
      4          1           0       -6.518346   -2.842718    6.554104
      5          6           0       -4.977631   -2.256081    5.241526
      6          1           0       -4.084929   -2.845205    5.460741
      7          6           0       -4.650565   -0.795523    4.856180
      8          6           0       -5.852933   -2.940708    4.154325
      9          1           0       -5.223485   -3.088712    3.269931
     10          1           0       -6.644660   -2.241410    3.861695
     11          8           0       -5.371397    0.092727    5.336176
     12          6           0       -6.474825   -4.208401    4.635125
     13          6           0       -7.698995   -4.438030    5.236472
     14          1           0       -8.522646   -3.741043    5.343193
     15          7           0       -5.822693   -5.427634    4.700556
     16          1           0       -4.926006   -5.652762    4.289954
     17          6           0       -6.680011   -6.315286    5.295964
     18          1           0       -6.420883   -7.354947    5.445745
     19          7           0       -7.812927   -5.747121    5.640616
     20          7           0       -3.666219   -0.637160    3.984567
     21          1           0       -3.127510   -1.416341    3.603481
     22          6           0       -3.182913    0.650335    3.507241
     23          1           0       -4.039261    1.315391    3.351956
     24          6           0       -2.453540    0.324210    2.187637
     25          6           0       -2.204571    1.285223    4.554888
     26          1           0       -1.276051    0.703487    4.528759
     27          8           0       -2.023512   -0.820013    2.008892
     28          6           0       -1.913383    2.757142    4.265555
     29          1           0       -1.406100    2.912327    3.308959
     30          1           0       -1.275590    3.152875    5.060553
     31          1           0       -2.844330    3.340033    4.256051
     32          8           0       -2.705423    1.098262    5.870979
     33          1           0       -3.526403    1.611807    5.955637
     34          7           0       -2.310230    1.343156    1.331475
     35          1           0       -2.617354    2.280028    1.576720
     36          6           0       -1.445691    1.307013    0.154177
     37          1           0       -0.776603    0.449597    0.257508
     38          6           0       -0.673742    2.637335    0.181104
     39          6           0       -2.295169    1.187781   -1.133065
     40          1           0       -2.896183    2.102961   -1.216484
     41          1           0       -2.997262    0.357465   -0.979350
     42          8           0       -1.191513    3.636372    0.694644
     43          6           0       -1.513171    0.949481   -2.438776
     44          1           0       -0.737952    1.722068   -2.527595
     45          6           0       -0.843467   -0.433258   -2.453306
     46          1           0       -1.597906   -1.225892   -2.369272
     47          1           0       -0.126927   -0.561500   -1.635779
     48          1           0       -0.296750   -0.584931   -3.389503
     49          6           0       -2.456456    1.100946   -3.641055
     50          1           0       -3.268557    0.363457   -3.597695
     51          1           0       -1.916254    0.945801   -4.581534
     52          1           0       -2.908330    2.099097   -3.672767
     53          7           0        0.534565    2.639312   -0.405752
     54          1           0        0.953771    1.781576   -0.768427
     55          6           0        1.292895    3.875726   -0.569875
     56          1           0        0.560986    4.677597   -0.723056
     57          6           0        2.067247    3.739295   -1.892792
     58          6           0        2.119275    4.192888    0.681596
     59          1           0        2.624147    5.161884    0.595429
     60          1           0        2.860756    3.409885    0.877412
     61          1           0        1.441288    4.249725    1.536855
     62          8           0        1.489260    3.317468   -2.904026
     63          7           0        3.364780    4.115103   -1.888364
     64          1           0        3.812452    4.243208   -0.989231
     65          6           0        4.296412    3.764381   -2.963700
     66          1           0        3.717321    3.688994   -3.886301
     67          6           0        4.910087    2.410173   -2.561298
     68          6           0        5.396566    4.834628   -3.098331
     69          1           0        4.917981    5.777643   -3.384524
     70          1           0        5.841378    4.981941   -2.106470
     71          8           0        5.428324    2.278245   -1.458846
     72          6           0        6.478305    4.451522   -4.085182
     73          6           0        7.593089    3.706080   -3.665723
     74          1           0        7.663261    3.392669   -2.626961
     75          6           0        6.408062    4.822979   -5.432335
     76          1           0        5.556296    5.401573   -5.785187
     77          6           0        8.611993    3.370620   -4.550654
     78          1           0        9.483853    2.815487   -4.218258
     79          6           0        7.423406    4.496063   -6.332550
     80          1           0        7.364451    4.821461   -7.367620
     81          8           0        9.594622    3.474415   -6.688836
     82          6           0        8.552439    3.785143   -5.893281
     83          7           0        4.811233    1.410340   -3.485585
     84          1           0        4.258910    1.594132   -4.313506
     85          6           0        4.992311    0.009872   -3.122020
     86          1           0        5.510305    0.027633   -2.158720
     87          6           0        5.874195   -0.746120   -4.130012
     88          6           0        3.632670   -0.749874   -2.955641
     89          1           0        3.731454   -1.507487   -2.177988
     90          1           0        3.372937   -1.245766   -3.892964
     91          8           0        5.762734   -1.957639   -4.277206
     92          6           0        2.553468    0.235324   -2.584036
     93          8           0        2.249968    0.535723   -1.438112
     94          8           0        2.017520    0.810083   -3.669555
     95          7           0        6.739959    0.014852   -4.847313
     96          1           0        6.904347    0.979779   -4.582557
     97          6           0        7.621214   -0.608599   -5.820358
     98          1           0        7.025431   -1.305575   -6.417188
     99          6           0        8.726889   -1.453879   -5.190980
    100          6           0        8.241501    0.474500   -6.723609
    101          1           0        9.024118    1.006629   -6.172310
    102          1           0        7.455241    1.213560   -6.917058
    103          8           0        9.313166   -2.335231   -5.776918
    104          6           0        8.808045   -0.056072   -8.047115
    105          1           0        9.528559   -0.853929   -7.839903
    106          1           0        8.000375   -0.516033   -8.634433
    107          6           0        9.494117    1.054017   -8.860881
    108          1           0       10.224161    1.552208   -8.212657
    109          1           0       10.057384    0.608771   -9.690150
    110          6           0        8.520673    2.113151   -9.414244
    111          1           0        7.624414    2.177778   -8.787968
    112          1           0        8.182695    1.825543  -10.420710
    113          7           0        9.139407    3.459199   -9.389191
    114          1           0        8.539567    4.137495   -9.857638
    115          1           0       10.018567    3.450019   -9.906737
    116          1           0        9.411774    3.671814   -7.656777
    117          8           0        9.035319   -1.060879   -3.933596
    118          1           0        9.764833   -1.639085   -3.640465
    119          1           0        1.554529    1.645927   -3.400110
 ---------------------------------------------------------------------

 SCF Done:  E(RB3LYP) =  -2933.87870384     A.U. after    3 cycles

 Alpha  occ. eigenvalues --  -19.26326 -19.25251 -19.24082 -19.23953 -19.21547
 Alpha  occ. eigenvalues --  -19.21235 -19.20135 -19.19686 -19.19104 -19.18727
 Alpha  occ. eigenvalues --  -19.18090 -19.16804 -14.59799 -14.51375 -14.49310
 Alpha  occ. eigenvalues --  -14.45215 -14.44409 -14.43471 -14.42897 -14.42709
 Alpha  occ. eigenvalues --  -14.41275 -14.39835 -10.43395 -10.41083 -10.39087
 Alpha  occ. eigenvalues --  -10.38796 -10.37398 -10.36194 -10.36051 -10.35840
 Alpha  occ. eigenvalues --  -10.35689 -10.35688 -10.35145 -10.34199 -10.34140
 Alpha  occ. eigenvalues --  -10.34026 -10.32299 -10.31019 -10.30896 -10.30623
 Alpha  occ. eigenvalues --  -10.30514 -10.29250 -10.28548 -10.26954 -10.26343
 Alpha  occ. eigenvalues --  -10.26177 -10.25643 -10.25545 -10.25375 -10.24955
 Alpha  occ. eigenvalues --  -10.24203 -10.24112 -10.23868 -10.23803 -10.23419
 Alpha  occ. eigenvalues --  -10.23171 -10.23008 -10.22957 -10.22877 -10.22856
 Alpha  occ. eigenvalues --   -1.18899  -1.16874  -1.14842  -1.14211  -1.13527
 Alpha  occ. eigenvalues --   -1.13212  -1.12092  -1.11531  -1.10916  -1.10651
 Alpha  occ. eigenvalues --   -1.08878  -1.08290  -1.08031  -1.05855  -1.05791
 Alpha  occ. eigenvalues --   -1.01833  -1.00758  -1.00246  -0.99674  -0.99096
 Alpha  occ. eigenvalues --   -0.97668  -0.95411  -0.94634  -0.90237  -0.89400
 Alpha  occ. eigenvalues --   -0.87833  -0.86532  -0.86295  -0.85432  -0.84604
 Alpha  occ. eigenvalues --   -0.83471  -0.82012  -0.81110  -0.80712  -0.79394
 Alpha  occ. eigenvalues --   -0.79285  -0.78292  -0.75982  -0.74123  -0.74037
 Alpha  occ. eigenvalues --   -0.73736  -0.73697  -0.73517  -0.73336  -0.72914
 Alpha  occ. eigenvalues --   -0.72291  -0.71168  -0.70859  -0.70310  -0.69162
 Alpha  occ. eigenvalues --   -0.68329  -0.67323  -0.67210  -0.66999  -0.66558
 Alpha  occ. eigenvalues --   -0.65857  -0.65504  -0.65331  -0.65124  -0.64479
 Alpha  occ. eigenvalues --   -0.63646  -0.63321  -0.63091  -0.62439  -0.61430
 Alpha  occ. eigenvalues --   -0.60378  -0.60229  -0.59115  -0.58512  -0.58259
 Alpha  occ. eigenvalues --   -0.57739  -0.57468  -0.57110  -0.56764  -0.56188
 Alpha  occ. eigenvalues --   -0.55908  -0.55719  -0.55254  -0.54973  -0.54611
 Alpha  occ. eigenvalues --   -0.54460  -0.54303  -0.54164  -0.53666  -0.53447
 Alpha  occ. eigenvalues --   -0.53328  -0.53152  -0.53037  -0.52817  -0.52728
 Alpha  occ. eigenvalues --   -0.52508  -0.52147  -0.51904  -0.51591  -0.51398
 Alpha  occ. eigenvalues --   -0.51016  -0.50919  -0.50431  -0.50116  -0.49979
 Alpha  occ. eigenvalues --   -0.49802  -0.49335  -0.48902  -0.48720  -0.48259
 Alpha  occ. eigenvalues --   -0.48145  -0.47816  -0.47640  -0.47425  -0.47153
 Alpha  occ. eigenvalues --   -0.47038  -0.46669  -0.46513  -0.46199  -0.46036
 Alpha  occ. eigenvalues --   -0.45772  -0.45495  -0.44919  -0.44774  -0.44572
 Alpha  occ. eigenvalues --   -0.44483  -0.44233  -0.43926  -0.43766  -0.43546
 Alpha  occ. eigenvalues --   -0.43263  -0.43156  -0.42864  -0.42476  -0.42318
 Alpha  occ. eigenvalues --   -0.42011  -0.41884  -0.41326  -0.41224  -0.40584
 Alpha  occ. eigenvalues --   -0.40289  -0.40023  -0.39886  -0.39075  -0.38764
 Alpha  occ. eigenvalues --   -0.38712  -0.38636  -0.38490  -0.38326  -0.37869
 Alpha  occ. eigenvalues --   -0.37809  -0.37678  -0.37062  -0.36703  -0.35791
 Alpha  occ. eigenvalues --   -0.35303  -0.35239  -0.35171  -0.34700  -0.34389
 Alpha  occ. eigenvalues --   -0.33884  -0.33825  -0.33282  -0.33002  -0.32514
 Alpha  occ. eigenvalues --   -0.32011  -0.31961  -0.30236  -0.30054  -0.29553
 Alpha  occ. eigenvalues --   -0.25973
 Alpha virt. eigenvalues --   -0.12558  -0.10351  -0.09471  -0.07569  -0.07372
 Alpha virt. eigenvalues --   -0.06870  -0.06782  -0.05570  -0.04997  -0.04857
 Alpha virt. eigenvalues --   -0.04513  -0.03875  -0.03859  -0.03520  -0.02739

 Mulliken charges:
               1
     1  N   -0.747153
     2  H    0.419473
     3  H    0.425677
     4  H    0.400818
     5  C   -0.115124
     6  H    0.209768
     7  C    0.686152
     8  C   -0.386484
     9  H    0.209357
    10  H    0.213069
    11  O   -0.560224
    12  C    0.294245
    13  C   -0.098986
    14  H    0.168421
    15  N   -0.602782
    16  H    0.352487
    17  C    0.223298
    18  H    0.197524
    19  N   -0.388769
    20  N   -0.595558
    21  H    0.365589
    22  C   -0.103669
    23  H    0.180807
    24  C    0.624146
    25  C    0.151039
    26  H    0.161452
    27  O   -0.546669
    28  C   -0.495297
    29  H    0.183348
    30  H    0.185352
    31  H    0.148690
    32  O   -0.621756
    33  H    0.401849
    34  N   -0.600454
    35  H    0.360695
    36  C   -0.085059
    37  H    0.192288
    38  C    0.630220
    39  C   -0.249006
    40  H    0.149001
    41  H    0.145741
    42  O   -0.558417
    43  C   -0.101909
    44  H    0.147265
    45  C   -0.467482
    46  H    0.139511
    47  H    0.151315
    48  H    0.158457
    49  C   -0.443920
    50  H    0.139989
    51  H    0.152878
    52  H    0.148335
    53  N   -0.626614
    54  H    0.396858
    55  C   -0.027277
    56  H    0.207466
    57  C    0.607238
    58  C   -0.491028
    59  H    0.160602
    60  H    0.176022
    61  H    0.186484
    62  O   -0.566876
    63  N   -0.582577
    64  H    0.359207
    65  C   -0.067324
    66  H    0.172471
    67  C    0.635778
    68  C   -0.360638
    69  H    0.166255
    70  H    0.163784
    71  O   -0.530249
    72  C    0.143728
    73  C   -0.203303
    74  H    0.154535
    75  C   -0.196204
    76  H    0.127112
    77  C   -0.190992
    78  H    0.148353
    79  C   -0.200191
    80  H    0.124747
    81  O   -0.691859
    82  C    0.373427
    83  N   -0.629225
    84  H    0.349174
    85  C   -0.068280
    86  H    0.227641
    87  C    0.624750
    88  C   -0.326584
    89  H    0.194385
    90  H    0.195616
    91  O   -0.522479
    92  C    0.590898
    93  O   -0.504709
    94  O   -0.600162
    95  N   -0.632002
    96  H    0.358294
    97  C   -0.003122
    98  H    0.192558
    99  C    0.601780
   100  C   -0.322390
   101  H    0.180703
   102  H    0.149736
   103  O   -0.460143
   104  C   -0.278556
   105  H    0.177605
   106  H    0.136771
   107  C   -0.282501
   108  H    0.168073
   109  H    0.144957
   110  C   -0.145900
   111  H    0.154010
   112  H    0.146862
   113  N   -0.775769
   114  H    0.322854
   115  H    0.328306
   116  H    0.469984
   117  O   -0.568230
   118  H    0.415646
   119  H    0.470980
 Sum of Mulliken charges =   1.00000

 Dipole moment (field-independent basis, Debye):
    X=            -11.9353    Y=             -2.3954    Z=             11.4936  Tot=             16.7419
 Quadrupole moment (field-independent basis, Debye-Ang):
   XX=           -216.6984   YY=           -298.4875   ZZ=           -136.6181
   XY=             85.8229   XZ=           -169.3830   YZ=            -98.2156

 Normal termination of Gaussian 16 at Sun Jun 19 14:04:10 2022.
