 Gaussian 16, Revision C.01,
 Gaussian 16:  ES64L-G16RevC.01  3-Jul-2019

 ----------------------------------------------------------------------
 # B3LYP/6-31G* empiricaldispersion=gd3 guess=read geom=check nosymm in
 tegral(ultrafinegrid)
 ----------------------------------------------------------------------

 -----------------------------------------------------
 Candidate Structure: Conf:34 Charge calc in gas phase
 -----------------------------------------------------
 Structure from the checkpoint file:  "conf-34.chk"
 Charge =  1 Multiplicity = 1

                          Input orientation:
 ---------------------------------------------------------------------
 Center     Atomic      Atomic             Coordinates (Angstroms)
 Number     Number       Type             X           Y           Z
 ---------------------------------------------------------------------
      1          7           0       -8.587933    3.634688    3.674417
      2          1           0       -8.936226    2.813827    4.185020
      3          1           0       -8.119808    4.247039    4.356077
      4          1           0       -9.390778    4.133078    3.275454
      5          6           0       -7.587589    3.246271    2.630494
      6          1           0       -8.026257    2.497191    1.966005
      7          6           0       -6.362535    2.687644    3.353344
      8          6           0       -7.150932    4.473186    1.801766
      9          1           0       -6.832695    5.261831    2.492763
     10          1           0       -8.011805    4.850259    1.244953
     11          8           0       -5.808294    3.392742    4.211450
     12          6           0       -6.038824    4.125864    0.860096
     13          6           0       -6.001992    3.829268   -0.475887
     14          1           0       -6.824625    3.826570   -1.177376
     15          7           0       -4.736655    3.967983    1.297188
     16          1           0       -4.431518    4.070371    2.258083
     17          6           0       -3.989899    3.598192    0.220039
     18          1           0       -2.928351    3.418820    0.289263
     19          7           0       -4.721561    3.501204   -0.869365
     20          7           0       -5.915553    1.511411    2.896533
     21          1           0       -6.436300    0.987577    2.206260
     22          6           0       -4.617133    0.959082    3.236277
     23          1           0       -4.003414    1.763063    3.648894
     24          6           0       -4.042256    0.444395    1.917269
     25          6           0       -4.731659   -0.186726    4.269788
     26          1           0       -3.766804   -0.716338    4.288974
     27          8           0       -4.750529   -0.247713    1.175129
     28          6           0       -5.042309    0.351533    5.655057
     29          1           0       -4.197683    0.931924    6.039109
     30          1           0       -5.251252   -0.475407    6.335120
     31          1           0       -5.912579    1.013258    5.624678
     32          8           0       -5.777861   -1.074489    3.908429
     33          1           0       -5.571270   -1.434035    3.031685
     34          7           0       -2.775323    0.782635    1.629931
     35          1           0       -2.157776    1.223989    2.303217
     36          6           0       -2.109888    0.285663    0.437619
     37          1           0       -2.396664   -0.760606    0.295908
     38          6           0       -0.606987    0.392952    0.722383
     39          6           0       -2.538569    1.093775   -0.802554
     40          1           0       -2.113906    2.102235   -0.723052
     41          1           0       -3.625721    1.204200   -0.739293
     42          8           0       -0.182777    1.075692    1.651092
     43          6           0       -2.205912    0.496601   -2.179175
     44          1           0       -1.122010    0.516477   -2.337281
     45          6           0       -2.695546   -0.950390   -2.300238
     46          1           0       -3.724667   -1.034917   -1.929170
     47          1           0       -2.075015   -1.651893   -1.732352
     48          1           0       -2.682436   -1.281250   -3.342581
     49          6           0       -2.847611    1.375863   -3.257865
     50          1           0       -3.938541    1.354459   -3.169414
     51          1           0       -2.579488    1.026805   -4.259279
     52          1           0       -2.527230    2.418210   -3.164753
     53          7           0        0.188083   -0.279100   -0.127803
     54          1           0       -0.166346   -0.791651   -0.925112
     55          6           0        1.634277   -0.199406   -0.092631
     56          1           0        1.931180    0.846772    0.038500
     57          6           0        2.095232   -0.714760   -1.465898
     58          6           0        2.222015   -1.026861    1.055162
     59          1           0        3.312350   -0.951665    1.070757
     60          1           0        1.943975   -2.079229    0.946374
     61          1           0        1.826441   -0.652939    2.001190
     62          8           0        1.323158   -1.318149   -2.206836
     63          7           0        3.387991   -0.495479   -1.764860
     64          1           0        4.017835   -0.017739   -1.133239
     65          6           0        3.985281   -0.979302   -2.997780
     66          1           0        3.633309   -1.999493   -3.177117
     67          6           0        5.495975   -0.998010   -2.775887
     68          6           0        3.576141   -0.103407   -4.210556
     69          1           0        2.487935   -0.186913   -4.280584
     70          1           0        3.824355    0.938299   -3.980323
     71          8           0        6.023151   -0.246840   -1.949862
     72          6           0        4.282310   -0.522692   -5.460159
     73          6           0        5.373104    0.224264   -5.935328
     74          1           0        5.571599    1.195765   -5.475346
     75          6           0        4.015094   -1.760708   -6.068422
     76          1           0        3.158897   -2.339140   -5.716029
     77          6           0        6.213847   -0.252822   -6.909470
     78          1           0        7.078512    0.310479   -7.254964
     79          6           0        4.838198   -2.279543   -7.043792
     80          1           0        4.641267   -3.247516   -7.492495
     81          8           0        6.790993   -2.027792   -8.367004
     82          6           0        6.021625   -1.566896   -7.506582
     83          7           0        6.197954   -1.897495   -3.506028
     84          1           0        5.773191   -2.295271   -4.346134
     85          6           0        7.649951   -1.984722   -3.376689
     86          1           0        7.872772   -1.676498   -2.352342
     87          6           0        8.313892   -1.026379   -4.369982
     88          6           0        8.155139   -3.409138   -3.622544
     89          1           0        9.244934   -3.409058   -3.541374
     90          1           0        7.896263   -3.745603   -4.627173
     91          8           0        9.007558   -1.411325   -5.301572
     92          6           0        7.586732   -4.382953   -2.624855
     93          8           0        6.898857   -5.340665   -2.886927
     94          8           0        7.935465   -4.057093   -1.355903
     95          7           0        8.008020    0.285159   -4.206396
     96          1           0        7.483357    0.589126   -3.396221
     97          6           0        8.507864    1.219628   -5.183389
     98          1           0        8.267402    0.822760   -6.175879
     99          6           0       10.023423    1.363552   -5.156136
    100          6           0        7.826535    2.582919   -5.027482
    101          1           0        8.087460    3.035095   -4.065232
    102          1           0        6.745774    2.398365   -5.022018
    103          8           0       10.706539    1.516214   -6.142942
    104          6           0        8.172994    3.510951   -6.188749
    105          1           0        9.250440    3.702893   -6.215689
    106          1           0        7.935301    2.968642   -7.114155
    107          6           0        7.411451    4.832241   -6.148421
    108          1           0        6.330756    4.641131   -6.145000
    109          1           0        7.636449    5.367111   -5.219359
    110          6           0        7.757859    5.747293   -7.313690
    111          1           0        8.841053    5.880731   -7.380911
    112          1           0        7.309236    6.736144   -7.196466
    113          7           0        7.288552    5.165713   -8.619877
    114          1           0        7.525832    5.760274   -9.418441
    115          1           0        6.273830    5.028549   -8.620421
    116          1           0        7.714667    4.248357   -8.781952
    117          8           0       10.523276    1.374201   -3.902791
    118          1           0       11.483333    1.484543   -3.992430
    119          1           0        7.532355   -4.727632   -0.780782
 ---------------------------------------------------------------------

 SCF Done:  E(RB3LYP) =  -2933.70136009     A.U. after    3 cycles

 Alpha  occ. eigenvalues --  -19.24924 -19.24048 -19.22419 -19.21921 -19.20798
 Alpha  occ. eigenvalues --  -19.18352 -19.18203 -19.16616 -19.16453 -19.15950
 Alpha  occ. eigenvalues --  -19.14230 -19.03745 -14.62837 -14.62716 -14.49050
 Alpha  occ. eigenvalues --  -14.48420 -14.44597 -14.41513 -14.40313 -14.40092
 Alpha  occ. eigenvalues --  -14.39676 -14.38845 -10.42361 -10.40848 -10.39657
 Alpha  occ. eigenvalues --  -10.37873 -10.36136 -10.35182 -10.34637 -10.34149
 Alpha  occ. eigenvalues --  -10.33535 -10.33346 -10.33026 -10.32936 -10.32846
 Alpha  occ. eigenvalues --  -10.32162 -10.32139 -10.31090 -10.29970 -10.29409
 Alpha  occ. eigenvalues --  -10.29092 -10.28812 -10.27883 -10.26794 -10.26717
 Alpha  occ. eigenvalues --  -10.26391 -10.25649 -10.24378 -10.24008 -10.23221
 Alpha  occ. eigenvalues --  -10.22247 -10.22116 -10.21632 -10.20826 -10.19828
 Alpha  occ. eigenvalues --  -10.17856 -10.17204 -10.16541 -10.15248 -10.14850
 Alpha  occ. eigenvalues --   -1.18566  -1.17224  -1.15650  -1.15091  -1.12995
 Alpha  occ. eigenvalues --   -1.12844  -1.10847  -1.10651  -1.10132  -1.08965
 Alpha  occ. eigenvalues --   -1.08172  -1.06488  -1.05924  -1.05195  -1.03679
 Alpha  occ. eigenvalues --   -1.01089  -0.98618  -0.97067  -0.96631  -0.96612
 Alpha  occ. eigenvalues --   -0.95957  -0.94264  -0.94116  -0.93641  -0.88580
 Alpha  occ. eigenvalues --   -0.87075  -0.86847  -0.85187  -0.84473  -0.83052
 Alpha  occ. eigenvalues --   -0.82108  -0.81783  -0.80764  -0.80465  -0.78792
 Alpha  occ. eigenvalues --   -0.78188  -0.76220  -0.76186  -0.75349  -0.74856
 Alpha  occ. eigenvalues --   -0.73861  -0.73298  -0.72772  -0.72637  -0.72562
 Alpha  occ. eigenvalues --   -0.72127  -0.71406  -0.70785  -0.70218  -0.69881
 Alpha  occ. eigenvalues --   -0.69356  -0.68520  -0.67117  -0.66794  -0.65654
 Alpha  occ. eigenvalues --   -0.65314  -0.65296  -0.64204  -0.63973  -0.63484
 Alpha  occ. eigenvalues --   -0.63440  -0.63200  -0.62440  -0.61760  -0.61542
 Alpha  occ. eigenvalues --   -0.61265  -0.60604  -0.59079  -0.58584  -0.58458
 Alpha  occ. eigenvalues --   -0.58276  -0.57561  -0.56999  -0.56675  -0.56007
 Alpha  occ. eigenvalues --   -0.55483  -0.55346  -0.54837  -0.54374  -0.54233
 Alpha  occ. eigenvalues --   -0.54021  -0.53262  -0.52970  -0.52868  -0.52619
 Alpha  occ. eigenvalues --   -0.52237  -0.51900  -0.51651  -0.51177  -0.50917
 Alpha  occ. eigenvalues --   -0.50821  -0.50540  -0.50355  -0.50213  -0.50074
 Alpha  occ. eigenvalues --   -0.49988  -0.49563  -0.49443  -0.49007  -0.48702
 Alpha  occ. eigenvalues --   -0.48263  -0.48018  -0.47702  -0.47450  -0.47173
 Alpha  occ. eigenvalues --   -0.47071  -0.46989  -0.46661  -0.46434  -0.46183
 Alpha  occ. eigenvalues --   -0.45753  -0.45452  -0.45012  -0.44917  -0.44509
 Alpha  occ. eigenvalues --   -0.44456  -0.44158  -0.43388  -0.43269  -0.43174
 Alpha  occ. eigenvalues --   -0.43070  -0.42723  -0.42401  -0.42313  -0.41986
 Alpha  occ. eigenvalues --   -0.41902  -0.41666  -0.41107  -0.40930  -0.40622
 Alpha  occ. eigenvalues --   -0.40235  -0.39975  -0.39629  -0.39537  -0.39025
 Alpha  occ. eigenvalues --   -0.38978  -0.38358  -0.38065  -0.37957  -0.37771
 Alpha  occ. eigenvalues --   -0.36767  -0.36599  -0.36112  -0.35660  -0.35379
 Alpha  occ. eigenvalues --   -0.34928  -0.34317  -0.34057  -0.33898  -0.32933
 Alpha  occ. eigenvalues --   -0.32591  -0.32543  -0.32225  -0.32137  -0.31752
 Alpha  occ. eigenvalues --   -0.31522  -0.30711  -0.30058  -0.29717  -0.29487
 Alpha  occ. eigenvalues --   -0.28506  -0.27469  -0.26892  -0.23763  -0.17529
 Alpha  occ. eigenvalues --   -0.14714
 Alpha virt. eigenvalues --   -0.14096  -0.12691  -0.11281  -0.08090  -0.06970
 Alpha virt. eigenvalues --   -0.06606  -0.06490  -0.06171  -0.06126  -0.04048
 Alpha virt. eigenvalues --   -0.03788  -0.03308  -0.03103  -0.02958  -0.02853

 Mulliken charges:
               1
     1  N   -0.702836
     2  H    0.410118
     3  H    0.420504
     4  H    0.401514
     5  C   -0.125117
     6  H    0.211250
     7  C    0.609203
     8  C   -0.368071
     9  H    0.189990
    10  H    0.187709
    11  O   -0.553346
    12  C    0.300351
    13  C   -0.069541
    14  H    0.152000
    15  N   -0.606919
    16  H    0.353700
    17  C    0.235458
    18  H    0.178747
    19  N   -0.419777
    20  N   -0.543849
    21  H    0.360977
    22  C   -0.103297
    23  H    0.173793
    24  C    0.631508
    25  C    0.143385
    26  H    0.148297
    27  O   -0.555673
    28  C   -0.446846
    29  H    0.158848
    30  H    0.182739
    31  H    0.138158
    32  O   -0.631406
    33  H    0.410513
    34  N   -0.626538
    35  H    0.354296
    36  C   -0.057692
    37  H    0.188269
    38  C    0.612898
    39  C   -0.268507
    40  H    0.132092
    41  H    0.184459
    42  O   -0.553999
    43  C   -0.094590
    44  H    0.141747
    45  C   -0.464607
    46  H    0.153088
    47  H    0.145547
    48  H    0.162359
    49  C   -0.439641
    50  H    0.149893
    51  H    0.148413
    52  H    0.142225
    53  N   -0.630411
    54  H    0.382718
    55  C   -0.037027
    56  H    0.169727
    57  C    0.625391
    58  C   -0.448914
    59  H    0.157482
    60  H    0.164309
    61  H    0.181484
    62  O   -0.544733
    63  N   -0.627775
    64  H    0.347197
    65  C   -0.026500
    66  H    0.185870
    67  C    0.616605
    68  C   -0.344488
    69  H    0.162136
    70  H    0.111075
    71  O   -0.578341
    72  C    0.105388
    73  C   -0.166897
    74  H    0.046540
    75  C   -0.218526
    76  H    0.102517
    77  C   -0.252093
    78  H    0.067428
    79  C   -0.233388
    80  H    0.106395
    81  O   -0.615149
    82  C    0.418072
    83  N   -0.593272
    84  H    0.378307
    85  C   -0.103555
    86  H    0.203677
    87  C    0.672282
    88  C   -0.346659
    89  H    0.191810
    90  H    0.215025
    91  O   -0.510734
    92  C    0.563165
    93  O   -0.452336
    94  O   -0.565499
    95  N   -0.638667
    96  H    0.351013
    97  C    0.007206
    98  H    0.212242
    99  C    0.600212
   100  C   -0.325778
   101  H    0.161875
   102  H    0.181724
   103  O   -0.473672
   104  C   -0.296674
   105  H    0.180179
   106  H    0.140403
   107  C   -0.290991
   108  H    0.168842
   109  H    0.199759
   110  C   -0.217220
   111  H    0.230032
   112  H    0.221267
   113  N   -0.719179
   114  H    0.426846
   115  H    0.425866
   116  H    0.437807
   117  O   -0.563973
   118  H    0.412912
   119  H    0.407866
 Sum of Mulliken charges =   1.00000

 Dipole moment (field-independent basis, Debye):
    X=            -17.6344    Y=             40.4178    Z=              2.8814  Tot=             44.1913
 Quadrupole moment (field-independent basis, Debye-Ang):
   XX=              4.3989   YY=           -197.8367   ZZ=           -216.3361
   XY=             87.5664   XZ=           -185.3791   YZ=           -189.8163

 Normal termination of Gaussian 16 at Sun Jun 19 13:58:39 2022.
