 Gaussian 16, Revision C.01,
 Gaussian 16:  ES64L-G16RevC.01  3-Jul-2019

 ----------------------------------------------------------------------
 # B3LYP/6-31G* empiricaldispersion=gd3 guess=read geom=check nosymm in
 tegral(ultrafinegrid)
 ----------------------------------------------------------------------

 ------------------------------------------------------
 Candidate Structure: Conf:110 Charge calc in gas phase
 ------------------------------------------------------
 Structure from the checkpoint file:  "conf-110.chk"
 Charge =  1 Multiplicity = 1

                          Input orientation:
 ---------------------------------------------------------------------
 Center     Atomic      Atomic             Coordinates (Angstroms)
 Number     Number       Type             X           Y           Z
 ---------------------------------------------------------------------
      1          7           0       -8.637930    0.280908    1.876190
      2          1           0       -8.452403   -0.252953    2.728021
      3          1           0       -8.599681    1.272355    2.125423
      4          1           0       -9.580318    0.063162    1.553693
      5          6           0       -7.621826   -0.008097    0.833636
      6          1           0       -7.632816   -1.077182    0.603186
      7          6           0       -6.251883    0.375505    1.397561
      8          6           0       -7.925478    0.785179   -0.435930
      9          1           0       -7.979457    1.843810   -0.167811
     10          1           0       -8.912981    0.493919   -0.790733
     11          8           0       -5.985645    1.569325    1.677351
     12          6           0       -6.926257    0.568888   -1.526279
     13          6           0       -6.964895   -0.141856   -2.687348
     14          1           0       -7.785611   -0.717551   -3.084876
     15          7           0       -5.662176    1.098431   -1.468882
     16          1           0       -5.303123    1.623326   -0.683263
     17          6           0       -5.005899    0.714577   -2.595908
     18          1           0       -4.007520    1.029101   -2.808083
     19          7           0       -5.761258   -0.043553   -3.355584
     20          7           0       -5.414822   -0.662919    1.604983
     21          1           0       -5.645649   -1.587277    1.279795
     22          6           0       -4.142048   -0.484547    2.271177
     23          1           0       -4.252687    0.402042    2.897711
     24          6           0       -3.042607   -0.246833    1.238198
     25          6           0       -3.807084   -1.719843    3.108212
     26          1           0       -2.767738   -1.629315    3.439427
     27          8           0       -2.311666   -1.159226    0.837250
     28          6           0       -4.706937   -1.893983    4.310800
     29          1           0       -4.616380   -1.043133    4.991402
     30          1           0       -4.429150   -2.802899    4.846426
     31          1           0       -5.750190   -1.984482    4.005712
     32          8           0       -3.945495   -2.878523    2.295682
     33          1           0       -3.239517   -2.817743    1.641180
     34          7           0       -2.915841    1.004643    0.772057
     35          1           0       -3.552684    1.720189    1.093399
     36          6           0       -1.833560    1.316545   -0.148378
     37          1           0       -1.721263    0.433544   -0.785834
     38          6           0       -0.538601    1.529538    0.629788
     39          6           0       -2.134654    2.524216   -1.011379
     40          1           0       -2.233002    3.397419   -0.362253
     41          1           0       -3.103994    2.362702   -1.493042
     42          8           0       -0.034377    2.633036    0.809023
     43          6           0       -1.076204    2.812496   -2.085943
     44          1           0       -0.211991    3.263520   -1.565321
     45          6           0       -0.595648    1.556075   -2.799400
     46          1           0       -1.443562    0.955804   -3.143186
     47          1           0        0.013038    0.936779   -2.138577
     48          1           0        0.012049    1.815317   -3.670182
     49          6           0       -1.645753    3.824106   -3.080709
     50          1           0       -2.497486    3.381840   -3.606043
     51          1           0       -0.898094    4.101934   -3.829803
     52          1           0       -1.979976    4.735749   -2.578902
     53          7           0        0.048721    0.410200    1.122435
     54          1           0       -0.317646   -0.475665    0.802229
     55          6           0        1.481691    0.466923    1.368170
     56          1           0        1.652529    1.305255    2.044150
     57          6           0        2.199799    0.743000    0.019468
     58          6           0        1.976352   -0.845024    1.953232
     59          1           0        3.015286   -0.753721    2.277365
     60          1           0        1.928119   -1.617842    1.183424
     61          1           0        1.361753   -1.136819    2.804151
     62          8           0        1.925336    0.073149   -1.007966
     63          7           0        3.101985    1.763069    0.080500
     64          1           0        3.291170    2.191238    0.968888
     65          6           0        3.854250    2.226075   -1.072051
     66          1           0        3.260100    1.940412   -1.949027
     67          6           0        5.209269    1.502850   -1.089574
     68          6           0        4.067880    3.739362   -0.999194
     69          1           0        4.533723    3.954445   -0.036353
     70          1           0        4.790799    4.028528   -1.762623
     71          8           0        6.250738    2.056784   -0.769648
     72          6           0        2.816179    4.540752   -1.179713
     73          6           0        2.574445    5.211959   -2.387872
     74          1           0        3.306602    5.153941   -3.183860
     75          6           0        1.854947    4.628561   -0.169033
     76          1           0        2.006780    4.102781    0.766546
     77          6           0        1.433779    5.952940   -2.590507
     78          1           0        1.247990    6.470323   -3.522273
     79          6           0        0.698155    5.353101   -0.319618
     80          1           0       -0.060863    5.368910    0.455695
     81          8           0       -0.612048    6.718618   -1.723332
     82          6           0        0.423207    6.065269   -1.554873
     83          7           0        5.175659    0.194885   -1.440295
     84          1           0        4.306026   -0.278666   -1.646972
     85          6           0        6.406659   -0.561790   -1.556326
     86          1           0        7.177519    0.095698   -1.962734
     87          6           0        6.159593   -1.742544   -2.504718
     88          6           0        6.903368   -1.050738   -0.181767
     89          1           0        6.156974   -1.683365    0.302179
     90          1           0        7.075411   -0.169598    0.436782
     91          8           0        5.047461   -2.188171   -2.713054
     92          6           0        8.200313   -1.801215   -0.305568
     93          8           0        9.138332   -1.401981   -0.962401
     94          8           0        8.198826   -2.959417    0.360055
     95          7           0        7.278000   -2.257164   -3.073915
     96          1           0        8.184912   -1.869995   -2.850956
     97          6           0        7.228325   -3.506590   -3.790138
     98          1           0        6.212614   -3.895843   -3.666247
     99          6           0        8.165966   -4.532449   -3.163830
    100          6           0        7.495976   -3.332876   -5.287550
    101          1           0        7.493874   -4.319799   -5.752271
    102          1           0        8.493640   -2.912834   -5.434979
    103          8           0        8.869561   -4.341804   -2.205633
    104          6           0        6.449884   -2.454242   -5.957544
    105          1           0        5.456237   -2.865767   -5.749472
    106          1           0        6.463310   -1.454147   -5.523681
    107          6           0        6.651186   -2.347066   -7.457395
    108          1           0        7.642255   -1.934133   -7.663727
    109          1           0        6.617156   -3.341375   -7.910818
    110          6           0        5.609229   -1.471318   -8.116490
    111          1           0        5.635986   -0.479834   -7.658168
    112          1           0        4.617691   -1.887858   -7.924131
    113          7           0        5.818503   -1.345164   -9.580430
    114          1           0        5.117689   -0.749823  -10.022967
    115          1           0        5.777972   -2.256969  -10.034615
    116          1           0        6.733943   -0.945427   -9.783852
    117          8           0        8.075608   -5.710176   -3.808289
    118          1           0        8.665965   -6.340368   -3.376734
    119          1           0        9.012275   -3.427283    0.121346
 ---------------------------------------------------------------------

 SCF Done:  E(RB3LYP) =  -2933.68318461     A.U. after    4 cycles

 Alpha  occ. eigenvalues --  -19.27949 -19.24873 -19.23503 -19.22390 -19.21574
 Alpha  occ. eigenvalues --  -19.20324 -19.18938 -19.18932 -19.16162 -19.15743
 Alpha  occ. eigenvalues --  -19.15253 -19.05152 -14.62504 -14.61131 -14.47961
 Alpha  occ. eigenvalues --  -14.46158 -14.44228 -14.43223 -14.40821 -14.39933
 Alpha  occ. eigenvalues --  -14.39454 -14.37890 -10.40639 -10.40353 -10.39546
 Alpha  occ. eigenvalues --  -10.39093 -10.37383 -10.37027 -10.35827 -10.33156
 Alpha  occ. eigenvalues --  -10.32830 -10.32460 -10.32449 -10.32276 -10.32105
 Alpha  occ. eigenvalues --  -10.32091 -10.31973 -10.30573 -10.30013 -10.29662
 Alpha  occ. eigenvalues --  -10.29430 -10.28658 -10.28044 -10.27745 -10.27212
 Alpha  occ. eigenvalues --  -10.26188 -10.25651 -10.25273 -10.23281 -10.22203
 Alpha  occ. eigenvalues --  -10.20045 -10.19962 -10.19885 -10.19065 -10.17503
 Alpha  occ. eigenvalues --  -10.16856 -10.16797 -10.16371 -10.14826 -10.14623
 Alpha  occ. eigenvalues --   -1.19261  -1.17759  -1.17182  -1.16236  -1.14030
 Alpha  occ. eigenvalues --   -1.12614  -1.11704  -1.10321  -1.09664  -1.09032
 Alpha  occ. eigenvalues --   -1.08222  -1.07768  -1.07007  -1.06233  -1.04046
 Alpha  occ. eigenvalues --   -1.00722  -1.00542  -0.97276  -0.96669  -0.96559
 Alpha  occ. eigenvalues --   -0.95647  -0.94699  -0.94659  -0.92586  -0.88792
 Alpha  occ. eigenvalues --   -0.87564  -0.85089  -0.84891  -0.83807  -0.83420
 Alpha  occ. eigenvalues --   -0.82830  -0.82037  -0.80821  -0.78955  -0.78491
 Alpha  occ. eigenvalues --   -0.77962  -0.77213  -0.75923  -0.75443  -0.75044
 Alpha  occ. eigenvalues --   -0.74517  -0.73374  -0.72069  -0.71893  -0.71354
 Alpha  occ. eigenvalues --   -0.71011  -0.70401  -0.69821  -0.69224  -0.69167
 Alpha  occ. eigenvalues --   -0.68749  -0.67910  -0.67491  -0.66748  -0.66668
 Alpha  occ. eigenvalues --   -0.66146  -0.65778  -0.65115  -0.63904  -0.63810
 Alpha  occ. eigenvalues --   -0.62634  -0.62273  -0.61835  -0.61686  -0.61495
 Alpha  occ. eigenvalues --   -0.61105  -0.60380  -0.59630  -0.58889  -0.58032
 Alpha  occ. eigenvalues --   -0.57732  -0.57672  -0.57142  -0.56504  -0.55953
 Alpha  occ. eigenvalues --   -0.55875  -0.55405  -0.55061  -0.54972  -0.54669
 Alpha  occ. eigenvalues --   -0.54213  -0.53853  -0.53502  -0.53178  -0.53043
 Alpha  occ. eigenvalues --   -0.52512  -0.52460  -0.52200  -0.52115  -0.51679
 Alpha  occ. eigenvalues --   -0.51324  -0.50935  -0.50517  -0.50356  -0.50199
 Alpha  occ. eigenvalues --   -0.49928  -0.49317  -0.49252  -0.48809  -0.48620
 Alpha  occ. eigenvalues --   -0.48395  -0.47905  -0.47829  -0.47456  -0.46957
 Alpha  occ. eigenvalues --   -0.46790  -0.46613  -0.46539  -0.46192  -0.45867
 Alpha  occ. eigenvalues --   -0.45820  -0.45623  -0.45434  -0.45088  -0.44890
 Alpha  occ. eigenvalues --   -0.44490  -0.44349  -0.44292  -0.44095  -0.43572
 Alpha  occ. eigenvalues --   -0.43327  -0.43087  -0.42730  -0.42605  -0.41890
 Alpha  occ. eigenvalues --   -0.41722  -0.41297  -0.40925  -0.40606  -0.40298
 Alpha  occ. eigenvalues --   -0.40216  -0.39684  -0.39448  -0.39353  -0.38842
 Alpha  occ. eigenvalues --   -0.38458  -0.38397  -0.37841  -0.37141  -0.36232
 Alpha  occ. eigenvalues --   -0.35998  -0.35601  -0.35296  -0.35226  -0.35087
 Alpha  occ. eigenvalues --   -0.34614  -0.34036  -0.33658  -0.33569  -0.33241
 Alpha  occ. eigenvalues --   -0.33072  -0.32895  -0.32809  -0.32567  -0.32253
 Alpha  occ. eigenvalues --   -0.31483  -0.30826  -0.30473  -0.29669  -0.29211
 Alpha  occ. eigenvalues --   -0.28597  -0.28405  -0.27302  -0.22730  -0.18433
 Alpha  occ. eigenvalues --   -0.14325
 Alpha virt. eigenvalues --   -0.13475  -0.13322  -0.10140  -0.07328  -0.07168
 Alpha virt. eigenvalues --   -0.06885  -0.06685  -0.06238  -0.05245  -0.05209
 Alpha virt. eigenvalues --   -0.04865  -0.04461  -0.03997  -0.03642  -0.02509

 Mulliken charges:
               1
     1  N   -0.671149
     2  H    0.386800
     3  H    0.413829
     4  H    0.376031
     5  C   -0.138043
     6  H    0.203834
     7  C    0.590217
     8  C   -0.365267
     9  H    0.191783
    10  H    0.177356
    11  O   -0.562467
    12  C    0.315558
    13  C   -0.080246
    14  H    0.142519
    15  N   -0.614320
    16  H    0.352451
    17  C    0.225468
    18  H    0.197515
    19  N   -0.425772
    20  N   -0.572860
    21  H    0.355348
    22  C   -0.087983
    23  H    0.190752
    24  C    0.659374
    25  C    0.115946
    26  H    0.158495
    27  O   -0.559083
    28  C   -0.446985
    29  H    0.155403
    30  H    0.186308
    31  H    0.119344
    32  O   -0.649106
    33  H    0.424372
    34  N   -0.624328
    35  H    0.351760
    36  C   -0.066546
    37  H    0.190401
    38  C    0.628261
    39  C   -0.303109
    40  H    0.174434
    41  H    0.104694
    42  O   -0.496945
    43  C   -0.091028
    44  H    0.207472
    45  C   -0.485979
    46  H    0.114426
    47  H    0.179938
    48  H    0.141528
    49  C   -0.454429
    50  H    0.098528
    51  H    0.149023
    52  H    0.190972
    53  N   -0.599350
    54  H    0.358874
    55  C   -0.036555
    56  H    0.166350
    57  C    0.632078
    58  C   -0.476404
    59  H    0.159727
    60  H    0.173499
    61  H    0.161105
    62  O   -0.566588
    63  N   -0.572533
    64  H    0.342442
    65  C   -0.057743
    66  H    0.180204
    67  C    0.623327
    68  C   -0.378705
    69  H    0.148737
    70  H    0.154504
    71  O   -0.524721
    72  C    0.157860
    73  C   -0.186007
    74  H    0.080101
    75  C   -0.150390
    76  H    0.078080
    77  C   -0.209698
    78  H    0.095901
    79  C   -0.211354
    80  H    0.100838
    81  O   -0.614348
    82  C    0.430231
    83  N   -0.635629
    84  H    0.365291
    85  C   -0.037207
    86  H    0.192746
    87  C    0.591096
    88  C   -0.344784
    89  H    0.176027
    90  H    0.221550
    91  O   -0.521629
    92  C    0.590483
    93  O   -0.487230
    94  O   -0.554770
    95  N   -0.610063
    96  H    0.369850
    97  C   -0.066133
    98  H    0.216705
    99  C    0.588069
   100  C   -0.274753
   101  H    0.171984
   102  H    0.152852
   103  O   -0.455474
   104  C   -0.271088
   105  H    0.173055
   106  H    0.171185
   107  C   -0.287142
   108  H    0.162793
   109  H    0.161804
   110  C   -0.221311
   111  H    0.227341
   112  H    0.225806
   113  N   -0.660839
   114  H    0.386804
   115  H    0.378254
   116  H    0.380188
   117  O   -0.563030
   118  H    0.425737
   119  H    0.427505
 Sum of Mulliken charges =   1.00000

 Dipole moment (field-independent basis, Debye):
    X=             -3.9930    Y=            -22.7994    Z=            -22.4230  Tot=             32.2265
 Quadrupole moment (field-independent basis, Debye-Ang):
   XX=             44.8014   YY=           -427.5372   ZZ=              0.0624
   XY=            -75.9411   XZ=           -285.3400   YZ=             81.1583

 Normal termination of Gaussian 16 at Sun Jun 19 13:59:15 2022.
