 Gaussian 16, Revision C.01,
 Gaussian 16:  ES64L-G16RevC.01  3-Jul-2019

 ----------------------------------------------------------------------
 # B3LYP/6-31G* empiricaldispersion=gd3 guess=read geom=check nosymm in
 tegral(ultrafinegrid)
 ----------------------------------------------------------------------

 ------------------------------------------------------
 Candidate Structure: Conf:474 Charge calc in gas phase
 ------------------------------------------------------
 Structure from the checkpoint file:  "conf-474.chk"
 Charge =  1 Multiplicity = 1

                          Input orientation:
 ---------------------------------------------------------------------
 Center     Atomic      Atomic             Coordinates (Angstroms)
 Number     Number       Type             X           Y           Z
 ---------------------------------------------------------------------
      1          7           0       -5.258358   -0.508085   -0.810113
      2          1           0       -5.338053    0.447408   -0.369769
      3          1           0       -5.084707   -0.379286   -1.828251
      4          1           0       -6.111029   -1.050262   -0.656751
      5          6           0       -4.024221   -1.084790   -0.162559
      6          1           0       -4.305942   -1.988822    0.382433
      7          6           0       -3.584787    0.016721    0.830966
      8          6           0       -2.951131   -1.418175   -1.250871
      9          1           0       -3.165878   -2.417119   -1.643388
     10          1           0       -1.966292   -1.453496   -0.773894
     11          8           0       -4.167844    1.103350    0.802542
     12          6           0       -2.944791   -0.447920   -2.385530
     13          6           0       -3.571935   -0.486752   -3.623303
     14          1           0       -4.141728   -1.302516   -4.054211
     15          7           0       -2.325088    0.781500   -2.343013
     16          1           0       -1.693290    1.084996   -1.599976
     17          6           0       -2.562891    1.397670   -3.529147
     18          1           0       -2.141103    2.364607   -3.763886
     19          7           0       -3.322482    0.667990   -4.328426
     20          7           0       -2.607312   -0.310671    1.690571
     21          1           0       -2.060286   -1.145529    1.499972
     22          6           0       -1.814362    0.736941    2.322466
     23          1           0       -2.487777    1.479905    2.757753
     24          6           0       -0.929635    1.368287    1.207706
     25          6           0       -0.913475    0.092673    3.399411
     26          1           0       -0.323824    0.899308    3.864205
     27          8           0       -0.978811    0.924298    0.060428
     28          6           0       -1.684827   -0.632948    4.497688
     29          1           0       -2.341251    0.055805    5.041104
     30          1           0       -0.979590   -1.069895    5.211837
     31          1           0       -2.292397   -1.440599    4.079623
     32          8           0       -0.078724   -0.779559    2.648144
     33          1           0        0.710402   -1.090873    3.153030
     34          7           0       -0.081028    2.341841    1.589143
     35          1           0       -0.130977    2.694712    2.536938
     36          6           0        1.081804    2.742077    0.788158
     37          1           0        1.005628    2.178163   -0.143259
     38          6           0        2.405674    2.281285    1.439731
     39          6           0        1.088730    4.245790    0.490392
     40          1           0        2.036766    4.474705   -0.007779
     41          1           0        1.098997    4.795027    1.443148
     42          8           0        3.481764    2.682924    1.019729
     43          6           0       -0.095526    4.720287   -0.372210
     44          1           0       -1.025394    4.400810    0.123015
     45          6           0       -0.101049    6.253821   -0.447954
     46          1           0        0.814246    6.622126   -0.927895
     47          1           0       -0.161404    6.706375    0.548871
     48          1           0       -0.952849    6.615995   -1.034381
     49          6           0       -0.067623    4.108819   -1.781528
     50          1           0        0.851470    4.388678   -2.311150
     51          1           0       -0.913013    4.478629   -2.374922
     52          1           0       -0.115657    3.016001   -1.778250
     53          7           0        2.263326    1.424984    2.499767
     54          1           0        1.402245    0.893663    2.534977
     55          6           0        3.401013    0.799285    3.180601
     56          1           0        4.301494    1.267228    2.775569
     57          6           0        3.328334   -0.687892    2.805454
     58          6           0        3.315613    0.999732    4.692465
     59          1           0        4.184480    0.555124    5.189059
     60          1           0        2.417741    0.515348    5.089213
     61          1           0        3.284034    2.067022    4.928192
     62          8           0        2.452612   -1.422486    3.295623
     63          7           0        4.191196   -1.084609    1.863122
     64          1           0        4.904484   -0.447605    1.513780
     65          6           0        4.114396   -2.331288    1.114265
     66          1           0        4.299505   -3.172665    1.793993
     67          6           0        5.270680   -2.266652    0.094816
     68          6           0        2.733678   -2.577791    0.459909
     69          1           0        2.765763   -3.572538   -0.003392
     70          1           0        2.018639   -2.659328    1.285535
     71          8           0        5.957738   -1.242628   -0.015021
     72          6           0        2.205122   -1.576211   -0.555809
     73          6           0        1.086594   -1.951793   -1.317089
     74          1           0        0.668968   -2.949256   -1.187862
     75          6           0        2.728577   -0.295206   -0.777603
     76          1           0        3.614048    0.044289   -0.258761
     77          6           0        0.507400   -1.095516   -2.250774
     78          1           0       -0.344280   -1.421432   -2.839467
     79          6           0        2.156912    0.571546   -1.709151
     80          1           0        2.595379    1.546404   -1.893638
     81          8           0        0.523993    1.069283   -3.348801
     82          6           0        1.040112    0.188828   -2.458290
     83          7           0        5.475831   -3.373473   -0.638199
     84          1           0        4.805496   -4.138629   -0.652689
     85          6           0        6.497050   -3.440803   -1.689315
     86          1           0        7.344285   -2.837589   -1.348783
     87          6           0        5.963005   -2.849472   -3.020994
     88          6           0        6.952922   -4.885733   -1.909632
     89          1           0        7.391743   -5.274928   -0.982574
     90          1           0        7.717850   -4.916573   -2.686500
     91          8           0        5.832301   -3.552003   -4.020193
     92          6           0        5.812288   -5.806356   -2.296248
     93          8           0        4.677703   -5.732742   -1.849735
     94          8           0        6.200397   -6.777190   -3.131832
     95          7           0        5.657078   -1.534387   -2.953327
     96          1           0        5.807805   -1.047548   -2.074226
     97          6           0        4.964438   -0.824933   -4.026047
     98          1           0        5.552743   -0.906013   -4.948286
     99          6           0        4.879054    0.666043   -3.722744
    100          6           0        3.571065   -1.453118   -4.291978
    101          1           0        3.044404   -1.527067   -3.336782
    102          1           0        3.773455   -2.475545   -4.625215
    103          8           0        4.497745    1.493354   -4.517281
    104          6           0        2.693750   -0.735550   -5.322746
    105          1           0        2.317986    0.202873   -4.906879
    106          1           0        3.289594   -0.454585   -6.200431
    107          6           0        1.523222   -1.623093   -5.776473
    108          1           0        1.900870   -2.407635   -6.444209
    109          1           0        1.090224   -2.145142   -4.910831
    110          6           0        0.410129   -0.841645   -6.488712
    111          1           0       -0.127891   -1.492875   -7.192634
    112          1           0        0.846002   -0.025807   -7.075972
    113          7           0       -0.526730   -0.235982   -5.508832
    114          1           0       -1.169840    0.404755   -5.973672
    115          1           0        0.122788    0.580643   -4.141556
    116          1           0       -1.129759   -0.964375   -5.126560
    117          8           0        5.267529    0.982460   -2.461894
    118          1           0        5.183033    1.949782   -2.367781
    119          1           0        5.420326   -7.337612   -3.306761
 ---------------------------------------------------------------------

 SCF Done:  E(RB3LYP) =  -2933.91813954     A.U. after    1 cycles

 Alpha  occ. eigenvalues --  -19.27256 -19.26461 -19.26241 -19.24796 -19.23668
 Alpha  occ. eigenvalues --  -19.21332 -19.21145 -19.21113 -19.20753 -19.20003
 Alpha  occ. eigenvalues --  -19.19999 -19.17940 -14.59046 -14.49713 -14.48254
 Alpha  occ. eigenvalues --  -14.47465 -14.44856 -14.44505 -14.44225 -14.41672
 Alpha  occ. eigenvalues --  -14.41563 -14.41270 -10.43866 -10.40865 -10.40713
 Alpha  occ. eigenvalues --  -10.39567 -10.38399 -10.37879 -10.37643 -10.37308
 Alpha  occ. eigenvalues --  -10.35938 -10.35586 -10.34964 -10.34535 -10.33917
 Alpha  occ. eigenvalues --  -10.33650 -10.32478 -10.31828 -10.31692 -10.31361
 Alpha  occ. eigenvalues --  -10.31272 -10.31082 -10.29959 -10.28110 -10.27912
 Alpha  occ. eigenvalues --  -10.27514 -10.27494 -10.26635 -10.26424 -10.26089
 Alpha  occ. eigenvalues --  -10.26032 -10.25975 -10.25836 -10.25689 -10.24844
 Alpha  occ. eigenvalues --  -10.24367 -10.23797 -10.23732 -10.23677 -10.23125
 Alpha  occ. eigenvalues --   -1.19637  -1.17643  -1.16940  -1.15736  -1.13531
 Alpha  occ. eigenvalues --   -1.13261  -1.12626  -1.12122  -1.11664  -1.11601
 Alpha  occ. eigenvalues --   -1.09815  -1.09702  -1.08501  -1.07847  -1.06501
 Alpha  occ. eigenvalues --   -1.04123  -1.01672  -1.00941  -1.00645  -0.98570
 Alpha  occ. eigenvalues --   -0.97354  -0.96744  -0.93652  -0.92252  -0.90072
 Alpha  occ. eigenvalues --   -0.88277  -0.87960  -0.86280  -0.86163  -0.85557
 Alpha  occ. eigenvalues --   -0.84869  -0.83181  -0.81938  -0.81683  -0.81300
 Alpha  occ. eigenvalues --   -0.80669  -0.79261  -0.76820  -0.75343  -0.75037
 Alpha  occ. eigenvalues --   -0.74800  -0.74198  -0.73903  -0.73036  -0.72628
 Alpha  occ. eigenvalues --   -0.71895  -0.71435  -0.71161  -0.70030  -0.69967
 Alpha  occ. eigenvalues --   -0.69386  -0.68652  -0.68505  -0.67793  -0.67104
 Alpha  occ. eigenvalues --   -0.66764  -0.66248  -0.65795  -0.65216  -0.64807
 Alpha  occ. eigenvalues --   -0.64441  -0.63923  -0.63708  -0.63269  -0.62884
 Alpha  occ. eigenvalues --   -0.61966  -0.61303  -0.60658  -0.60445  -0.59263
 Alpha  occ. eigenvalues --   -0.58270  -0.58075  -0.57750  -0.57438  -0.57167
 Alpha  occ. eigenvalues --   -0.56991  -0.56644  -0.56274  -0.56031  -0.55573
 Alpha  occ. eigenvalues --   -0.55426  -0.54863  -0.54735  -0.54595  -0.54418
 Alpha  occ. eigenvalues --   -0.53947  -0.53910  -0.53732  -0.53329  -0.53186
 Alpha  occ. eigenvalues --   -0.52998  -0.52406  -0.52363  -0.51920  -0.51772
 Alpha  occ. eigenvalues --   -0.51730  -0.51622  -0.51220  -0.51100  -0.50982
 Alpha  occ. eigenvalues --   -0.50780  -0.50601  -0.50420  -0.50109  -0.49511
 Alpha  occ. eigenvalues --   -0.49382  -0.49275  -0.49065  -0.48863  -0.48716
 Alpha  occ. eigenvalues --   -0.48570  -0.47896  -0.47446  -0.47306  -0.46914
 Alpha  occ. eigenvalues --   -0.46654  -0.46454  -0.46356  -0.46211  -0.46004
 Alpha  occ. eigenvalues --   -0.45705  -0.45551  -0.45291  -0.44989  -0.44856
 Alpha  occ. eigenvalues --   -0.44645  -0.44625  -0.44260  -0.43683  -0.43496
 Alpha  occ. eigenvalues --   -0.43201  -0.43036  -0.42315  -0.41993  -0.41750
 Alpha  occ. eigenvalues --   -0.41645  -0.40824  -0.40465  -0.40019  -0.39864
 Alpha  occ. eigenvalues --   -0.39558  -0.39407  -0.39268  -0.39007  -0.38627
 Alpha  occ. eigenvalues --   -0.38465  -0.38371  -0.37787  -0.37721  -0.37302
 Alpha  occ. eigenvalues --   -0.36992  -0.36849  -0.36090  -0.35949  -0.34954
 Alpha  occ. eigenvalues --   -0.34653  -0.34399  -0.34154  -0.33775  -0.33583
 Alpha  occ. eigenvalues --   -0.33440  -0.32695  -0.32132  -0.31127  -0.30636
 Alpha  occ. eigenvalues --   -0.28214
 Alpha virt. eigenvalues --   -0.13084  -0.10273  -0.09594  -0.08357  -0.08234
 Alpha virt. eigenvalues --   -0.07977  -0.06627  -0.06448  -0.06077  -0.05745
 Alpha virt. eigenvalues --   -0.05380  -0.05113  -0.04064  -0.03654  -0.03619

 Mulliken charges:
               1
     1  N   -0.760122
     2  H    0.431834
     3  H    0.399821
     4  H    0.410152
     5  C   -0.110154
     6  H    0.217513
     7  C    0.654007
     8  C   -0.381576
     9  H    0.191656
    10  H    0.228478
    11  O   -0.526718
    12  C    0.236276
    13  C   -0.117978
    14  H    0.154437
    15  N   -0.592790
    16  H    0.434900
    17  C    0.213730
    18  H    0.197497
    19  N   -0.420997
    20  N   -0.578626
    21  H    0.368313
    22  C   -0.085009
    23  H    0.205029
    24  C    0.657683
    25  C    0.101672
    26  H    0.130552
    27  O   -0.548764
    28  C   -0.450568
    29  H    0.160504
    30  H    0.178909
    31  H    0.158807
    32  O   -0.678638
    33  H    0.455274
    34  N   -0.617295
    35  H    0.343651
    36  C   -0.100849
    37  H    0.234634
    38  C    0.621773
    39  C   -0.261924
    40  H    0.180415
    41  H    0.132710
    42  O   -0.519262
    43  C   -0.072318
    44  H    0.116709
    45  C   -0.444306
    46  H    0.153122
    47  H    0.143774
    48  H    0.149211
    49  C   -0.479092
    50  H    0.158708
    51  H    0.139233
    52  H    0.168965
    53  N   -0.649695
    54  H    0.366000
    55  C   -0.050485
    56  H    0.190462
    57  C    0.642256
    58  C   -0.442672
    59  H    0.171484
    60  H    0.152573
    61  H    0.166996
    62  O   -0.581827
    63  N   -0.612296
    64  H    0.380382
    65  C   -0.042521
    66  H    0.190648
    67  C    0.636541
    68  C   -0.382480
    69  H    0.163958
    70  H    0.194536
    71  O   -0.557169
    72  C    0.167672
    73  C   -0.197563
    74  H    0.117444
    75  C   -0.199830
    76  H    0.146588
    77  C   -0.189194
    78  H    0.112349
    79  C   -0.207258
    80  H    0.146542
    81  O   -0.728819
    82  C    0.377511
    83  N   -0.624296
    84  H    0.382843
    85  C   -0.094485
    86  H    0.200113
    87  C    0.651513
    88  C   -0.368715
    89  H    0.192680
    90  H    0.209543
    91  O   -0.524835
    92  C    0.626863
    93  O   -0.501511
    94  O   -0.544540
    95  N   -0.666282
    96  H    0.407294
    97  C   -0.029715
    98  H    0.196750
    99  C    0.600353
   100  C   -0.298379
   101  H    0.161394
   102  H    0.181805
   103  O   -0.457976
   104  C   -0.279247
   105  H    0.169852
   106  H    0.148414
   107  C   -0.265795
   108  H    0.150024
   109  H    0.128105
   110  C   -0.147418
   111  H    0.140644
   112  H    0.167139
   113  N   -0.787743
   114  H    0.339671
   115  H    0.486218
   116  H    0.322102
   117  O   -0.580429
   118  H    0.423696
   119  H    0.419251
 Sum of Mulliken charges =   1.00000

 Dipole moment (field-independent basis, Debye):
    X=            -11.1266    Y=             -6.1242    Z=              2.5001  Tot=             12.9444
 Quadrupole moment (field-independent basis, Debye-Ang):
   XX=           -246.6184   YY=           -309.6548   ZZ=           -319.0419
   XY=             -1.7067   XZ=             17.3029   YZ=             19.9728

 Normal termination of Gaussian 16 at Sun Jun 19 14:03:37 2022.
