 Gaussian 16, Revision C.01,
 Gaussian 16:  ES64L-G16RevC.01  3-Jul-2019

 ----------------------------------------------------------------------
 # B3LYP/6-31G* empiricaldispersion=gd3 guess=read geom=check nosymm in
 tegral(ultrafinegrid)
 ----------------------------------------------------------------------

 ------------------------------------------------------
 Candidate Structure: Conf:472 Charge calc in gas phase
 ------------------------------------------------------
 Structure from the checkpoint file:  "conf-472.chk"
 Charge =  1 Multiplicity = 1

                          Input orientation:
 ---------------------------------------------------------------------
 Center     Atomic      Atomic             Coordinates (Angstroms)
 Number     Number       Type             X           Y           Z
 ---------------------------------------------------------------------
      1          7           0       -8.204454    4.383190    4.042331
      2          1           0       -8.163379    3.869151    4.925830
      3          1           0       -7.651130    5.237460    4.148388
      4          1           0       -9.173450    4.643734    3.864924
      5          6           0       -7.650296    3.589230    2.921778
      6          1           0       -8.099672    2.594495    2.932748
      7          6           0       -6.139261    3.466010    3.100122
      8          6           0       -7.953931    4.297496    1.596315
      9          1           0       -7.474578    5.275570    1.635666
     10          1           0       -9.032489    4.453790    1.528907
     11          8           0       -5.437506    4.463073    3.259967
     12          6           0       -7.453699    3.584108    0.382552
     13          6           0       -6.363865    3.808643   -0.407797
     14          1           0       -5.635177    4.600440   -0.303844
     15          7           0       -8.043074    2.453717   -0.146185
     16          1           0       -8.892612    2.020398    0.180048
     17          6           0       -7.299776    2.062888   -1.218346
     18          1           0       -7.543372    1.203383   -1.815953
     19          7           0       -6.265908    2.857325   -1.399062
     20          7           0       -5.639498    2.210353    3.042083
     21          1           0       -6.246481    1.414901    2.945687
     22          6           0       -4.220138    1.943197    3.046831
     23          1           0       -3.706885    2.881624    2.850369
     24          6           0       -3.928402    0.917100    1.954035
     25          6           0       -3.749299    1.396568    4.413264
     26          1           0       -2.710216    1.055724    4.298761
     27          8           0       -4.665799   -0.060855    1.800061
     28          6           0       -3.818005    2.462725    5.485464
     29          1           0       -3.191187    3.321632    5.225461
     30          1           0       -3.485405    2.046365    6.435905
     31          1           0       -4.842923    2.811752    5.604781
     32          8           0       -4.574360    0.327820    4.853207
     33          1           0       -4.528147   -0.377442    4.197232
     34          7           0       -2.815578    1.130830    1.210473
     35          1           0       -2.128812    1.807644    1.513687
     36          6           0       -2.264543    0.106722    0.344041
     37          1           0       -2.721747   -0.852285    0.591658
     38          6           0       -0.768633    0.060990    0.635962
     39          6           0       -2.497232    0.405465   -1.138369
     40          1           0       -1.960996   -0.338599   -1.728024
     41          1           0       -2.037063    1.370383   -1.371310
     42          8           0       -0.178223    1.007472    1.137997
     43          6           0       -3.965726    0.434316   -1.564498
     44          1           0       -4.487649    1.127249   -0.901960
     45          6           0       -4.093660    0.958480   -2.992170
     46          1           0       -3.621522    0.268504   -3.695596
     47          1           0       -3.616912    1.936592   -3.101520
     48          1           0       -5.146054    1.065694   -3.267168
     49          6           0       -4.628797   -0.934442   -1.444212
     50          1           0       -4.111095   -1.661010   -2.076664
     51          1           0       -5.669942   -0.881006   -1.776672
     52          1           0       -4.621272   -1.298002   -0.416922
     53          7           0       -0.138445   -1.095816    0.288425
     54          1           0       -0.622012   -1.694797   -0.356003
     55          6           0        1.310867   -1.118128    0.164543
     56          1           0        1.717832   -0.605831    1.042240
     57          6           0        1.740514   -0.311886   -1.074442
     58          6           0        1.801342   -2.556756    0.108852
     59          1           0        2.889669   -2.594380    0.046626
     60          1           0        1.387388   -3.060515   -0.767876
     61          1           0        1.481130   -3.086590    1.007177
     62          8           0        0.942903    0.151491   -1.874396
     63          7           0        3.082091   -0.165001   -1.212993
     64          1           0        3.718962   -0.465962   -0.493199
     65          6           0        3.634661    0.774805   -2.158670
     66          1           0        3.190523    0.582808   -3.141085
     67          6           0        5.141190    0.513149   -2.208283
     68          6           0        3.324861    2.237926   -1.768358
     69          1           0        3.851472    2.899916   -2.458899
     70          1           0        2.255751    2.389595   -1.899965
     71          8           0        5.712121   -0.161200   -1.369099
     72          6           0        3.694356    2.528912   -0.359070
     73          6           0        2.745113    2.377836    0.675314
     74          1           0        1.731062    2.059458    0.433695
     75          6           0        5.001103    2.924303   -0.015553
     76          1           0        5.734038    3.025818   -0.811837
     77          6           0        3.060137    2.612633    1.985708
     78          1           0        2.331448    2.498294    2.776463
     79          6           0        5.369786    3.176212    1.277719
     80          1           0        6.374700    3.484496    1.531893
     81          8           0        4.699340    3.263502    3.532518
     82          6           0        4.401980    3.037442    2.361123
     83          7           0        5.799575    1.145823   -3.204935
     84          1           0        5.299723    1.574328   -3.965344
     85          6           0        7.190288    0.854317   -3.460548
     86          1           0        7.732859    0.991961   -2.523709
     87          6           0        7.679295    1.857303   -4.509747
     88          6           0        7.446496   -0.599575   -3.900080
     89          1           0        7.073876   -1.250570   -3.106456
     90          1           0        8.520727   -0.766315   -4.010553
     91          8           0        6.916023    2.443714   -5.256058
     92          6           0        6.803246   -1.022508   -5.193611
     93          8           0        7.383516   -1.558918   -6.105279
     94          8           0        5.473307   -0.775021   -5.229066
     95          7           0        9.025894    2.020744   -4.559441
     96          1           0        9.632161    1.429239   -4.012012
     97          6           0        9.650962    2.774535   -5.624054
     98          1           0        8.936640    2.854119   -6.448960
     99          6           0       10.870482    2.012649   -6.097603
    100          6           0       10.064827    4.190258   -5.201754
    101          1           0       10.587511    4.645360   -6.045030
    102          1           0       10.777195    4.133242   -4.375830
    103          8           0       11.408272    1.114254   -5.501161
    104          6           0        8.882465    5.063751   -4.812777
    105          1           0        8.145447    5.050169   -5.621522
    106          1           0        8.384587    4.657226   -3.935940
    107          6           0        9.295428    6.497550   -4.529713
    108          1           0       10.021595    6.513668   -3.712534
    109          1           0        9.790310    6.921759   -5.407788
    110          6           0        8.120903    7.374875   -4.157765
    111          1           0        7.622477    6.951826   -3.282485
    112          1           0        7.396255    7.368610   -4.975392
    113          7           0        8.527352    8.772802   -3.867921
    114          1           0        7.734580    9.362712   -3.613058
    115          1           0        8.977875    9.197006   -4.678100
    116          1           0        9.194739    8.805502   -3.098025
    117          8           0       11.317733    2.481938   -7.278627
    118          1           0       12.102133    1.960372   -7.490567
    119          1           0        5.160354   -1.106008   -6.080123
 ---------------------------------------------------------------------

 SCF Done:  E(RB3LYP) =  -2933.68034967     A.U. after    3 cycles

 Alpha  occ. eigenvalues --  -19.27225 -19.23950 -19.22788 -19.21907 -19.20871
 Alpha  occ. eigenvalues --  -19.19118 -19.18939 -19.18131 -19.16451 -19.15208
 Alpha  occ. eigenvalues --  -19.13993 -19.03797 -14.61370 -14.60915 -14.48236
 Alpha  occ. eigenvalues --  -14.46782 -14.43436 -14.42217 -14.39932 -14.39585
 Alpha  occ. eigenvalues --  -14.39367 -14.37414 -10.40457 -10.39767 -10.39631
 Alpha  occ. eigenvalues --  -10.38252 -10.36469 -10.35952 -10.35934 -10.33607
 Alpha  occ. eigenvalues --  -10.33121 -10.32386 -10.31825 -10.31747 -10.31726
 Alpha  occ. eigenvalues --  -10.31396 -10.31099 -10.30994 -10.30772 -10.29530
 Alpha  occ. eigenvalues --  -10.28696 -10.28350 -10.28125 -10.27886 -10.26409
 Alpha  occ. eigenvalues --  -10.25110 -10.25061 -10.23862 -10.22296 -10.22210
 Alpha  occ. eigenvalues --  -10.21831 -10.20658 -10.20158 -10.19352 -10.18929
 Alpha  occ. eigenvalues --  -10.16094 -10.15594 -10.15275 -10.13954 -10.13569
 Alpha  occ. eigenvalues --   -1.18764  -1.17535  -1.16266  -1.15191  -1.14213
 Alpha  occ. eigenvalues --   -1.11730  -1.11036  -1.10416  -1.09730  -1.08866
 Alpha  occ. eigenvalues --   -1.08546  -1.07908  -1.06105  -1.05962  -1.02897
 Alpha  occ. eigenvalues --   -1.00643  -0.98874  -0.97203  -0.96849  -0.95970
 Alpha  occ. eigenvalues --   -0.94706  -0.94659  -0.93551  -0.93495  -0.88225
 Alpha  occ. eigenvalues --   -0.86925  -0.85333  -0.84688  -0.84156  -0.82660
 Alpha  occ. eigenvalues --   -0.82133  -0.81458  -0.80238  -0.79233  -0.77760
 Alpha  occ. eigenvalues --   -0.77124  -0.76901  -0.75248  -0.74757  -0.74429
 Alpha  occ. eigenvalues --   -0.73888  -0.73339  -0.71720  -0.71299  -0.70867
 Alpha  occ. eigenvalues --   -0.70762  -0.70367  -0.69934  -0.69409  -0.68886
 Alpha  occ. eigenvalues --   -0.68034  -0.67885  -0.67635  -0.66482  -0.66404
 Alpha  occ. eigenvalues --   -0.65669  -0.64851  -0.64598  -0.63624  -0.62859
 Alpha  occ. eigenvalues --   -0.62747  -0.62553  -0.62170  -0.61106  -0.60677
 Alpha  occ. eigenvalues --   -0.60305  -0.59793  -0.59404  -0.58209  -0.57396
 Alpha  occ. eigenvalues --   -0.57121  -0.56914  -0.56735  -0.55932  -0.55292
 Alpha  occ. eigenvalues --   -0.55044  -0.54646  -0.54345  -0.54196  -0.53925
 Alpha  occ. eigenvalues --   -0.53743  -0.53422  -0.53140  -0.52530  -0.52236
 Alpha  occ. eigenvalues --   -0.52205  -0.51980  -0.51742  -0.51492  -0.50932
 Alpha  occ. eigenvalues --   -0.50676  -0.50410  -0.50368  -0.50110  -0.49762
 Alpha  occ. eigenvalues --   -0.49599  -0.49053  -0.48980  -0.48683  -0.48518
 Alpha  occ. eigenvalues --   -0.48168  -0.47638  -0.47451  -0.47135  -0.47021
 Alpha  occ. eigenvalues --   -0.46602  -0.46410  -0.46189  -0.45783  -0.45375
 Alpha  occ. eigenvalues --   -0.45062  -0.44973  -0.44813  -0.44693  -0.44587
 Alpha  occ. eigenvalues --   -0.44416  -0.43923  -0.43666  -0.43491  -0.43218
 Alpha  occ. eigenvalues --   -0.42861  -0.42765  -0.42693  -0.42486  -0.41879
 Alpha  occ. eigenvalues --   -0.41761  -0.41651  -0.41470  -0.40363  -0.40199
 Alpha  occ. eigenvalues --   -0.39839  -0.39555  -0.39441  -0.38620  -0.38224
 Alpha  occ. eigenvalues --   -0.37763  -0.37551  -0.37061  -0.36630  -0.36329
 Alpha  occ. eigenvalues --   -0.36308  -0.35962  -0.35744  -0.35467  -0.34958
 Alpha  occ. eigenvalues --   -0.34396  -0.34258  -0.34007  -0.33430  -0.33065
 Alpha  occ. eigenvalues --   -0.32620  -0.32169  -0.31898  -0.31667  -0.31646
 Alpha  occ. eigenvalues --   -0.31299  -0.30753  -0.29758  -0.29725  -0.28855
 Alpha  occ. eigenvalues --   -0.27825  -0.27463  -0.26759  -0.22191  -0.17195
 Alpha  occ. eigenvalues --   -0.13301
 Alpha virt. eigenvalues --   -0.12471  -0.12207  -0.09749  -0.07334  -0.06851
 Alpha virt. eigenvalues --   -0.05585  -0.05579  -0.05380  -0.05323  -0.04852
 Alpha virt. eigenvalues --   -0.04762  -0.03641  -0.03185  -0.02857  -0.02267

 Mulliken charges:
               1
     1  N   -0.675573
     2  H    0.391898
     3  H    0.412962
     4  H    0.375996
     5  C   -0.137801
     6  H    0.192559
     7  C    0.637746
     8  C   -0.375588
     9  H    0.208044
    10  H    0.164833
    11  O   -0.525863
    12  C    0.318331
    13  C   -0.056514
    14  H    0.162417
    15  N   -0.613906
    16  H    0.333852
    17  C    0.229583
    18  H    0.184834
    19  N   -0.405600
    20  N   -0.566896
    21  H    0.346864
    22  C   -0.100455
    23  H    0.197447
    24  C    0.615399
    25  C    0.133296
    26  H    0.155924
    27  O   -0.553391
    28  C   -0.438673
    29  H    0.166240
    30  H    0.180098
    31  H    0.121679
    32  O   -0.633640
    33  H    0.406693
    34  N   -0.590334
    35  H    0.358666
    36  C   -0.095978
    37  H    0.178762
    38  C    0.631395
    39  C   -0.245815
    40  H    0.148394
    41  H    0.157359
    42  O   -0.513135
    43  C   -0.077667
    44  H    0.142380
    45  C   -0.424650
    46  H    0.134519
    47  H    0.144956
    48  H    0.135821
    49  C   -0.461875
    50  H    0.133330
    51  H    0.122063
    52  H    0.167710
    53  N   -0.582039
    54  H    0.328485
    55  C   -0.086928
    56  H    0.211940
    57  C    0.645700
    58  C   -0.462023
    59  H    0.174828
    60  H    0.149467
    61  H    0.168651
    62  O   -0.548803
    63  N   -0.610524
    64  H    0.357604
    65  C   -0.028912
    66  H    0.157800
    67  C    0.649818
    68  C   -0.379021
    69  H    0.115732
    70  H    0.170305
    71  O   -0.539551
    72  C    0.135251
    73  C   -0.214932
    74  H    0.136172
    75  C   -0.168554
    76  H    0.057256
    77  C   -0.231085
    78  H    0.090599
    79  C   -0.216557
    80  H    0.077508
    81  O   -0.602847
    82  C    0.414906
    83  N   -0.611116
    84  H    0.350497
    85  C   -0.055468
    86  H    0.191032
    87  C    0.626893
    88  C   -0.361804
    89  H    0.229197
    90  H    0.175684
    91  O   -0.535531
    92  C    0.568142
    93  O   -0.453046
    94  O   -0.558086
    95  N   -0.614503
    96  H    0.355918
    97  C   -0.047568
    98  H    0.209260
    99  C    0.583832
   100  C   -0.272362
   101  H    0.167137
   102  H    0.156832
   103  O   -0.449992
   104  C   -0.271592
   105  H    0.172937
   106  H    0.176835
   107  C   -0.286652
   108  H    0.163191
   109  H    0.158286
   110  C   -0.220490
   111  H    0.231027
   112  H    0.219920
   113  N   -0.645968
   114  H    0.371860
   115  H    0.362168
   116  H    0.367598
   117  O   -0.562936
   118  H    0.426296
   119  H    0.413630
 Sum of Mulliken charges =   1.00000

 Dipole moment (field-independent basis, Debye):
    X=             -7.2825    Y=             35.1270    Z=            -10.6051  Tot=             37.4087
 Quadrupole moment (field-independent basis, Debye-Ang):
   XX=            200.8778   YY=            -51.6251   ZZ=           -263.6987
   XY=            129.2385   XZ=           -292.4460   YZ=            -98.9610

 Normal termination of Gaussian 16 at Sun Jun 19 14:04:04 2022.
