 Gaussian 16, Revision C.01,
 Gaussian 16:  ES64L-G16RevC.01  3-Jul-2019

 ----------------------------------------------------------------------
 # B3LYP/6-31G* empiricaldispersion=gd3 guess=read geom=check nosymm in
 tegral(ultrafinegrid)
 ----------------------------------------------------------------------

 -----------------------------------------------------
 Candidate Structure: Conf:84 Charge calc in gas phase
 -----------------------------------------------------
 Structure from the checkpoint file:  "conf-84.chk"
 Charge =  1 Multiplicity = 1

                          Input orientation:
 ---------------------------------------------------------------------
 Center     Atomic      Atomic             Coordinates (Angstroms)
 Number     Number       Type             X           Y           Z
 ---------------------------------------------------------------------
      1          7           0       -8.611437    0.177801    4.839528
      2          1           0       -8.158497    0.209195    5.758615
      3          1           0       -9.025747    1.099285    4.662858
      4          1           0       -9.361320   -0.517734    4.874159
      5          6           0       -7.631517   -0.118672    3.752884
      6          1           0       -7.091585   -1.039232    3.992948
      7          6           0       -6.664354    1.052811    3.646271
      8          6           0       -8.368201   -0.286865    2.412524
      9          1           0       -8.993273    0.597791    2.259058
     10          1           0       -9.031848   -1.150092    2.485440
     11          8           0       -7.103395    2.181091    3.404317
     12          6           0       -7.431526   -0.463989    1.261284
     13          6           0       -6.951674   -1.566932    0.611487
     14          1           0       -7.211921   -2.602335    0.779773
     15          7           0       -6.784351    0.605732    0.678146
     16          1           0       -6.836907    1.561956    1.004448
     17          6           0       -5.964550    0.106017   -0.284857
     18          1           0       -5.351134    0.739028   -0.903515
     19          7           0       -6.039059   -1.204402   -0.356132
     20          7           0       -5.351859    0.749076    3.817087
     21          1           0       -5.081732   -0.225968    3.759841
     22          6           0       -4.299748    1.660086    3.380788
     23          1           0       -4.768654    2.606309    3.110043
     24          6           0       -3.632582    1.004337    2.172711
     25          6           0       -3.307355    1.924796    4.532346
     26          1           0       -2.816722    0.970659    4.776325
     27          8           0       -3.491421   -0.208698    2.113062
     28          6           0       -2.279312    2.985695    4.194449
     29          1           0       -1.669562    2.704842    3.338828
     30          1           0       -1.630753    3.143720    5.058489
     31          1           0       -2.797008    3.927541    3.981606
     32          8           0       -4.020924    2.412679    5.663537
     33          1           0       -4.730887    1.783097    5.839751
     34          7           0       -3.233591    1.841548    1.176885
     35          1           0       -3.097384    2.812834    1.411030
     36          6           0       -2.422121    1.331697    0.083436
     37          1           0       -2.800120    0.331688   -0.133338
     38          6           0       -0.958851    1.221433    0.534424
     39          6           0       -2.581849    2.236226   -1.146917
     40          1           0       -2.156793    3.217588   -0.909500
     41          1           0       -3.657533    2.385449   -1.297235
     42          8           0       -0.490839    1.922591    1.424999
     43          6           0       -1.993216    1.732680   -2.471056
     44          1           0       -0.915151    1.588201   -2.350674
     45          6           0       -2.613272    0.408252   -2.911457
     46          1           0       -3.683738    0.536806   -3.107610
     47          1           0       -2.503673   -0.381279   -2.159725
     48          1           0       -2.138239    0.048626   -3.828474
     49          6           0       -2.197021    2.800384   -3.546642
     50          1           0       -3.263750    2.987339   -3.700380
     51          1           0       -1.770149    2.484319   -4.501822
     52          1           0       -1.724747    3.744750   -3.264265
     53          7           0       -0.219107    0.323709   -0.152594
     54          1           0       -0.560553   -0.118213   -0.991883
     55          6           0        1.216076    0.244652   -0.004721
     56          1           0        1.618010    1.259703    0.112231
     57          6           0        1.729351   -0.350113   -1.326162
     58          6           0        1.618009   -0.587303    1.212401
     59          1           0        2.703820   -0.595355    1.332054
     60          1           0        1.269266   -1.617707    1.104736
     61          1           0        1.168318   -0.152066    2.105063
     62          8           0        0.958450   -0.739327   -2.194246
     63          7           0        3.069731   -0.421166   -1.439632
     64          1           0        3.683025   -0.024783   -0.742832
     65          6           0        3.721708   -0.779199   -2.678534
     66          1           0        3.329843   -1.742229   -3.028409
     67          6           0        5.210406   -0.906800   -2.348081
     68          6           0        3.473803    0.261107   -3.803646
     69          1           0        4.083008   -0.030030   -4.665426
     70          1           0        2.426944    0.172441   -4.089755
     71          8           0        5.675008   -0.531580   -1.281347
     72          6           0        3.770248    1.664675   -3.399841
     73          6           0        2.729782    2.540667   -3.018430
     74          1           0        1.705136    2.177703   -3.060097
     75          6           0        5.092310    2.150824   -3.373460
     76          1           0        5.894904    1.484101   -3.686989
     77          6           0        2.981491    3.824351   -2.601484
     78          1           0        2.183967    4.495137   -2.306856
     79          6           0        5.391515    3.426871   -2.967299
     80          1           0        6.411703    3.792632   -2.947002
     81          8           0        4.588089    5.496690   -2.167600
     82          6           0        4.340291    4.343370   -2.544867
     83          7           0        5.989076   -1.367517   -3.353449
     84          1           0        5.583648   -1.822164   -4.157174
     85          6           0        7.377785   -1.668995   -3.105975
     86          1           0        7.827787   -0.774932   -2.665055
     87          6           0        8.039012   -1.926684   -4.462571
     88          6           0        7.594526   -2.812106   -2.104096
     89          1           0        7.237394   -2.473247   -1.129043
     90          1           0        8.659902   -3.041580   -2.008165
     91          8           0        7.402472   -2.169721   -5.474642
     92          6           0        6.848074   -4.077103   -2.440310
     93          8           0        5.925921   -4.188025   -3.215263
     94          8           0        7.326320   -5.118970   -1.724955
     95          7           0        9.394046   -1.816804   -4.459986
     96          1           0        9.883981   -1.642089   -3.597518
     97          6           0       10.155569   -2.098125   -5.653603
     98          1           0        9.462794   -2.587662   -6.347743
     99          6           0       11.281430   -3.088048   -5.425626
    100          6           0       10.669169   -0.815041   -6.319246
    101          1           0       11.293760   -1.095830   -7.170502
    102          1           0       11.308146   -0.265053   -5.622134
    103          8           0       12.153533   -3.305364   -6.227840
    104          6           0        9.510486    0.067314   -6.771658
    105          1           0        8.856188   -0.512219   -7.432526
    106          1           0        8.903441    0.347587   -5.909629
    107          6           0        9.961653    1.334950   -7.482274
    108          1           0       10.606281    1.918595   -6.816470
    109          1           0       10.556602    1.083947   -8.366585
    110          6           0        8.775138    2.185429   -7.894210
    111          1           0        8.178020    2.434189   -7.013296
    112          1           0        8.133011    1.620883   -8.574615
    113          7           0        9.190554    3.454905   -8.563618
    114          1           0        8.388742    4.029293   -8.835764
    115          1           0        9.735252    3.263940   -9.407374
    116          1           0        9.776687    4.018647   -7.944091
    117          8           0       11.183820   -3.736522   -4.245324
    118          1           0       11.923854   -4.362951   -4.216086
    119          1           0        6.788720   -5.886542   -1.972161
 ---------------------------------------------------------------------

 SCF Done:  E(RB3LYP) =  -2933.68968493     A.U. after    3 cycles

 Alpha  occ. eigenvalues --  -19.27439 -19.24633 -19.23729 -19.21524 -19.20951
 Alpha  occ. eigenvalues --  -19.19310 -19.19173 -19.19049 -19.15910 -19.15406
 Alpha  occ. eigenvalues --  -19.14986 -19.04041 -14.62133 -14.61507 -14.47389
 Alpha  occ. eigenvalues --  -14.46620 -14.44159 -14.42640 -14.40006 -14.38782
 Alpha  occ. eigenvalues --  -14.38213 -14.38178 -10.40953 -10.39800 -10.39380
 Alpha  occ. eigenvalues --  -10.38871 -10.37499 -10.36284 -10.35937 -10.33056
 Alpha  occ. eigenvalues --  -10.32490 -10.32313 -10.32235 -10.31987 -10.31632
 Alpha  occ. eigenvalues --  -10.31138 -10.31090 -10.30788 -10.30407 -10.29962
 Alpha  occ. eigenvalues --  -10.29000 -10.28061 -10.28042 -10.27603 -10.26151
 Alpha  occ. eigenvalues --  -10.26114 -10.25773 -10.23877 -10.22993 -10.22322
 Alpha  occ. eigenvalues --  -10.21285 -10.21082 -10.20920 -10.19964 -10.19484
 Alpha  occ. eigenvalues --  -10.16849 -10.16566 -10.16249 -10.14663 -10.14314
 Alpha  occ. eigenvalues --   -1.18591  -1.17437  -1.16939  -1.15909  -1.14588
 Alpha  occ. eigenvalues --   -1.11859  -1.11441  -1.09512  -1.09163  -1.08916
 Alpha  occ. eigenvalues --   -1.08519  -1.07768  -1.06915  -1.06789  -1.03415
 Alpha  occ. eigenvalues --   -1.01255  -0.99192  -0.97613  -0.96019  -0.95412
 Alpha  occ. eigenvalues --   -0.94891  -0.94525  -0.93827  -0.92810  -0.88280
 Alpha  occ. eigenvalues --   -0.86969  -0.85646  -0.85256  -0.83619  -0.82839
 Alpha  occ. eigenvalues --   -0.82367  -0.81193  -0.79557  -0.79149  -0.77922
 Alpha  occ. eigenvalues --   -0.77474  -0.76703  -0.75298  -0.75210  -0.75066
 Alpha  occ. eigenvalues --   -0.74116  -0.73601  -0.72365  -0.71919  -0.71196
 Alpha  occ. eigenvalues --   -0.70796  -0.70020  -0.69959  -0.69029  -0.68557
 Alpha  occ. eigenvalues --   -0.68341  -0.67555  -0.67505  -0.66710  -0.66467
 Alpha  occ. eigenvalues --   -0.65722  -0.64963  -0.64701  -0.64380  -0.62881
 Alpha  occ. eigenvalues --   -0.62295  -0.61923  -0.61726  -0.61392  -0.60933
 Alpha  occ. eigenvalues --   -0.60523  -0.60157  -0.59967  -0.59103  -0.58136
 Alpha  occ. eigenvalues --   -0.57513  -0.57361  -0.56318  -0.56261  -0.55821
 Alpha  occ. eigenvalues --   -0.55341  -0.55018  -0.54721  -0.54510  -0.53954
 Alpha  occ. eigenvalues --   -0.53638  -0.53356  -0.53133  -0.52797  -0.52282
 Alpha  occ. eigenvalues --   -0.52165  -0.51695  -0.51547  -0.51274  -0.51041
 Alpha  occ. eigenvalues --   -0.50953  -0.50591  -0.50288  -0.50174  -0.49708
 Alpha  occ. eigenvalues --   -0.49526  -0.49296  -0.48633  -0.48343  -0.48295
 Alpha  occ. eigenvalues --   -0.48055  -0.47778  -0.47466  -0.47082  -0.46999
 Alpha  occ. eigenvalues --   -0.46863  -0.46681  -0.46371  -0.46189  -0.45705
 Alpha  occ. eigenvalues --   -0.45598  -0.45350  -0.44894  -0.44850  -0.44502
 Alpha  occ. eigenvalues --   -0.44232  -0.43879  -0.43764  -0.43708  -0.43531
 Alpha  occ. eigenvalues --   -0.43323  -0.42765  -0.42522  -0.42273  -0.42185
 Alpha  occ. eigenvalues --   -0.41955  -0.41394  -0.41205  -0.40725  -0.40160
 Alpha  occ. eigenvalues --   -0.39823  -0.39604  -0.39516  -0.39439  -0.38584
 Alpha  occ. eigenvalues --   -0.38332  -0.37995  -0.37640  -0.37288  -0.37073
 Alpha  occ. eigenvalues --   -0.36711  -0.36654  -0.36325  -0.35450  -0.35328
 Alpha  occ. eigenvalues --   -0.34662  -0.34480  -0.33768  -0.33505  -0.33158
 Alpha  occ. eigenvalues --   -0.32825  -0.32500  -0.32404  -0.32265  -0.31890
 Alpha  occ. eigenvalues --   -0.30652  -0.30212  -0.29719  -0.29405  -0.29197
 Alpha  occ. eigenvalues --   -0.28642  -0.28009  -0.27258  -0.22896  -0.17612
 Alpha  occ. eigenvalues --   -0.13993
 Alpha virt. eigenvalues --   -0.13256  -0.12753  -0.10312  -0.06836  -0.06735
 Alpha virt. eigenvalues --   -0.06252  -0.06006  -0.05462  -0.05369  -0.05334
 Alpha virt. eigenvalues --   -0.05052  -0.04106  -0.03349  -0.01865  -0.01693

 Mulliken charges:
               1
     1  N   -0.686564
     2  H    0.393271
     3  H    0.417032
     4  H    0.387871
     5  C   -0.131863
     6  H    0.207975
     7  C    0.594635
     8  C   -0.369598
     9  H    0.187064
    10  H    0.183188
    11  O   -0.529416
    12  C    0.302248
    13  C   -0.067019
    14  H    0.146403
    15  N   -0.603166
    16  H    0.351864
    17  C    0.224977
    18  H    0.183095
    19  N   -0.411100
    20  N   -0.604768
    21  H    0.358475
    22  C   -0.106970
    23  H    0.187990
    24  C    0.642847
    25  C    0.138967
    26  H    0.136299
    27  O   -0.529293
    28  C   -0.496968
    29  H    0.211289
    30  H    0.179498
    31  H    0.148765
    32  O   -0.611729
    33  H    0.379909
    34  N   -0.605119
    35  H    0.343401
    36  C   -0.089971
    37  H    0.195540
    38  C    0.630556
    39  C   -0.275735
    40  H    0.153233
    41  H    0.131321
    42  O   -0.534703
    43  C   -0.105838
    44  H    0.165328
    45  C   -0.455231
    46  H    0.135336
    47  H    0.151136
    48  H    0.166714
    49  C   -0.444130
    50  H    0.132145
    51  H    0.155559
    52  H    0.155658
    53  N   -0.614789
    54  H    0.369935
    55  C   -0.051462
    56  H    0.200327
    57  C    0.641083
    58  C   -0.444842
    59  H    0.153523
    60  H    0.153463
    61  H    0.178674
    62  O   -0.557051
    63  N   -0.622279
    64  H    0.362720
    65  C   -0.025153
    66  H    0.169122
    67  C    0.637748
    68  C   -0.385961
    69  H    0.120922
    70  H    0.171198
    71  O   -0.543977
    72  C    0.140146
    73  C   -0.201817
    74  H    0.096132
    75  C   -0.173684
    76  H    0.057502
    77  C   -0.220805
    78  H    0.089029
    79  C   -0.221240
    80  H    0.065112
    81  O   -0.614642
    82  C    0.417256
    83  N   -0.608334
    84  H    0.362685
    85  C   -0.048953
    86  H    0.184977
    87  C    0.622695
    88  C   -0.377085
    89  H    0.235976
    90  H    0.174149
    91  O   -0.520954
    92  C    0.586818
    93  O   -0.457438
    94  O   -0.562729
    95  N   -0.610383
    96  H    0.342507
    97  C   -0.069250
    98  H    0.227212
    99  C    0.590236
   100  C   -0.264898
   101  H    0.179618
   102  H    0.147211
   103  O   -0.450430
   104  C   -0.276300
   105  H    0.173950
   106  H    0.173722
   107  C   -0.289373
   108  H    0.164022
   109  H    0.163430
   110  C   -0.221997
   111  H    0.244538
   112  H    0.226922
   113  N   -0.685390
   114  H    0.407856
   115  H    0.393666
   116  H    0.399953
   117  O   -0.566643
   118  H    0.426010
   119  H    0.415406
 Sum of Mulliken charges =   1.00000

 Dipole moment (field-independent basis, Debye):
    X=              2.0242    Y=             -1.1913    Z=            -11.2285  Tot=             11.4715
 Quadrupole moment (field-independent basis, Debye-Ang):
   XX=            259.8990   YY=           -361.9486   ZZ=            -23.8134
   XY=             34.7493   XZ=           -422.9537   YZ=           -101.2177

 Normal termination of Gaussian 16 at Sun Jun 19 13:58:26 2022.
