 Gaussian 16, Revision C.01,
 Gaussian 16:  ES64L-G16RevC.01  3-Jul-2019

 ----------------------------------------------------------------------
 # B3LYP/6-31G* empiricaldispersion=gd3 guess=read geom=check nosymm in
 tegral(ultrafinegrid)
 ----------------------------------------------------------------------

 ------------------------------------------------------
 Candidate Structure: Conf:123 Charge calc in gas phase
 ------------------------------------------------------
 Structure from the checkpoint file:  "conf-123.chk"
 Charge =  1 Multiplicity = 1

                          Input orientation:
 ---------------------------------------------------------------------
 Center     Atomic      Atomic             Coordinates (Angstroms)
 Number     Number       Type             X           Y           Z
 ---------------------------------------------------------------------
      1          7           0       -4.578283    3.465906    3.411295
      2          1           0       -5.246968    4.072245    3.891343
      3          1           0       -3.745008    3.229879    4.022651
      4          1           0       -4.205230    3.960584    2.588661
      5          6           0       -5.120254    2.093939    3.051008
      6          1           0       -5.982136    1.910097    3.699316
      7          6           0       -3.958657    1.152890    3.488221
      8          6           0       -5.544166    2.085879    1.555151
      9          1           0       -4.717138    2.490745    0.965410
     10          1           0       -6.382937    2.788286    1.452321
     11          8           0       -3.007857    1.669859    4.105380
     12          6           0       -5.875854    0.757471    0.963226
     13          6           0       -5.149657   -0.035079    0.100706
     14          1           0       -4.171919    0.170652   -0.313196
     15          7           0       -7.032883    0.028509    1.218179
     16          1           0       -7.840586    0.334237    1.743763
     17          6           0       -6.943943   -1.130891    0.495848
     18          1           0       -7.720110   -1.883648    0.515124
     19          7           0       -5.818117   -1.200037   -0.180423
     20          7           0       -4.061293   -0.134317    3.191394
     21          1           0       -4.820345   -0.482289    2.607268
     22          6           0       -2.949057   -1.091964    3.289548
     23          1           0       -2.410165   -0.913540    4.224449
     24          6           0       -2.029485   -0.838163    2.069779
     25          6           0       -3.560537   -2.511864    3.248288
     26          1           0       -2.745345   -3.213131    3.030109
     27          8           0       -2.079706   -1.550239    1.063007
     28          6           0       -4.238984   -2.884715    4.558671
     29          1           0       -3.519166   -2.899678    5.383584
     30          1           0       -4.689304   -3.876155    4.466029
     31          1           0       -5.033623   -2.170295    4.800513
     32          8           0       -4.551333   -2.558131    2.226448
     33          1           0       -4.098731   -2.515689    1.363426
     34          7           0       -1.254692    0.260704    2.176012
     35          1           0       -1.267779    0.786221    3.042486
     36          6           0       -0.506010    0.833079    1.050634
     37          1           0       -1.000014    0.481754    0.141352
     38          6           0        0.920578    0.259147    1.074028
     39          6           0       -0.541611    2.360646    1.118105
     40          1           0        0.149772    2.755106    0.371550
     41          1           0       -0.146018    2.675576    2.092590
     42          8           0        1.857202    0.841983    1.620226
     43          6           0       -1.953827    2.939601    0.892158
     44          1           0       -2.617888    2.415828    1.598543
     45          6           0       -1.981911    4.441037    1.217298
     46          1           0       -1.367598    4.987410    0.491410
     47          1           0       -1.613459    4.651789    2.229992
     48          1           0       -3.002529    4.853006    1.116786
     49          6           0       -2.469883    2.713712   -0.538764
     50          1           0       -1.863654    3.296931   -1.242390
     51          1           0       -3.506556    3.062478   -0.646057
     52          1           0       -2.452007    1.657610   -0.831045
     53          7           0        1.028913   -0.954198    0.477395
     54          1           0        0.183174   -1.398775    0.136391
     55          6           0        2.256445   -1.758700    0.524582
     56          1           0        2.707013   -1.603079    1.512372
     57          6           0        3.248913   -1.245538   -0.544523
     58          6           0        1.927296   -3.230813    0.309355
     59          1           0        2.833224   -3.835585    0.398059
     60          1           0        1.525198   -3.390250   -0.695245
     61          1           0        1.201624   -3.571542    1.054727
     62          8           0        3.440892   -1.847826   -1.604398
     63          7           0        3.872058   -0.090028   -0.217990
     64          1           0        3.522420    0.393346    0.609057
     65          6           0        4.617462    0.712744   -1.188304
     66          1           0        4.146207    0.554414   -2.169614
     67          6           0        6.078845    0.255140   -1.412385
     68          6           0        4.532033    2.186723   -0.800873
     69          1           0        4.797430    2.284345    0.261458
     70          1           0        5.341881    2.704526   -1.327297
     71          8           0        7.016256    1.054384   -1.421336
     72          6           0        3.189379    2.843254   -1.071955
     73          6           0        2.131058    2.231187   -1.764540
     74          1           0        2.217465    1.196177   -2.089552
     75          6           0        2.981274    4.175391   -0.656120
     76          1           0        3.777413    4.676580   -0.104457
     77          6           0        0.942373    2.908832   -2.063560
     78          1           0        0.134450    2.389423   -2.573918
     79          6           0        1.805828    4.871393   -0.917599
     80          1           0        1.664145    5.880862   -0.538160
     81          8           0       -0.440765    4.832493   -1.728421
     82          6           0        0.675085    4.254789   -1.588817
     83          7           0        6.209874   -1.062848   -1.706307
     84          1           0        5.348516   -1.584372   -1.878519
     85          6           0        7.448679   -1.584600   -2.286623
     86          1           0        8.289962   -1.109198   -1.779111
     87          6           0        7.440369   -1.207556   -3.784398
     88          6           0        7.508849   -3.097724   -2.118475
     89          1           0        6.714563   -3.576434   -2.701130
     90          1           0        7.367183   -3.376451   -1.068330
     91          8           0        6.936863   -1.941341   -4.630308
     92          6           0        8.837315   -3.637430   -2.598642
     93          8           0        9.761524   -2.962764   -2.996983
     94          8           0        8.880002   -4.985742   -2.521868
     95          7           0        7.927410    0.029229   -4.060960
     96          1           0        8.258944    0.623386   -3.308997
     97          6           0        7.780672    0.603159   -5.382148
     98          1           0        7.934710   -0.189232   -6.119477
     99          6           0        8.834909    1.679875   -5.568707
    100          6           0        6.364515    1.199760   -5.604690
    101          1           0        5.655979    0.389084   -5.399028
    102          1           0        6.255033    1.470957   -6.661370
    103          8           0        9.433201    2.230577   -4.671660
    104          6           0        6.075190    2.414289   -4.712031
    105          1           0        6.360240    2.189133   -3.676740
    106          1           0        6.700951    3.260066   -5.028587
    107          6           0        4.597438    2.833323   -4.745044
    108          1           0        4.258317    2.961717   -5.782197
    109          1           0        3.982934    2.039260   -4.299514
    110          6           0        4.388485    4.125770   -3.962001
    111          1           0        4.870108    4.980379   -4.445275
    112          1           0        4.775141    4.035067   -2.947183
    113          7           0        2.927329    4.458306   -3.803625
    114          1           0        2.759659    5.133475   -3.035486
    115          1           0        2.364529    3.636351   -3.473965
    116          1           0        2.500026    4.812331   -4.663199
    117          8           0        8.973523    2.007306   -6.872175
    118          1           0        9.640007    2.719418   -6.914532
    119          1           0        9.758335   -5.255749   -2.850815
 ---------------------------------------------------------------------

 SCF Done:  E(RB3LYP) =  -2933.83754692     A.U. after    3 cycles

 Alpha  occ. eigenvalues --  -19.27836 -19.25629 -19.23877 -19.23772 -19.22858
 Alpha  occ. eigenvalues --  -19.20092 -19.19977 -19.19065 -19.18225 -19.17835
 Alpha  occ. eigenvalues --  -19.15924 -19.11827 -14.60337 -14.53691 -14.50423
 Alpha  occ. eigenvalues --  -14.50286 -14.46583 -14.44316 -14.42551 -14.41477
 Alpha  occ. eigenvalues --  -14.41205 -14.40339 -10.44573 -10.42041 -10.39703
 Alpha  occ. eigenvalues --  -10.37883 -10.36954 -10.36508 -10.35678 -10.35560
 Alpha  occ. eigenvalues --  -10.34857 -10.34638 -10.34591 -10.34013 -10.33976
 Alpha  occ. eigenvalues --  -10.33723 -10.33093 -10.31994 -10.30991 -10.30663
 Alpha  occ. eigenvalues --  -10.29975 -10.29248 -10.28536 -10.28410 -10.27976
 Alpha  occ. eigenvalues --  -10.27800 -10.26721 -10.26147 -10.26136 -10.26027
 Alpha  occ. eigenvalues --  -10.25468 -10.25274 -10.25109 -10.24978 -10.24962
 Alpha  occ. eigenvalues --  -10.24618 -10.24259 -10.24016 -10.22630 -10.22552
 Alpha  occ. eigenvalues --   -1.20165  -1.16516  -1.14813  -1.14709  -1.14214
 Alpha  occ. eigenvalues --   -1.12252  -1.11932  -1.11432  -1.10666  -1.09468
 Alpha  occ. eigenvalues --   -1.08653  -1.07982  -1.07491  -1.06815  -1.05767
 Alpha  occ. eigenvalues --   -1.03007  -1.01391  -1.00607  -0.99395  -0.97961
 Alpha  occ. eigenvalues --   -0.97926  -0.97286  -0.94602  -0.90007  -0.89703
 Alpha  occ. eigenvalues --   -0.89251  -0.88797  -0.86383  -0.86023  -0.84858
 Alpha  occ. eigenvalues --   -0.84156  -0.83269  -0.82687  -0.81354  -0.80143
 Alpha  occ. eigenvalues --   -0.79590  -0.78829  -0.77326  -0.76213  -0.75320
 Alpha  occ. eigenvalues --   -0.74578  -0.74011  -0.73732  -0.72770  -0.72626
 Alpha  occ. eigenvalues --   -0.71969  -0.71732  -0.70496  -0.69850  -0.69593
 Alpha  occ. eigenvalues --   -0.69200  -0.68732  -0.67913  -0.67295  -0.66998
 Alpha  occ. eigenvalues --   -0.66320  -0.65532  -0.65027  -0.64872  -0.64183
 Alpha  occ. eigenvalues --   -0.64086  -0.63963  -0.63769  -0.63147  -0.62312
 Alpha  occ. eigenvalues --   -0.62296  -0.62041  -0.61512  -0.60276  -0.59654
 Alpha  occ. eigenvalues --   -0.59386  -0.58771  -0.58577  -0.57989  -0.57325
 Alpha  occ. eigenvalues --   -0.56944  -0.56777  -0.56661  -0.55781  -0.55262
 Alpha  occ. eigenvalues --   -0.55133  -0.54727  -0.54638  -0.54451  -0.54113
 Alpha  occ. eigenvalues --   -0.53960  -0.53773  -0.53310  -0.53066  -0.52413
 Alpha  occ. eigenvalues --   -0.52259  -0.52163  -0.52031  -0.51599  -0.51463
 Alpha  occ. eigenvalues --   -0.51238  -0.50987  -0.50766  -0.50674  -0.50316
 Alpha  occ. eigenvalues --   -0.50011  -0.49892  -0.49711  -0.49365  -0.48916
 Alpha  occ. eigenvalues --   -0.48381  -0.48290  -0.47992  -0.47748  -0.47289
 Alpha  occ. eigenvalues --   -0.47025  -0.46897  -0.46709  -0.46661  -0.46447
 Alpha  occ. eigenvalues --   -0.46308  -0.45921  -0.45838  -0.45577  -0.45417
 Alpha  occ. eigenvalues --   -0.45202  -0.44997  -0.44738  -0.44599  -0.43852
 Alpha  occ. eigenvalues --   -0.43742  -0.43602  -0.43203  -0.43146  -0.42721
 Alpha  occ. eigenvalues --   -0.42666  -0.42582  -0.42369  -0.42024  -0.41779
 Alpha  occ. eigenvalues --   -0.41421  -0.41271  -0.41110  -0.40765  -0.40565
 Alpha  occ. eigenvalues --   -0.40162  -0.40099  -0.39065  -0.39005  -0.38851
 Alpha  occ. eigenvalues --   -0.37723  -0.37405  -0.37195  -0.36806  -0.35976
 Alpha  occ. eigenvalues --   -0.35862  -0.35636  -0.35058  -0.34216  -0.33675
 Alpha  occ. eigenvalues --   -0.33643  -0.33069  -0.32897  -0.31962  -0.31668
 Alpha  occ. eigenvalues --   -0.31354  -0.30388  -0.29980  -0.28652  -0.25751
 Alpha  occ. eigenvalues --   -0.23080
 Alpha virt. eigenvalues --   -0.14211  -0.10921  -0.09468  -0.09033  -0.06947
 Alpha virt. eigenvalues --   -0.06586  -0.06186  -0.05771  -0.05383  -0.05010
 Alpha virt. eigenvalues --   -0.04830  -0.04421  -0.03688  -0.03136  -0.02991

 Mulliken charges:
               1
     1  N   -0.768770
     2  H    0.413968
     3  H    0.439079
     4  H    0.428824
     5  C   -0.113260
     6  H    0.220543
     7  C    0.665637
     8  C   -0.390699
     9  H    0.217690
    10  H    0.185373
    11  O   -0.561707
    12  C    0.260232
    13  C   -0.063365
    14  H    0.174008
    15  N   -0.605771
    16  H    0.343060
    17  C    0.233198
    18  H    0.192939
    19  N   -0.404367
    20  N   -0.598137
    21  H    0.401437
    22  C   -0.099776
    23  H    0.193523
    24  C    0.630703
    25  C    0.116915
    26  H    0.164512
    27  O   -0.543321
    28  C   -0.452319
    29  H    0.158683
    30  H    0.187303
    31  H    0.144465
    32  O   -0.642593
    33  H    0.434415
    34  N   -0.599854
    35  H    0.366963
    36  C   -0.084557
    37  H    0.179922
    38  C    0.656307
    39  C   -0.293906
    40  H    0.218232
    41  H    0.148934
    42  O   -0.540570
    43  C   -0.079184
    44  H    0.054295
    45  C   -0.490604
    46  H    0.236934
    47  H    0.130562
    48  H    0.100456
    49  C   -0.506831
    50  H    0.242653
    51  H    0.124229
    52  H    0.142684
    53  N   -0.610299
    54  H    0.360414
    55  C   -0.057354
    56  H    0.179642
    57  C    0.631559
    58  C   -0.470235
    59  H    0.178841
    60  H    0.182630
    61  H    0.152946
    62  O   -0.544669
    63  N   -0.609373
    64  H    0.387269
    65  C   -0.078951
    66  H    0.172177
    67  C    0.634613
    68  C   -0.389649
    69  H    0.168233
    70  H    0.179566
    71  O   -0.538888
    72  C    0.126230
    73  C   -0.218264
    74  H    0.133354
    75  C   -0.184693
    76  H    0.126573
    77  C   -0.337130
    78  H    0.117695
    79  C   -0.292642
    80  H    0.123192
    81  O   -0.640091
    82  C    0.436517
    83  N   -0.632892
    84  H    0.383369
    85  C   -0.042965
    86  H    0.191163
    87  C    0.645191
    88  C   -0.381344
    89  H    0.209666
    90  H    0.186190
    91  O   -0.542384
    92  C    0.605095
    93  O   -0.461442
    94  O   -0.569955
    95  N   -0.611352
    96  H    0.373728
    97  C   -0.036374
    98  H    0.207779
    99  C    0.584979
   100  C   -0.278654
   101  H    0.175882
   102  H    0.159525
   103  O   -0.460680
   104  C   -0.302242
   105  H    0.183841
   106  H    0.151008
   107  C   -0.287210
   108  H    0.154663
   109  H    0.167026
   110  C   -0.185143
   111  H    0.193379
   112  H    0.218381
   113  N   -0.743269
   114  H    0.397729
   115  H    0.399024
   116  H    0.394076
   117  O   -0.567830
   118  H    0.418150
   119  H    0.415594
 Sum of Mulliken charges =   1.00000

 Dipole moment (field-independent basis, Debye):
    X=            -16.3249    Y=             12.7663    Z=              7.9128  Tot=             22.1831
 Quadrupole moment (field-independent basis, Debye-Ang):
   XX=           -207.9567   YY=           -284.7443   ZZ=           -260.6188
   XY=            -22.3539   XZ=           -112.1371   YZ=            -22.5165

 Normal termination of Gaussian 16 at Sun Jun 19 13:59:07 2022.
