 Gaussian 16, Revision C.01,
 Gaussian 16:  ES64L-G16RevC.01  3-Jul-2019

 ----------------------------------------------------------------------
 # B3LYP/6-31G* empiricaldispersion=gd3 guess=read geom=check nosymm in
 tegral(ultrafinegrid)
 ----------------------------------------------------------------------

 ------------------------------------------------------
 Candidate Structure: Conf:684 Charge calc in gas phase
 ------------------------------------------------------
 Structure from the checkpoint file:  "conf-684.chk"
 Charge =  1 Multiplicity = 1

                          Input orientation:
 ---------------------------------------------------------------------
 Center     Atomic      Atomic             Coordinates (Angstroms)
 Number     Number       Type             X           Y           Z
 ---------------------------------------------------------------------
      1          7           0       -3.333139   -1.009317    6.330661
      2          1           0       -2.768171   -1.744066    6.766222
      3          1           0       -2.736443   -0.146907    6.250599
      4          1           0       -4.189995   -0.856933    6.892301
      5          6           0       -3.682943   -1.315364    4.898382
      6          1           0       -3.705191   -2.399811    4.774128
      7          6           0       -2.544300   -0.645853    4.095952
      8          6           0       -5.059957   -0.678969    4.560958
      9          1           0       -5.316810   -0.973405    3.537390
     10          1           0       -4.940835    0.410629    4.552857
     11          8           0       -1.916232    0.265241    4.657672
     12          6           0       -6.117381   -1.047288    5.546584
     13          6           0       -6.527466   -0.413190    6.705234
     14          1           0       -6.248537    0.576262    7.049776
     15          7           0       -6.809187   -2.246240    5.544680
     16          1           0       -6.810355   -2.938663    4.807233
     17          6           0       -7.604470   -2.258162    6.660346
     18          1           0       -8.271319   -3.080147    6.884215
     19          7           0       -7.448996   -1.173886    7.385126
     20          7           0       -2.392528   -1.069157    2.851032
     21          1           0       -2.973726   -1.800583    2.440295
     22          6           0       -1.343848   -0.622767    1.946385
     23          1           0       -1.213403    0.458991    2.062431
     24          6           0       -1.860636   -0.991368    0.544834
     25          6           0        0.011838   -1.356536    2.274379
     26          1           0       -0.061292   -2.379462    1.896349
     27          8           0       -2.748560   -1.834788    0.425704
     28          6           0        1.217272   -0.666719    1.641601
     29          1           0        1.242904   -0.773209    0.555476
     30          1           0        2.132678   -1.134211    2.015936
     31          1           0        1.225207    0.403158    1.904639
     32          8           0        0.157254   -1.483808    3.683508
     33          1           0        0.294270   -0.594882    4.051487
     34          7           0       -1.281462   -0.357778   -0.502313
     35          1           0       -0.443153    0.173258   -0.298085
     36          6           0       -1.285162   -1.001881   -1.810931
     37          1           0       -2.322504   -1.154759   -2.121106
     38          6           0       -0.560393   -2.364352   -1.683033
     39          6           0       -0.510732   -0.125865   -2.816593
     40          1           0       -0.519954   -0.626774   -3.792690
     41          1           0        0.538980   -0.101974   -2.496397
     42          8           0        0.117429   -2.628584   -0.687843
     43          6           0       -1.029333    1.311806   -2.995934
     44          1           0       -1.027500    1.805970   -2.013583
     45          6           0       -0.062620    2.080510   -3.910004
     46          1           0       -0.025656    1.626849   -4.908904
     47          1           0        0.955587    2.075393   -3.502302
     48          1           0       -0.377333    3.123136   -4.029652
     49          6           0       -2.462058    1.349132   -3.542290
     50          1           0       -2.521928    0.838266   -4.512241
     51          1           0       -2.796512    2.381736   -3.690940
     52          1           0       -3.173441    0.868105   -2.861308
     53          7           0       -0.621418   -3.181598   -2.760079
     54          1           0       -1.106738   -2.854053   -3.586666
     55          6           0        0.376352   -4.245405   -2.970097
     56          1           0        0.622812   -4.624225   -1.974007
     57          6           0        1.656162   -3.625693   -3.601971
     58          6           0       -0.189483   -5.355420   -3.845319
     59          1           0        0.564607   -6.131319   -3.993474
     60          1           0       -0.453747   -4.974750   -4.837504
     61          1           0       -1.075012   -5.794333   -3.376611
     62          8           0        2.106411   -4.023893   -4.670353
     63          7           0        2.181418   -2.585849   -2.901159
     64          1           0        1.819458   -2.352204   -1.982864
     65          6           0        3.240808   -1.735251   -3.414117
     66          1           0        4.123911   -2.345211   -3.635851
     67          6           0        3.568503   -0.709852   -2.324718
     68          6           0        2.814645   -0.996256   -4.722117
     69          1           0        2.445434   -1.772110   -5.399396
     70          1           0        1.973209   -0.336899   -4.482256
     71          8           0        2.718590   -0.322910   -1.510969
     72          6           0        3.930816   -0.216667   -5.377609
     73          6           0        3.867898    1.171587   -5.535100
     74          1           0        2.991204    1.710361   -5.179029
     75          6           0        5.074707   -0.876958   -5.858759
     76          1           0        5.140121   -1.960476   -5.778551
     77          6           0        4.896789    1.882674   -6.156465
     78          1           0        4.817433    2.958843   -6.283517
     79          6           0        6.117700   -0.179898   -6.454789
     80          1           0        7.000350   -0.692962   -6.822813
     81          8           0        7.086451    1.833159   -7.208197
     82          6           0        6.042086    1.212935   -6.614980
     83          7           0        4.830757   -0.237669   -2.351207
     84          1           0        5.439005   -0.453716   -3.139224
     85          6           0        5.251346    0.917392   -1.583329
     86          1           0        4.381584    1.558531   -1.404219
     87          6           0        6.278452    1.666458   -2.451188
     88          6           0        5.865881    0.521147   -0.215938
     89          1           0        6.406091    1.377795    0.202416
     90          1           0        6.562451   -0.307991   -0.351278
     91          8           0        6.809404    1.125868   -3.415470
     92          6           0        4.797076    0.110571    0.772353
     93          8           0        4.604037   -1.003559    1.200500
     94          8           0        4.056332    1.188621    1.141109
     95          7           0        6.535340    2.942545   -2.075796
     96          1           0        6.096041    3.358047   -1.263970
     97          6           0        7.362570    3.805558   -2.901653
     98          1           0        8.111388    3.178026   -3.392295
     99          6           0        8.044463    4.812115   -1.993587
    100          6           0        6.520344    4.532403   -3.989003
    101          1           0        6.094500    5.454402   -3.568673
    102          1           0        5.678391    3.871983   -4.221086
    103          8           0        7.688669    5.069873   -0.863289
    104          6           0        7.285306    4.819518   -5.282818
    105          1           0        8.231470    5.328179   -5.062822
    106          1           0        7.538802    3.859737   -5.747226
    107          6           0        6.460716    5.679614   -6.253170
    108          1           0        5.403899    5.371661   -6.227493
    109          1           0        6.475050    6.725496   -5.920307
    110          6           0        6.950874    5.602571   -7.702602
    111          1           0        8.045737    5.649621   -7.726687
    112          1           0        6.577910    6.464909   -8.275180
    113          7           0        6.544217    4.319372   -8.317347
    114          1           0        7.002946    4.198856   -9.219933
    115          1           0        5.543081    4.338506   -8.513189
    116          1           0        6.852329    2.760217   -7.498294
    117          8           0        9.064090    5.434945   -2.616912
    118          1           0        9.418505    6.098353   -1.994047
    119          1           0        3.364078    0.854857    1.738838
 ---------------------------------------------------------------------

 SCF Done:  E(RB3LYP) =  -2933.86802416     A.U. after    2 cycles

 Alpha  occ. eigenvalues --  -19.26532 -19.26127 -19.25546 -19.23406 -19.21951
 Alpha  occ. eigenvalues --  -19.20866 -19.19908 -19.19865 -19.18765 -19.18627
 Alpha  occ. eigenvalues --  -19.18352 -19.17055 -14.59672 -14.51311 -14.49095
 Alpha  occ. eigenvalues --  -14.45286 -14.44101 -14.42789 -14.42650 -14.42243
 Alpha  occ. eigenvalues --  -14.40988 -14.39966 -10.43199 -10.40920 -10.38867
 Alpha  occ. eigenvalues --  -10.38846 -10.38147 -10.36769 -10.35626 -10.35588
 Alpha  occ. eigenvalues --  -10.35547 -10.35496 -10.35073 -10.34135 -10.33955
 Alpha  occ. eigenvalues --  -10.33107 -10.32232 -10.31799 -10.30814 -10.30099
 Alpha  occ. eigenvalues --  -10.29781 -10.29233 -10.28061 -10.27487 -10.26868
 Alpha  occ. eigenvalues --  -10.26432 -10.26410 -10.25432 -10.24998 -10.24383
 Alpha  occ. eigenvalues --  -10.24276 -10.24170 -10.24145 -10.23813 -10.23463
 Alpha  occ. eigenvalues --  -10.23222 -10.23060 -10.22724 -10.22491 -10.21807
 Alpha  occ. eigenvalues --   -1.18716  -1.17429  -1.16350  -1.14320  -1.13767
 Alpha  occ. eigenvalues --   -1.13164  -1.11770  -1.10949  -1.10886  -1.10046
 Alpha  occ. eigenvalues --   -1.08765  -1.08485  -1.07446  -1.07167  -1.05686
 Alpha  occ. eigenvalues --   -1.02154  -1.00374  -0.99547  -0.99159  -0.99031
 Alpha  occ. eigenvalues --   -0.97640  -0.95741  -0.94516  -0.89525  -0.89101
 Alpha  occ. eigenvalues --   -0.88245  -0.87074  -0.86161  -0.85603  -0.84473
 Alpha  occ. eigenvalues --   -0.82813  -0.81836  -0.81578  -0.81045  -0.79186
 Alpha  occ. eigenvalues --   -0.78390  -0.77907  -0.76248  -0.75243  -0.74941
 Alpha  occ. eigenvalues --   -0.73987  -0.73595  -0.73279  -0.73221  -0.72426
 Alpha  occ. eigenvalues --   -0.71614  -0.70788  -0.70564  -0.69929  -0.69258
 Alpha  occ. eigenvalues --   -0.68523  -0.67520  -0.66886  -0.66709  -0.66452
 Alpha  occ. eigenvalues --   -0.65669  -0.65394  -0.64897  -0.64669  -0.64244
 Alpha  occ. eigenvalues --   -0.63781  -0.63356  -0.63204  -0.62361  -0.61454
 Alpha  occ. eigenvalues --   -0.60238  -0.59758  -0.58899  -0.58611  -0.57833
 Alpha  occ. eigenvalues --   -0.57596  -0.57419  -0.56957  -0.56600  -0.56362
 Alpha  occ. eigenvalues --   -0.55830  -0.55657  -0.55429  -0.55038  -0.54765
 Alpha  occ. eigenvalues --   -0.54501  -0.54207  -0.53832  -0.53567  -0.53482
 Alpha  occ. eigenvalues --   -0.53352  -0.53190  -0.53078  -0.53037  -0.52680
 Alpha  occ. eigenvalues --   -0.52528  -0.52062  -0.51961  -0.51756  -0.51491
 Alpha  occ. eigenvalues --   -0.51065  -0.50910  -0.50428  -0.50185  -0.49734
 Alpha  occ. eigenvalues --   -0.49547  -0.49329  -0.49165  -0.49054  -0.48652
 Alpha  occ. eigenvalues --   -0.48109  -0.47883  -0.47790  -0.47439  -0.46952
 Alpha  occ. eigenvalues --   -0.46519  -0.46268  -0.46176  -0.45985  -0.45885
 Alpha  occ. eigenvalues --   -0.45602  -0.45538  -0.45435  -0.45120  -0.44982
 Alpha  occ. eigenvalues --   -0.44539  -0.44417  -0.44211  -0.43806  -0.43382
 Alpha  occ. eigenvalues --   -0.43220  -0.43085  -0.42865  -0.42650  -0.42117
 Alpha  occ. eigenvalues --   -0.42062  -0.41588  -0.41310  -0.40957  -0.40804
 Alpha  occ. eigenvalues --   -0.40187  -0.40018  -0.39951  -0.39826  -0.39621
 Alpha  occ. eigenvalues --   -0.39359  -0.39044  -0.38836  -0.38730  -0.38121
 Alpha  occ. eigenvalues --   -0.37808  -0.37752  -0.37094  -0.36951  -0.35785
 Alpha  occ. eigenvalues --   -0.35678  -0.35176  -0.35087  -0.34822  -0.34700
 Alpha  occ. eigenvalues --   -0.33889  -0.33333  -0.32900  -0.32692  -0.32263
 Alpha  occ. eigenvalues --   -0.31689  -0.31268  -0.30616  -0.29804  -0.28904
 Alpha  occ. eigenvalues --   -0.24719
 Alpha virt. eigenvalues --   -0.12416  -0.10194  -0.09404  -0.07974  -0.06784
 Alpha virt. eigenvalues --   -0.06750  -0.06146  -0.05623  -0.04807  -0.04653
 Alpha virt. eigenvalues --   -0.04362  -0.03780  -0.03520  -0.02717  -0.02622

 Mulliken charges:
               1
     1  N   -0.746956
     2  H    0.420060
     3  H    0.424830
     4  H    0.400552
     5  C   -0.115722
     6  H    0.210242
     7  C    0.688402
     8  C   -0.385948
     9  H    0.208862
    10  H    0.212261
    11  O   -0.563131
    12  C    0.294348
    13  C   -0.099064
    14  H    0.167591
    15  N   -0.602690
    16  H    0.352288
    17  C    0.223176
    18  H    0.197209
    19  N   -0.389147
    20  N   -0.594938
    21  H    0.365594
    22  C   -0.117778
    23  H    0.178758
    24  C    0.648846
    25  C    0.153987
    26  H    0.189760
    27  O   -0.539595
    28  C   -0.543637
    29  H    0.220721
    30  H    0.210192
    31  H    0.112973
    32  O   -0.624857
    33  H    0.397548
    34  N   -0.595079
    35  H    0.350478
    36  C   -0.066921
    37  H    0.184539
    38  C    0.636972
    39  C   -0.333954
    40  H    0.143808
    41  H    0.193409
    42  O   -0.544465
    43  C   -0.068535
    44  H    0.124727
    45  C   -0.455659
    46  H    0.152020
    47  H    0.154347
    48  H    0.151882
    49  C   -0.452655
    50  H    0.145412
    51  H    0.156085
    52  H    0.147034
    53  N   -0.582361
    54  H    0.335922
    55  C   -0.082637
    56  H    0.198856
    57  C    0.619417
    58  C   -0.448659
    59  H    0.185247
    60  H    0.159533
    61  H    0.155287
    62  O   -0.515340
    63  N   -0.656432
    64  H    0.378279
    65  C   -0.008894
    66  H    0.176999
    67  C    0.614636
    68  C   -0.381752
    69  H    0.197172
    70  H    0.145989
    71  O   -0.565247
    72  C    0.153930
    73  C   -0.209415
    74  H    0.117086
    75  C   -0.214638
    76  H    0.139932
    77  C   -0.198770
    78  H    0.114212
    79  C   -0.142087
    80  H    0.142042
    81  O   -0.698308
    82  C    0.366710
    83  N   -0.602306
    84  H    0.380528
    85  C   -0.073088
    86  H    0.191433
    87  C    0.626223
    88  C   -0.332467
    89  H    0.182675
    90  H    0.195135
    91  O   -0.511731
    92  C    0.592875
    93  O   -0.456434
    94  O   -0.580116
    95  N   -0.621462
    96  H    0.348168
    97  C   -0.032286
    98  H    0.214699
    99  C    0.580384
   100  C   -0.282573
   101  H    0.142395
   102  H    0.166766
   103  O   -0.467746
   104  C   -0.286453
   105  H    0.158991
   106  H    0.173717
   107  C   -0.264637
   108  H    0.132518
   109  H    0.146020
   110  C   -0.146815
   111  H    0.162486
   112  H    0.140753
   113  N   -0.765049
   114  H    0.332944
   115  H    0.321936
   116  H    0.475148
   117  O   -0.556900
   118  H    0.421614
   119  H    0.417762
 Sum of Mulliken charges =   1.00000

 Dipole moment (field-independent basis, Debye):
    X=             -9.7617    Y=              3.7476    Z=             10.5329  Tot=             14.8417
 Quadrupole moment (field-independent basis, Debye-Ang):
   XX=           -241.3296   YY=           -289.7985   ZZ=           -196.2187
   XY=             99.3029   XZ=            -98.0959   YZ=            -84.6575

 Normal termination of Gaussian 16 at Sun Jun 19 14:03:47 2022.
