 Gaussian 16, Revision C.01,
 Gaussian 16:  ES64L-G16RevC.01  3-Jul-2019

 ----------------------------------------------------------------------
 # B3LYP/6-31G* empiricaldispersion=gd3 guess=read geom=check nosymm in
 tegral(ultrafinegrid)
 ----------------------------------------------------------------------

 ------------------------------------------------------
 Candidate Structure: Conf:304 Charge calc in gas phase
 ------------------------------------------------------
 Structure from the checkpoint file:  "conf-304.chk"
 Charge =  1 Multiplicity = 1

                          Input orientation:
 ---------------------------------------------------------------------
 Center     Atomic      Atomic             Coordinates (Angstroms)
 Number     Number       Type             X           Y           Z
 ---------------------------------------------------------------------
      1          7           0       -7.690930    3.644205    4.148893
      2          1           0       -7.308870    4.233984    4.890210
      3          1           0       -7.511843    4.136956    3.267600
      4          1           0       -8.694468    3.556034    4.281938
      5          6           0       -7.029305    2.329145    4.151661
      6          1           0       -7.157836    1.858937    5.131688
      7          6           0       -5.536120    2.533402    3.913405
      8          6           0       -7.611400    1.380620    3.083740
      9          1           0       -8.653530    1.167078    3.333466
     10          1           0       -7.067583    0.431189    3.092705
     11          8           0       -5.070830    3.627523    3.657973
     12          6           0       -7.517348    1.953334    1.706005
     13          6           0       -6.631853    1.768363    0.688049
     14          1           0       -5.797355    1.085367    0.707277
     15          7           0       -8.341646    2.958345    1.261845
     16          1           0       -9.152506    3.316831    1.743547
     17          6           0       -7.950169    3.297238    0.010231
     18          1           0       -8.448520    4.067225   -0.554427
     19          7           0       -6.905801    2.604747   -0.377428
     20          7           0       -4.774374    1.400558    4.012272
     21          1           0       -5.270530    0.527193    4.067164
     22          6           0       -3.431788    1.371537    3.475429
     23          1           0       -3.106231    2.403931    3.386940
     24          6           0       -3.408908    0.724470    2.056850
     25          6           0       -2.488302    0.636572    4.453146
     26          1           0       -2.797888   -0.419287    4.444776
     27          8           0       -4.083666   -0.271514    1.750926
     28          6           0       -1.018146    0.779850    4.105283
     29          1           0       -0.745689    0.342867    3.139326
     30          1           0       -0.415438    0.307826    4.882361
     31          1           0       -0.764901    1.846096    4.084649
     32          8           0       -2.620642    1.196909    5.752223
     33          1           0       -3.562626    1.285731    5.928120
     34          7           0       -2.554951    1.364365    1.183753
     35          1           0       -1.942696    2.040873    1.606923
     36          6           0       -1.935712    0.582581    0.118670
     37          1           0       -2.458967   -0.371058    0.065499
     38          6           0       -0.487369    0.231301    0.463821
     39          6           0       -1.991038    1.295106   -1.223294
     40          1           0       -1.654677    0.601725   -1.998562
     41          1           0       -1.247854    2.094390   -1.184994
     42          8           0        0.335573    1.068086    0.923321
     43          6           0       -3.391556    1.791313   -1.588898
     44          1           0       -3.703707    2.525406   -0.840981
     45          6           0       -3.411182    2.460349   -2.960159
     46          1           0       -3.008102    1.771780   -3.709256
     47          1           0       -2.825847    3.381747   -2.983475
     48          1           0       -4.438526    2.707864   -3.247014
     49          6           0       -4.372911    0.626172   -1.549793
     50          1           0       -4.151328   -0.078011   -2.355083
     51          1           0       -5.397481    0.990137   -1.666854
     52          1           0       -4.327085    0.086674   -0.605376
     53          7           0       -0.182485   -1.065364    0.186691
     54          1           0       -0.864443   -1.609355   -0.308950
     55          6           0        1.186183   -1.559855    0.190519
     56          1           0        1.697771   -0.977848    0.964411
     57          6           0        1.821078   -1.290741   -1.190161
     58          6           0        1.198648   -3.037128    0.514842
     59          1           0        2.225372   -3.410602    0.545012
     60          1           0        0.658402   -3.601209   -0.248618
     61          1           0        0.730956   -3.200292    1.486854
     62          8           0        1.843882   -2.122554   -2.081887
     63          7           0        2.310232   -0.035972   -1.343220
     64          1           0        2.116477    0.628160   -0.609468
     65          6           0        2.909997    0.428031   -2.572052
     66          1           0        2.227725    0.187301   -3.393429
     67          6           0        4.254383   -0.268826   -2.812672
     68          6           0        3.161299    1.950184   -2.501052
     69          1           0        3.815019    2.105066   -1.642881
     70          1           0        3.716661    2.250270   -3.394333
     71          8           0        5.069403   -0.436229   -1.922463
     72          6           0        1.921016    2.779293   -2.376058
     73          6           0        1.260950    3.231768   -3.529535
     74          1           0        1.648111    2.962062   -4.505855
     75          6           0        1.398663    3.148738   -1.130949
     76          1           0        1.852522    2.797283   -0.209186
     77          6           0        0.125675    4.008733   -3.468766
     78          1           0       -0.387728    4.338732   -4.362620
     79          6           0        0.292710    3.958243   -1.018773
     80          1           0       -0.137117    4.196757   -0.053894
     81          8           0       -1.425844    5.139513   -2.107513
     82          6           0       -0.412900    4.432179   -2.195919
     83          7           0        4.492187   -0.644273   -4.100342
     84          1           0        3.916347   -0.259172   -4.834339
     85          6           0        5.855463   -0.912403   -4.492623
     86          1           0        6.322862   -1.413162   -3.645155
     87          6           0        6.611706    0.406662   -4.740155
     88          6           0        5.910773   -1.850588   -5.701891
     89          1           0        5.422734   -2.786261   -5.422937
     90          1           0        6.945409   -2.084059   -5.959152
     91          8           0        6.063489    1.489288   -4.859548
     92          6           0        5.198870   -1.331185   -6.921204
     93          8           0        4.278875   -0.543537   -6.917700
     94          8           0        5.683259   -1.883679   -8.048907
     95          7           0        7.955705    0.268973   -4.842269
     96          1           0        8.397327   -0.617347   -4.654956
     97          6           0        8.785607    1.444082   -5.036858
     98          1           0        8.267571    2.108274   -5.732261
     99          6           0       10.105945    1.060499   -5.665260
    100          6           0        9.012768    2.208102   -3.722619
    101          1           0        9.591693    1.590400   -3.034473
    102          1           0        8.031374    2.360130   -3.271532
    103          8           0       10.715890    1.730887   -6.458430
    104          6           0        9.696024    3.551318   -3.930834
    105          1           0       10.682957    3.419702   -4.377913
    106          1           0        9.108107    4.135246   -4.647388
    107          6           0        9.821984    4.335719   -2.636494
    108          1           0        8.834431    4.466240   -2.185593
    109          1           0       10.427093    3.768749   -1.923713
    110          6           0       10.450240    5.696108   -2.840547
    111          1           0        9.840398    6.270331   -3.542118
    112          1           0       11.434226    5.570130   -3.298288
    113          7           0       10.587847    6.452305   -1.570820
    114          1           0       11.016445    7.368117   -1.708746
    115          1           0       11.164031    5.940735   -0.903356
    116          1           0        9.678432    6.601344   -1.134874
    117          8           0       10.568183   -0.120731   -5.197680
    118          1           0       11.418662   -0.277491   -5.626546
    119          1           0        5.164621   -1.521870   -8.780526
 ---------------------------------------------------------------------

 SCF Done:  E(RB3LYP) =  -2933.66875665     A.U. after    3 cycles

 Alpha  occ. eigenvalues --  -19.27680 -19.24782 -19.24638 -19.21747 -19.21053
 Alpha  occ. eigenvalues --  -19.19230 -19.19079 -19.16962 -19.15926 -19.13287
 Alpha  occ. eigenvalues --  -19.13178 -19.03451 -14.62208 -14.61475 -14.49201
 Alpha  occ. eigenvalues --  -14.47791 -14.42314 -14.41927 -14.40794 -14.39588
 Alpha  occ. eigenvalues --  -14.37611 -14.36886 -10.42104 -10.40517 -10.39765
 Alpha  occ. eigenvalues --  -10.38627 -10.37301 -10.36109 -10.34342 -10.33807
 Alpha  occ. eigenvalues --  -10.32950 -10.32695 -10.31728 -10.31420 -10.31371
 Alpha  occ. eigenvalues --  -10.31149 -10.31089 -10.30060 -10.29978 -10.28765
 Alpha  occ. eigenvalues --  -10.27957 -10.27941 -10.27210 -10.26634 -10.26308
 Alpha  occ. eigenvalues --  -10.25812 -10.24011 -10.22948 -10.21209 -10.19193
 Alpha  occ. eigenvalues --  -10.19071 -10.18967 -10.18608 -10.17656 -10.15772
 Alpha  occ. eigenvalues --  -10.15703 -10.15618 -10.15468 -10.13492 -10.13463
 Alpha  occ. eigenvalues --   -1.18998  -1.18910  -1.16763  -1.15959  -1.15892
 Alpha  occ. eigenvalues --   -1.11486  -1.10252  -1.09723  -1.09552  -1.09173
 Alpha  occ. eigenvalues --   -1.06832  -1.06601  -1.05907  -1.05063  -1.04135
 Alpha  occ. eigenvalues --   -0.99333  -0.98325  -0.97024  -0.96593  -0.95341
 Alpha  occ. eigenvalues --   -0.94324  -0.94101  -0.93848  -0.93649  -0.87757
 Alpha  occ. eigenvalues --   -0.86806  -0.85005  -0.84323  -0.83068  -0.81943
 Alpha  occ. eigenvalues --   -0.81736  -0.80797  -0.79920  -0.78435  -0.77590
 Alpha  occ. eigenvalues --   -0.77028  -0.76506  -0.75955  -0.74916  -0.74848
 Alpha  occ. eigenvalues --   -0.74131  -0.73701  -0.71213  -0.71010  -0.70917
 Alpha  occ. eigenvalues --   -0.70356  -0.69920  -0.69082  -0.68749  -0.68317
 Alpha  occ. eigenvalues --   -0.67957  -0.67741  -0.67083  -0.66170  -0.65644
 Alpha  occ. eigenvalues --   -0.65221  -0.64884  -0.64159  -0.63648  -0.62968
 Alpha  occ. eigenvalues --   -0.62731  -0.61521  -0.61006  -0.60790  -0.60339
 Alpha  occ. eigenvalues --   -0.59798  -0.59444  -0.59134  -0.57768  -0.57315
 Alpha  occ. eigenvalues --   -0.56883  -0.56576  -0.56050  -0.55991  -0.55828
 Alpha  occ. eigenvalues --   -0.55520  -0.55190  -0.55039  -0.54454  -0.53855
 Alpha  occ. eigenvalues --   -0.53287  -0.53033  -0.52858  -0.52405  -0.52197
 Alpha  occ. eigenvalues --   -0.52128  -0.51932  -0.51637  -0.51480  -0.51218
 Alpha  occ. eigenvalues --   -0.50960  -0.50597  -0.49991  -0.49723  -0.49640
 Alpha  occ. eigenvalues --   -0.49126  -0.48660  -0.48469  -0.48356  -0.48018
 Alpha  occ. eigenvalues --   -0.47136  -0.46998  -0.46639  -0.46111  -0.45902
 Alpha  occ. eigenvalues --   -0.45831  -0.45768  -0.45182  -0.44648  -0.44426
 Alpha  occ. eigenvalues --   -0.44372  -0.44295  -0.44104  -0.43884  -0.43495
 Alpha  occ. eigenvalues --   -0.43400  -0.43063  -0.42807  -0.42435  -0.42358
 Alpha  occ. eigenvalues --   -0.41725  -0.41517  -0.41175  -0.40902  -0.40582
 Alpha  occ. eigenvalues --   -0.40383  -0.40283  -0.39943  -0.39669  -0.39605
 Alpha  occ. eigenvalues --   -0.39096  -0.38892  -0.38521  -0.38072  -0.37891
 Alpha  occ. eigenvalues --   -0.37821  -0.37097  -0.36910  -0.36780  -0.36480
 Alpha  occ. eigenvalues --   -0.35629  -0.35076  -0.34725  -0.34693  -0.34298
 Alpha  occ. eigenvalues --   -0.33487  -0.33204  -0.32801  -0.32344  -0.32020
 Alpha  occ. eigenvalues --   -0.31877  -0.31808  -0.31668  -0.31326  -0.31152
 Alpha  occ. eigenvalues --   -0.30762  -0.30671  -0.28784  -0.28716  -0.27777
 Alpha  occ. eigenvalues --   -0.26919  -0.26359  -0.25985  -0.21817  -0.17115
 Alpha  occ. eigenvalues --   -0.13530
 Alpha virt. eigenvalues --   -0.12575  -0.12529  -0.11125  -0.07549  -0.07104
 Alpha virt. eigenvalues --   -0.06562  -0.06288  -0.05951  -0.05772  -0.04798
 Alpha virt. eigenvalues --   -0.04302  -0.03180  -0.03141  -0.03003  -0.02756

 Mulliken charges:
               1
     1  N   -0.695420
     2  H    0.419370
     3  H    0.427059
     4  H    0.381346
     5  C   -0.143056
     6  H    0.216678
     7  C    0.645742
     8  C   -0.396806
     9  H    0.178641
    10  H    0.229132
    11  O   -0.485237
    12  C    0.286995
    13  C   -0.054985
    14  H    0.205488
    15  N   -0.629419
    16  H    0.310183
    17  C    0.224980
    18  H    0.187653
    19  N   -0.401611
    20  N   -0.628081
    21  H    0.344985
    22  C   -0.099372
    23  H    0.205326
    24  C    0.609242
    25  C    0.133789
    26  H    0.130130
    27  O   -0.541394
    28  C   -0.474239
    29  H    0.180531
    30  H    0.176712
    31  H    0.165507
    32  O   -0.613256
    33  H    0.386633
    34  N   -0.555200
    35  H    0.356033
    36  C   -0.100214
    37  H    0.171067
    38  C    0.629340
    39  C   -0.283823
    40  H    0.131613
    41  H    0.218836
    42  O   -0.560036
    43  C   -0.057933
    44  H    0.134666
    45  C   -0.470026
    46  H    0.121458
    47  H    0.214791
    48  H    0.126896
    49  C   -0.498468
    50  H    0.128003
    51  H    0.162307
    52  H    0.152426
    53  N   -0.582179
    54  H    0.342485
    55  C   -0.071850
    56  H    0.177122
    57  C    0.630336
    58  C   -0.452463
    59  H    0.170331
    60  H    0.167658
    61  H    0.144608
    62  O   -0.532413
    63  N   -0.611627
    64  H    0.361586
    65  C   -0.025293
    66  H    0.158499
    67  C    0.645025
    68  C   -0.415229
    69  H    0.139011
    70  H    0.165347
    71  O   -0.549205
    72  C    0.153794
    73  C   -0.185487
    74  H    0.088039
    75  C   -0.184989
    76  H    0.095070
    77  C   -0.219449
    78  H    0.094082
    79  C   -0.241829
    80  H    0.072645
    81  O   -0.638575
    82  C    0.433830
    83  N   -0.596468
    84  H    0.369563
    85  C   -0.090471
    86  H    0.189572
    87  C    0.639116
    88  C   -0.362216
    89  H    0.217663
    90  H    0.168927
    91  O   -0.517972
    92  C    0.590172
    93  O   -0.453475
    94  O   -0.559518
    95  N   -0.629124
    96  H    0.350197
    97  C   -0.013014
    98  H    0.206434
    99  C    0.573032
   100  C   -0.284850
   101  H    0.152859
   102  H    0.198883
   103  O   -0.454247
   104  C   -0.282531
   105  H    0.167757
   106  H    0.169317
   107  C   -0.286802
   108  H    0.175401
   109  H    0.159777
   110  C   -0.221152
   111  H    0.225353
   112  H    0.218899
   113  N   -0.655618
   114  H    0.378117
   115  H    0.372772
   116  H    0.379184
   117  O   -0.572117
   118  H    0.423826
   119  H    0.418892
 Sum of Mulliken charges =   1.00000

 Dipole moment (field-independent basis, Debye):
    X=             11.8877    Y=             20.0324    Z=             13.8270  Tot=             27.0887
 Quadrupole moment (field-independent basis, Debye-Ang):
   XX=            375.7402   YY=           -222.9960   ZZ=           -263.3224
   XY=            128.7385   XZ=           -233.6526   YZ=             53.0816

 Normal termination of Gaussian 16 at Sun Jun 19 14:00:39 2022.
