 Gaussian 16, Revision C.01,
 Gaussian 16:  ES64L-G16RevC.01  3-Jul-2019

 ----------------------------------------------------------------------
 # B3LYP/6-31G* empiricaldispersion=gd3 guess=read geom=check nosymm in
 tegral(ultrafinegrid)
 ----------------------------------------------------------------------

 ------------------------------------------------------
 Candidate Structure: Conf:796 Charge calc in gas phase
 ------------------------------------------------------
 Structure from the checkpoint file:  "conf-796.chk"
 Charge =  1 Multiplicity = 1

                          Input orientation:
 ---------------------------------------------------------------------
 Center     Atomic      Atomic             Coordinates (Angstroms)
 Number     Number       Type             X           Y           Z
 ---------------------------------------------------------------------
      1          7           0       -3.311456    5.331295    1.010891
      2          1           0       -3.763904    5.970767    1.668760
      3          1           0       -2.419221    5.005676    1.446698
      4          1           0       -3.046075    5.882213    0.159118
      5          6           0       -4.109822    4.083630    0.771901
      6          1           0       -5.162332    4.304154    0.965987
      7          6           0       -3.539521    3.051707    1.773234
      8          6           0       -3.909669    3.598156   -0.685051
      9          1           0       -4.405181    2.624187   -0.777826
     10          1           0       -2.841151    3.415525   -0.836778
     11          8           0       -2.404121    3.228180    2.226843
     12          6           0       -4.391225    4.564709   -1.712962
     13          6           0       -3.713751    5.464372   -2.505794
     14          1           0       -2.646790    5.621245   -2.550028
     15          7           0       -5.728952    4.767105   -2.024521
     16          1           0       -6.514488    4.222305   -1.695468
     17          6           0       -5.778177    5.744151   -2.982078
     18          1           0       -6.710583    6.081256   -3.414954
     19          7           0       -4.579636    6.191685   -3.286336
     20          7           0       -4.320623    2.003918    2.049251
     21          1           0       -5.229992    1.861825    1.614742
     22          6           0       -3.901139    0.876056    2.887584
     23          1           0       -3.278604    1.262040    3.699611
     24          6           0       -3.113986   -0.108457    1.998264
     25          6           0       -5.190747    0.207392    3.425860
     26          1           0       -4.903793   -0.759688    3.860770
     27          8           0       -3.706592   -0.986974    1.361909
     28          6           0       -5.897865    1.054576    4.472737
     29          1           0       -5.263578    1.197349    5.353726
     30          1           0       -6.820680    0.556186    4.780261
     31          1           0       -6.160941    2.038060    4.068158
     32          8           0       -6.087493    0.017294    2.332751
     33          1           0       -5.636537   -0.626401    1.748457
     34          7           0       -1.785260    0.101121    1.932032
     35          1           0       -1.358149    0.863775    2.447834
     36          6           0       -0.920221   -0.608855    1.003260
     37          1           0       -1.383443   -1.574690    0.787703
     38          6           0        0.467364   -0.773334    1.633253
     39          6           0       -0.706250    0.209983   -0.297914
     40          1           0        0.074770   -0.271844   -0.900823
     41          1           0       -0.306422    1.185082    0.011861
     42          8           0        0.901350    0.057420    2.427961
     43          6           0       -1.948499    0.432374   -1.176046
     44          1           0       -2.724651    0.896992   -0.551022
     45          6           0       -1.587322    1.407463   -2.308521
     46          1           0       -0.847958    0.958029   -2.982802
     47          1           0       -1.151843    2.337688   -1.921626
     48          1           0       -2.467690    1.664355   -2.909278
     49          6           0       -2.514008   -0.877374   -1.740013
     50          1           0       -1.747903   -1.414190   -2.314209
     51          1           0       -3.351278   -0.676405   -2.418277
     52          1           0       -2.885194   -1.529182   -0.944684
     53          7           0        1.209609   -1.810493    1.137451
     54          1           0        0.792877   -2.322484    0.366993
     55          6           0        2.681343   -1.691541    1.032755
     56          1           0        3.059568   -1.426765    2.022950
     57          6           0        2.869535   -0.541371    0.028823
     58          6           0        3.300133   -2.990814    0.538607
     59          1           0        4.386997   -2.878452    0.479685
     60          1           0        2.934164   -3.223913   -0.466563
     61          1           0        3.063046   -3.815648    1.216298
     62          8           0        2.585312   -0.712183   -1.163570
     63          7           0        3.146797    0.668981    0.562035
     64          1           0        3.237083    0.709219    1.568703
     65          6           0        2.680087    1.899922   -0.087932
     66          1           0        1.772532    1.619487   -0.634128
     67          6           0        3.684021    2.431642   -1.135239
     68          6           0        2.347035    2.945130    0.974837
     69          1           0        1.926850    2.426342    1.844969
     70          1           0        3.277258    3.434669    1.286300
     71          8           0        4.285663    3.497091   -0.993149
     72          6           0        1.346710    3.990897    0.532003
     73          6           0        0.922564    4.135927   -0.794047
     74          1           0        1.337749    3.519992   -1.584688
     75          6           0        0.797467    4.848884    1.494605
     76          1           0        1.118941    4.761855    2.529400
     77          6           0       -0.052119    5.070589   -1.141960
     78          1           0       -0.390143    5.138351   -2.170112
     79          6           0       -0.140109    5.820771    1.152833
     80          1           0       -0.521035    6.518102    1.894956
     81          8           0       -1.580589    6.825721   -0.468786
     82          6           0       -0.582120    5.924776   -0.170646
     83          7           0        3.776783    1.642427   -2.225437
     84          1           0        3.316506    0.733406   -2.159118
     85          6           0        4.875426    1.779245   -3.177387
     86          1           0        5.716952    2.238849   -2.644223
     87          6           0        4.495832    2.717549   -4.340992
     88          6           0        5.281145    0.409112   -3.713642
     89          1           0        6.065435    0.522950   -4.467235
     90          1           0        4.445945   -0.060918   -4.246601
     91          8           0        4.527808    2.351081   -5.507863
     92          6           0        5.763000   -0.538741   -2.635247
     93          8           0        5.788920   -0.324514   -1.440958
     94          8           0        6.172830   -1.705961   -3.179650
     95          7           0        4.122060    3.985934   -3.966368
     96          1           0        4.362981    4.259862   -3.015625
     97          6           0        4.130683    5.004941   -4.999935
     98          1           0        3.620794    4.588596   -5.873771
     99          6           0        5.576208    5.294826   -5.430497
    100          6           0        3.427211    6.310348   -4.591562
    101          1           0        3.503709    6.983206   -5.452763
    102          1           0        3.982545    6.792738   -3.775885
    103          8           0        6.565717    4.921537   -4.846264
    104          6           0        1.948214    6.141348   -4.192724
    105          1           0        1.530561    5.244486   -4.669460
    106          1           0        1.879485    5.960351   -3.111765
    107          6           0        1.097843    7.358436   -4.607700
    108          1           0        1.617087    8.292402   -4.347269
    109          1           0        1.003890    7.359450   -5.701131
    110          6           0       -0.302451    7.385060   -3.976577
    111          1           0       -0.738681    6.378165   -3.998650
    112          1           0       -0.982609    8.024993   -4.546099
    113          7           0       -0.312421    7.871333   -2.571498
    114          1           0       -1.330241    7.267911   -1.358672
    115          1           0       -0.315148    8.890999   -2.569473
    116          1           0        0.565477    7.603499   -2.122708
    117          8           0        5.605104    6.050923   -6.551494
    118          1           0        6.545006    6.198921   -6.769132
    119          1           0        6.477826   -2.267981   -2.442771
 ---------------------------------------------------------------------

 SCF Done:  E(RB3LYP) =  -2933.89588156     A.U. after    1 cycles

 Alpha  occ. eigenvalues --  -19.26128 -19.25894 -19.25473 -19.25374 -19.23619
 Alpha  occ. eigenvalues --  -19.22324 -19.21969 -19.21131 -19.20130 -19.19635
 Alpha  occ. eigenvalues --  -19.19210 -19.17707 -14.57167 -14.49914 -14.49719
 Alpha  occ. eigenvalues --  -14.46405 -14.45716 -14.45194 -14.43898 -14.42313
 Alpha  occ. eigenvalues --  -14.41273 -14.41221 -10.43161 -10.39999 -10.39420
 Alpha  occ. eigenvalues --  -10.38705 -10.38348 -10.37708 -10.37489 -10.35812
 Alpha  occ. eigenvalues --  -10.34519 -10.34431 -10.34307 -10.34238 -10.34219
 Alpha  occ. eigenvalues --  -10.33952 -10.33217 -10.33054 -10.32557 -10.31838
 Alpha  occ. eigenvalues --  -10.30531 -10.30420 -10.29884 -10.29802 -10.28973
 Alpha  occ. eigenvalues --  -10.28618 -10.28598 -10.28542 -10.28537 -10.27986
 Alpha  occ. eigenvalues --  -10.27891 -10.27633 -10.26822 -10.26745 -10.26472
 Alpha  occ. eigenvalues --  -10.26388 -10.26354 -10.26292 -10.26124 -10.24883
 Alpha  occ. eigenvalues --   -1.18378  -1.16493  -1.16178  -1.14535  -1.13888
 Alpha  occ. eigenvalues --   -1.13805  -1.12656  -1.12066  -1.11630  -1.11154
 Alpha  occ. eigenvalues --   -1.10805  -1.09547  -1.07506  -1.07256  -1.05860
 Alpha  occ. eigenvalues --   -1.02821  -1.02176  -1.01750  -0.99542  -0.99419
 Alpha  occ. eigenvalues --   -0.98068  -0.97604  -0.94981  -0.93533  -0.90466
 Alpha  occ. eigenvalues --   -0.88570  -0.88252  -0.87721  -0.86377  -0.85511
 Alpha  occ. eigenvalues --   -0.85449  -0.84539  -0.83730  -0.82927  -0.81615
 Alpha  occ. eigenvalues --   -0.81040  -0.78863  -0.77610  -0.76513  -0.76238
 Alpha  occ. eigenvalues --   -0.75273  -0.74358  -0.73130  -0.72436  -0.72252
 Alpha  occ. eigenvalues --   -0.72021  -0.71238  -0.70826  -0.70664  -0.70002
 Alpha  occ. eigenvalues --   -0.69320  -0.68995  -0.68674  -0.67937  -0.67798
 Alpha  occ. eigenvalues --   -0.66790  -0.66416  -0.66204  -0.65557  -0.65066
 Alpha  occ. eigenvalues --   -0.65002  -0.63983  -0.63392  -0.63371  -0.62490
 Alpha  occ. eigenvalues --   -0.61836  -0.61215  -0.60953  -0.60713  -0.59948
 Alpha  occ. eigenvalues --   -0.59161  -0.58774  -0.58284  -0.57675  -0.57176
 Alpha  occ. eigenvalues --   -0.56860  -0.56769  -0.56513  -0.56409  -0.55968
 Alpha  occ. eigenvalues --   -0.55749  -0.55484  -0.55356  -0.55089  -0.54895
 Alpha  occ. eigenvalues --   -0.54430  -0.54142  -0.53841  -0.53732  -0.53322
 Alpha  occ. eigenvalues --   -0.53096  -0.52945  -0.52803  -0.52439  -0.52092
 Alpha  occ. eigenvalues --   -0.51900  -0.51831  -0.51538  -0.51494  -0.51184
 Alpha  occ. eigenvalues --   -0.51061  -0.50957  -0.50776  -0.50376  -0.50289
 Alpha  occ. eigenvalues --   -0.50150  -0.49885  -0.49465  -0.49379  -0.48586
 Alpha  occ. eigenvalues --   -0.47991  -0.47872  -0.47634  -0.47566  -0.47501
 Alpha  occ. eigenvalues --   -0.47407  -0.47358  -0.46682  -0.46663  -0.46421
 Alpha  occ. eigenvalues --   -0.46318  -0.45975  -0.45850  -0.45745  -0.45277
 Alpha  occ. eigenvalues --   -0.45070  -0.44954  -0.44646  -0.44561  -0.44251
 Alpha  occ. eigenvalues --   -0.43913  -0.43649  -0.43336  -0.43022  -0.42969
 Alpha  occ. eigenvalues --   -0.42413  -0.42093  -0.41640  -0.41373  -0.41186
 Alpha  occ. eigenvalues --   -0.40895  -0.40810  -0.40495  -0.40265  -0.40254
 Alpha  occ. eigenvalues --   -0.38448  -0.37886  -0.37675  -0.37414  -0.37245
 Alpha  occ. eigenvalues --   -0.36747  -0.36592  -0.36397  -0.35716  -0.35018
 Alpha  occ. eigenvalues --   -0.34987  -0.34833  -0.34755  -0.34043  -0.33539
 Alpha  occ. eigenvalues --   -0.33467  -0.33072  -0.32109  -0.31914  -0.31738
 Alpha  occ. eigenvalues --   -0.29856
 Alpha virt. eigenvalues --   -0.12425  -0.10765  -0.09254  -0.08968  -0.08722
 Alpha virt. eigenvalues --   -0.08506  -0.07942  -0.06938  -0.06152  -0.04876
 Alpha virt. eigenvalues --   -0.04783  -0.04720  -0.03816  -0.03690  -0.02768

 Mulliken charges:
               1
     1  N   -0.791485
     2  H    0.403746
     3  H    0.431148
     4  H    0.449313
     5  C   -0.095220
     6  H    0.195078
     7  C    0.650251
     8  C   -0.404470
     9  H    0.194064
    10  H    0.217928
    11  O   -0.532950
    12  C    0.303961
    13  C   -0.062982
    14  H    0.147521
    15  N   -0.612170
    16  H    0.342721
    17  C    0.219404
    18  H    0.187312
    19  N   -0.413532
    20  N   -0.597176
    21  H    0.357491
    22  C   -0.089488
    23  H    0.187200
    24  C    0.651349
    25  C    0.105483
    26  H    0.162894
    27  O   -0.547511
    28  C   -0.449568
    29  H    0.159204
    30  H    0.188814
    31  H    0.139197
    32  O   -0.647525
    33  H    0.427182
    34  N   -0.592556
    35  H    0.364913
    36  C   -0.084901
    37  H    0.191485
    38  C    0.617600
    39  C   -0.287032
    40  H    0.173063
    41  H    0.149315
    42  O   -0.532641
    43  C   -0.077275
    44  H    0.110534
    45  C   -0.468814
    46  H    0.163995
    47  H    0.139462
    48  H    0.148565
    49  C   -0.464974
    50  H    0.146831
    51  H    0.147196
    52  H    0.181236
    53  N   -0.576226
    54  H    0.343921
    55  C   -0.052396
    56  H    0.180183
    57  C    0.639273
    58  C   -0.472550
    59  H    0.181612
    60  H    0.175260
    61  H    0.175065
    62  O   -0.564942
    63  N   -0.574614
    64  H    0.356029
    65  C   -0.082847
    66  H    0.170770
    67  C    0.654320
    68  C   -0.396422
    69  H    0.180889
    70  H    0.204316
    71  O   -0.540766
    72  C    0.170502
    73  C   -0.189142
    74  H    0.161373
    75  C   -0.160926
    76  H    0.150393
    77  C   -0.208346
    78  H    0.150925
    79  C   -0.208163
    80  H    0.143413
    81  O   -0.739192
    82  C    0.299820
    83  N   -0.617920
    84  H    0.386671
    85  C   -0.069869
    86  H    0.206084
    87  C    0.642398
    88  C   -0.391388
    89  H    0.220891
    90  H    0.201708
    91  O   -0.517059
    92  C    0.587909
    93  O   -0.472507
    94  O   -0.559885
    95  N   -0.618286
    96  H    0.362354
    97  C   -0.046155
    98  H    0.198753
    99  C    0.594808
   100  C   -0.300632
   101  H    0.178240
   102  H    0.152846
   103  O   -0.459964
   104  C   -0.272761
   105  H    0.152710
   106  H    0.141565
   107  C   -0.286207
   108  H    0.143924
   109  H    0.162576
   110  C   -0.148385
   111  H    0.155023
   112  H    0.175729
   113  N   -0.786724
   114  H    0.469447
   115  H    0.338694
   116  H    0.338931
   117  O   -0.569584
   118  H    0.419466
   119  H    0.411880
 Sum of Mulliken charges =   1.00000

 Dipole moment (field-independent basis, Debye):
    X=            -12.4382    Y=             18.0763    Z=              2.1105  Tot=             22.0435
 Quadrupole moment (field-independent basis, Debye-Ang):
   XX=           -268.4523   YY=           -207.2908   ZZ=           -327.1164
   XY=            -66.0631   XZ=            -14.7461   YZ=            -17.5115

 Normal termination of Gaussian 16 at Sun Jun 19 14:03:25 2022.
