 Gaussian 16, Revision C.01,
 Gaussian 16:  ES64L-G16RevC.01  3-Jul-2019

 ----------------------------------------------------------------------
 # B3LYP/6-31G* empiricaldispersion=gd3 guess=read geom=check nosymm in
 tegral(ultrafinegrid)
 ----------------------------------------------------------------------

 ------------------------------------------------------
 Candidate Structure: Conf:828 Charge calc in gas phase
 ------------------------------------------------------
 Structure from the checkpoint file:  "conf-828.chk"
 Charge =  1 Multiplicity = 1

                          Input orientation:
 ---------------------------------------------------------------------
 Center     Atomic      Atomic             Coordinates (Angstroms)
 Number     Number       Type             X           Y           Z
 ---------------------------------------------------------------------
      1          7           0       -7.795216    0.782276    5.576661
      2          1           0       -7.453635    0.173569    6.323932
      3          1           0       -7.501296    1.738026    5.789442
      4          1           0       -8.813332    0.742507    5.572288
      5          6           0       -7.230786    0.390099    4.257490
      6          1           0       -7.406912   -0.675320    4.086125
      7          6           0       -5.735266    0.667311    4.295158
      8          6           0       -7.880792    1.206673    3.151959
      9          1           0       -7.618887    2.253820    3.319453
     10          1           0       -8.964544    1.130445    3.264673
     11          8           0       -5.299490    1.811533    4.333508
     12          6           0       -7.503526    0.808076    1.756485
     13          6           0       -6.520366    0.028225    1.221595
     14          1           0       -5.745126   -0.517237    1.740530
     15          7           0       -8.189500    1.286473    0.656562
     16          1           0       -8.986427    1.899424    0.687655
     17          6           0       -7.600691    0.782219   -0.456573
     18          1           0       -7.954577    1.007832   -1.448134
     19          7           0       -6.581719    0.012646   -0.157356
     20          7           0       -4.935735   -0.427757    4.384784
     21          1           0       -5.317045   -1.328442    4.150848
     22          6           0       -3.500253   -0.277678    4.234020
     23          1           0       -3.232547    0.663400    4.717822
     24          6           0       -3.176267   -0.249495    2.743315
     25          6           0       -2.757446   -1.435642    4.915646
     26          1           0       -3.109016   -2.368596    4.471355
     27          8           0       -3.435440   -1.225124    2.033530
     28          6           0       -1.252106   -1.307830    4.749107
     29          1           0       -0.972770   -1.279632    3.692389
     30          1           0       -0.757027   -2.153457    5.228337
     31          1           0       -0.910199   -0.383355    5.225672
     32          8           0       -3.097830   -1.514186    6.290621
     33          1           0       -2.786453   -0.707531    6.708662
     34          7           0       -2.645617    0.913117    2.283539
     35          1           0       -2.315807    1.568239    2.974778
     36          6           0       -1.978613    0.965366    0.991944
     37          1           0       -2.505606    0.263761    0.346939
     38          6           0       -0.523559    0.526067    1.143805
     39          6           0       -2.051520    2.382978    0.428998
     40          1           0       -1.560244    3.046346    1.145709
     41          1           0       -3.104646    2.668266    0.394370
     42          8           0        0.178847    0.887756    2.075655
     43          6           0       -1.438271    2.604528   -0.957351
     44          1           0       -0.378498    2.323202   -0.915156
     45          6           0       -2.122074    1.764159   -2.029828
     46          1           0       -3.166123    2.071237   -2.136401
     47          1           0       -2.105581    0.695690   -1.802171
     48          1           0       -1.622808    1.898271   -2.992802
     49          6           0       -1.531507    4.088534   -1.308709
     50          1           0       -2.578124    4.400718   -1.312070
     51          1           0       -1.100690    4.299650   -2.294196
     52          1           0       -0.995553    4.690465   -0.568019
     53          7           0       -0.062884   -0.265741    0.141172
     54          1           0       -0.581440   -0.330108   -0.717987
     55          6           0        1.353133   -0.477874   -0.041829
     56          1           0        1.884296    0.322905    0.482196
     57          6           0        1.614155   -0.365837   -1.550324
     58          6           0        1.787697   -1.818326    0.538931
     59          1           0        2.866298   -1.955957    0.429281
     60          1           0        1.279562   -2.640807    0.031103
     61          1           0        1.537702   -1.850706    1.601334
     62          8           0        0.700884   -0.252260   -2.354537
     63          7           0        2.923667   -0.384193   -1.899141
     64          1           0        3.616684   -0.742322   -1.256659
     65          6           0        3.345826   -0.415764   -3.279978
     66          1           0        2.461087   -0.572252   -3.898377
     67          6           0        4.346968   -1.561174   -3.409239
     68          6           0        4.030477    0.902415   -3.690642
     69          1           0        4.903631    1.028946   -3.044152
     70          1           0        4.401659    0.798213   -4.713049
     71          8           0        5.007525   -1.933011   -2.453559
     72          6           0        3.139509    2.099988   -3.585571
     73          6           0        2.504901    2.637741   -4.715699
     74          1           0        2.652683    2.169368   -5.682952
     75          6           0        2.928134    2.721742   -2.344314
     76          1           0        3.408123    2.305939   -1.463439
     77          6           0        1.706549    3.754751   -4.640819
     78          1           0        1.227303    4.173036   -5.516231
     79          6           0        2.151042    3.848747   -2.219635
     80          1           0        2.011375    4.337460   -1.265609
     81          8           0        0.809151    5.461723   -3.287997
     82          6           0        1.498930    4.435084   -3.373765
     83          7           0        4.479097   -2.097967   -4.651791
     84          1           0        4.094213   -1.599119   -5.438079
     85          6           0        5.661937   -2.875265   -4.956853
     86          1           0        5.916264   -3.406410   -4.039760
     87          6           0        6.826622   -1.936776   -5.314257
     88          6           0        5.398216   -3.911374   -6.057674
     89          1           0        4.499732   -4.469712   -5.787136
     90          1           0        6.226126   -4.621207   -6.115108
     91          8           0        6.677787   -0.762835   -5.616670
     92          6           0        5.199975   -3.362980   -7.445136
     93          8           0        5.679299   -3.829367   -8.446095
     94          8           0        4.384903   -2.281240   -7.465670
     95          7           0        8.044782   -2.528571   -5.304396
     96          1           0        8.152011   -3.477257   -4.982275
     97          6           0        9.233243   -1.739931   -5.577798
     98          1           0        8.993618   -1.036458   -6.377925
     99          6           0       10.353937   -2.629106   -6.067661
    100          6           0        9.684858   -0.932197   -4.350180
    101          1           0        9.986801   -1.613569   -3.553406
    102          1           0        8.812495   -0.384318   -3.992843
    103          8           0       11.171809   -2.319388   -6.895608
    104          6           0       10.809322    0.043418   -4.664702
    105          1           0       11.695960   -0.486376   -5.017669
    106          1           0       10.489938    0.692401   -5.487329
    107          6           0       11.172487    0.903002   -3.466450
    108          1           0       10.285262    1.431924   -3.107738
    109          1           0       11.516077    0.263120   -2.649045
    110          6           0       12.250390    1.915194   -3.783596
    111          1           0       11.903648    2.566127   -4.589762
    112          1           0       13.135525    1.391123   -4.151703
    113          7           0       12.617440    2.739458   -2.605124
    114          1           0       13.346410    3.420684   -2.819536
    115          1           0       12.958510    2.153773   -1.843633
    116          1           0       11.810106    3.253640   -2.254282
    117          8           0       10.373806   -3.820854   -5.429501
    118          1           0       11.126550   -4.313364   -5.779725
    119          1           0        4.304022   -2.003111   -8.387355
 ---------------------------------------------------------------------

 SCF Done:  E(RB3LYP) =  -2933.66395404     A.U. after    3 cycles

 Alpha  occ. eigenvalues --  -19.28072 -19.25373 -19.22732 -19.22127 -19.21323
 Alpha  occ. eigenvalues --  -19.19433 -19.18180 -19.17526 -19.16255 -19.14572
 Alpha  occ. eigenvalues --  -19.14374 -19.03930 -14.61555 -14.61408 -14.46749
 Alpha  occ. eigenvalues --  -14.46262 -14.43332 -14.41515 -14.40115 -14.38026
 Alpha  occ. eigenvalues --  -14.37898 -14.37384 -10.40189 -10.40045 -10.39302
 Alpha  occ. eigenvalues --  -10.38756 -10.37783 -10.35089 -10.34681 -10.32695
 Alpha  occ. eigenvalues --  -10.32577 -10.32016 -10.31745 -10.31287 -10.31209
 Alpha  occ. eigenvalues --  -10.30840 -10.30674 -10.30462 -10.30050 -10.29678
 Alpha  occ. eigenvalues --  -10.29189 -10.27847 -10.26783 -10.26458 -10.26150
 Alpha  occ. eigenvalues --  -10.25706 -10.25164 -10.23340 -10.21483 -10.20711
 Alpha  occ. eigenvalues --  -10.19875 -10.19265 -10.18966 -10.17647 -10.16084
 Alpha  occ. eigenvalues --  -10.15994 -10.15958 -10.15914 -10.13947 -10.13830
 Alpha  occ. eigenvalues --   -1.19294  -1.17529  -1.16742  -1.16503  -1.14366
 Alpha  occ. eigenvalues --   -1.10723  -1.10092  -1.09807  -1.09067  -1.08709
 Alpha  occ. eigenvalues --   -1.08694  -1.07373  -1.07142  -1.06272  -1.02887
 Alpha  occ. eigenvalues --   -1.00292  -0.97971  -0.97713  -0.95464  -0.95165
 Alpha  occ. eigenvalues --   -0.94337  -0.94305  -0.93924  -0.92893  -0.88359
 Alpha  occ. eigenvalues --   -0.86302  -0.85563  -0.83714  -0.83113  -0.82513
 Alpha  occ. eigenvalues --   -0.82281  -0.80453  -0.79323  -0.78233  -0.77526
 Alpha  occ. eigenvalues --   -0.77283  -0.75829  -0.75320  -0.74895  -0.74670
 Alpha  occ. eigenvalues --   -0.74043  -0.73642  -0.71237  -0.70925  -0.70313
 Alpha  occ. eigenvalues --   -0.70209  -0.69382  -0.68855  -0.68659  -0.68352
 Alpha  occ. eigenvalues --   -0.68171  -0.67404  -0.67173  -0.66458  -0.65846
 Alpha  occ. eigenvalues --   -0.65063  -0.64991  -0.63978  -0.63682  -0.62937
 Alpha  occ. eigenvalues --   -0.62298  -0.61716  -0.61325  -0.61170  -0.60813
 Alpha  occ. eigenvalues --   -0.60294  -0.59782  -0.58877  -0.58190  -0.57358
 Alpha  occ. eigenvalues --   -0.56932  -0.56547  -0.56308  -0.55671  -0.55607
 Alpha  occ. eigenvalues --   -0.55377  -0.54434  -0.54063  -0.53818  -0.53467
 Alpha  occ. eigenvalues --   -0.53113  -0.52858  -0.52489  -0.52156  -0.52006
 Alpha  occ. eigenvalues --   -0.51876  -0.51701  -0.51167  -0.50972  -0.50603
 Alpha  occ. eigenvalues --   -0.50459  -0.49886  -0.49560  -0.49301  -0.49179
 Alpha  occ. eigenvalues --   -0.49053  -0.48810  -0.48549  -0.48315  -0.48124
 Alpha  occ. eigenvalues --   -0.47740  -0.47620  -0.47209  -0.47056  -0.46814
 Alpha  occ. eigenvalues --   -0.46342  -0.46102  -0.45895  -0.45665  -0.45299
 Alpha  occ. eigenvalues --   -0.45074  -0.44921  -0.44507  -0.44171  -0.44098
 Alpha  occ. eigenvalues --   -0.43908  -0.43790  -0.43390  -0.43311  -0.42964
 Alpha  occ. eigenvalues --   -0.42834  -0.42536  -0.41939  -0.41818  -0.41551
 Alpha  occ. eigenvalues --   -0.40843  -0.40213  -0.40085  -0.39833  -0.39393
 Alpha  occ. eigenvalues --   -0.38913  -0.38682  -0.38160  -0.37736  -0.37535
 Alpha  occ. eigenvalues --   -0.37393  -0.37205  -0.36797  -0.36411  -0.36093
 Alpha  occ. eigenvalues --   -0.35688  -0.34543  -0.34523  -0.34123  -0.33465
 Alpha  occ. eigenvalues --   -0.33343  -0.33163  -0.33082  -0.32812  -0.32602
 Alpha  occ. eigenvalues --   -0.32207  -0.32076  -0.31730  -0.31433  -0.30788
 Alpha  occ. eigenvalues --   -0.30768  -0.29935  -0.29883  -0.28989  -0.28471
 Alpha  occ. eigenvalues --   -0.27835  -0.27628  -0.26772  -0.22120  -0.17351
 Alpha  occ. eigenvalues --   -0.13552
 Alpha virt. eigenvalues --   -0.12738  -0.12589  -0.09678  -0.07543  -0.06079
 Alpha virt. eigenvalues --   -0.05984  -0.05794  -0.05425  -0.05024  -0.04508
 Alpha virt. eigenvalues --   -0.04183  -0.03940  -0.03323  -0.01771  -0.01755

 Mulliken charges:
               1
     1  N   -0.683255
     2  H    0.402314
     3  H    0.415146
     4  H    0.383365
     5  C   -0.144205
     6  H    0.208421
     7  C    0.614819
     8  C   -0.356685
     9  H    0.204409
    10  H    0.152899
    11  O   -0.507703
    12  C    0.334291
    13  C   -0.090695
    14  H    0.155880
    15  N   -0.613701
    16  H    0.335232
    17  C    0.225015
    18  H    0.180468
    19  N   -0.414215
    20  N   -0.578048
    21  H    0.347056
    22  C   -0.085063
    23  H    0.162471
    24  C    0.640414
    25  C    0.115196
    26  H    0.162751
    27  O   -0.542777
    28  C   -0.474637
    29  H    0.193244
    30  H    0.174504
    31  H    0.142418
    32  O   -0.619142
    33  H    0.388020
    34  N   -0.572936
    35  H    0.340636
    36  C   -0.085339
    37  H    0.190053
    38  C    0.615070
    39  C   -0.262445
    40  H    0.137785
    41  H    0.139990
    42  O   -0.552140
    43  C   -0.100147
    44  H    0.152177
    45  C   -0.443646
    46  H    0.127641
    47  H    0.126451
    48  H    0.178290
    49  C   -0.446902
    50  H    0.110403
    51  H    0.208148
    52  H    0.136373
    53  N   -0.598303
    54  H    0.369900
    55  C   -0.061066
    56  H    0.190580
    57  C    0.629390
    58  C   -0.444524
    59  H    0.145220
    60  H    0.158935
    61  H    0.167576
    62  O   -0.524615
    63  N   -0.601661
    64  H    0.343042
    65  C   -0.068529
    66  H    0.186679
    67  C    0.624192
    68  C   -0.363272
    69  H    0.124757
    70  H    0.150332
    71  O   -0.547603
    72  C    0.162026
    73  C   -0.181273
    74  H    0.077836
    75  C   -0.175077
    76  H    0.075187
    77  C   -0.208413
    78  H    0.096433
    79  C   -0.212990
    80  H    0.090628
    81  O   -0.620395
    82  C    0.424802
    83  N   -0.597460
    84  H    0.369282
    85  C   -0.104799
    86  H    0.192921
    87  C    0.642520
    88  C   -0.352169
    89  H    0.209543
    90  H    0.176971
    91  O   -0.521661
    92  C    0.578159
    93  O   -0.443448
    94  O   -0.565148
    95  N   -0.626221
    96  H    0.352288
    97  C   -0.014053
    98  H    0.208752
    99  C    0.576695
   100  C   -0.284937
   101  H    0.153713
   102  H    0.194033
   103  O   -0.451424
   104  C   -0.282513
   105  H    0.169410
   106  H    0.169604
   107  C   -0.286431
   108  H    0.173733
   109  H    0.159646
   110  C   -0.220114
   111  H    0.224677
   112  H    0.218544
   113  N   -0.649735
   114  H    0.374051
   115  H    0.367001
   116  H    0.373808
   117  O   -0.573574
   118  H    0.425634
   119  H    0.425239
 Sum of Mulliken charges =   1.00000

 Dipole moment (field-independent basis, Debye):
    X=             16.8760    Y=             -1.5872    Z=             14.8589  Tot=             22.5412
 Quadrupole moment (field-independent basis, Debye-Ang):
   XX=            511.7946   YY=           -370.9624   ZZ=           -240.5076
   XY=             38.8697   XZ=           -265.9396   YZ=             40.8451

 Normal termination of Gaussian 16 at Sun Jun 19 14:04:07 2022.
