 Gaussian 16, Revision C.01,
 Gaussian 16:  ES64L-G16RevC.01  3-Jul-2019

 ----------------------------------------------------------------------
 # B3LYP/6-31G* empiricaldispersion=gd3 guess=read geom=check nosymm in
 tegral(ultrafinegrid)
 ----------------------------------------------------------------------

 ------------------------------------------------------
 Candidate Structure: Conf:107 Charge calc in gas phase
 ------------------------------------------------------
 Structure from the checkpoint file:  "conf-107.chk"
 Charge =  1 Multiplicity = 1

                          Input orientation:
 ---------------------------------------------------------------------
 Center     Atomic      Atomic             Coordinates (Angstroms)
 Number     Number       Type             X           Y           Z
 ---------------------------------------------------------------------
      1          7           0       -8.342696   -0.542710    2.487469
      2          1           0       -8.535981   -1.144896    3.294420
      3          1           0       -8.105752    0.424355    2.845596
      4          1           0       -9.173668   -0.522167    1.887739
      5          6           0       -7.072032   -0.917041    1.748491
      6          1           0       -6.899756   -1.989349    1.862902
      7          6           0       -6.003056   -0.044553    2.450453
      8          6           0       -7.232255   -0.506067    0.256822
      9          1           0       -7.617924    0.520750    0.236786
     10          1           0       -7.995186   -1.153193   -0.198877
     11          8           0       -6.397377    1.009823    2.962243
     12          6           0       -5.960517   -0.514787   -0.521715
     13          6           0       -5.143893    0.524460   -0.906099
     14          1           0       -5.298041    1.581675   -0.731829
     15          7           0       -5.314729   -1.657033   -0.977900
     16          1           0       -5.660824   -2.606553   -0.949241
     17          6           0       -4.175741   -1.247725   -1.614205
     18          1           0       -3.484395   -1.944599   -2.067028
     19          7           0       -4.044425    0.060629   -1.585126
     20          7           0       -4.751998   -0.498008    2.404844
     21          1           0       -4.531113   -1.325783    1.850556
     22          6           0       -3.557793    0.329918    2.630146
     23          1           0       -3.869336    1.375708    2.689556
     24          6           0       -2.654659    0.017632    1.431978
     25          6           0       -2.859443   -0.062545    3.961049
     26          1           0       -2.613059   -1.133974    3.894721
     27          8           0       -2.591073   -1.159404    1.044558
     28          6           0       -1.584725    0.738294    4.191810
     29          1           0       -0.830806    0.517575    3.430298
     30          1           0       -1.176606    0.481130    5.172219
     31          1           0       -1.798424    1.813379    4.188554
     32          8           0       -3.729646    0.200176    5.047878
     33          1           0       -4.441580   -0.457076    5.037493
     34          7           0       -1.969713    1.031065    0.886985
     35          1           0       -2.030310    1.955015    1.295797
     36          6           0       -1.057867    0.837091   -0.250815
     37          1           0       -1.476951   -0.003073   -0.806739
     38          6           0        0.338930    0.437748    0.271179
     39          6           0       -1.043476    2.074215   -1.145569
     40          1           0       -0.667350    2.932030   -0.573040
     41          1           0       -2.086239    2.275496   -1.422434
     42          8           0        1.308796    1.192721    0.203750
     43          6           0       -0.199791    1.925383   -2.430748
     44          1           0        0.852500    1.898110   -2.128086
     45          6           0       -0.519296    0.633921   -3.200674
     46          1           0       -1.594377    0.555680   -3.407236
     47          1           0       -0.214210   -0.262055   -2.644676
     48          1           0        0.017528    0.610681   -4.155079
     49          6           0       -0.407666    3.156040   -3.323514
     50          1           0       -1.445187    3.213224   -3.677859
     51          1           0        0.243831    3.112710   -4.202958
     52          1           0       -0.183112    4.084178   -2.784590
     53          7           0        0.392518   -0.807147    0.808823
     54          1           0       -0.434109   -1.393412    0.750577
     55          6           0        1.654319   -1.438145    1.219913
     56          1           0        2.281101   -0.650239    1.647734
     57          6           0        2.339202   -1.989814   -0.046957
     58          6           0        1.404267   -2.538730    2.241231
     59          1           0        2.358906   -2.978873    2.536090
     60          1           0        0.792405   -3.334652    1.805283
     61          1           0        0.900445   -2.129641    3.123424
     62          8           0        2.317781   -3.189593   -0.330638
     63          7           0        2.907792   -1.049869   -0.839868
     64          1           0        2.836964   -0.075728   -0.561625
     65          6           0        3.421727   -1.368485   -2.176112
     66          1           0        2.823019   -2.208737   -2.546226
     67          6           0        4.883618   -1.857296   -2.072423
     68          6           0        3.273593   -0.168778   -3.124352
     69          1           0        2.311271    0.306004   -2.897589
     70          1           0        4.060952    0.558412   -2.903132
     71          8           0        5.824651   -1.285043   -2.628133
     72          6           0        3.311518   -0.558675   -4.586986
     73          6           0        4.367930   -0.190217   -5.424833
     74          1           0        5.199443    0.374896   -5.013048
     75          6           0        2.258987   -1.298592   -5.149245
     76          1           0        1.417569   -1.591294   -4.522877
     77          6           0        4.376512   -0.536253   -6.777769
     78          1           0        5.189440   -0.205914   -7.418329
     79          6           0        2.266757   -1.675849   -6.487120
     80          1           0        1.458333   -2.261443   -6.914063
     81          8           0        3.287191   -1.708562   -8.611067
     82          6           0        3.334826   -1.306301   -7.321795
     83          7           0        5.027782   -2.958067   -1.297701
     84          1           0        4.185280   -3.395878   -0.925042
     85          6           0        6.328412   -3.521519   -0.943848
     86          1           0        7.043729   -2.692639   -0.906863
     87          6           0        6.763366   -4.514657   -2.044895
     88          6           0        6.240014   -4.202320    0.428448
     89          1           0        7.206359   -4.655659    0.660827
     90          1           0        5.484465   -4.990507    0.407011
     91          8           0        6.752413   -5.729733   -1.895713
     92          6           0        5.868060   -3.177498    1.475672
     93          8           0        4.750147   -2.954245    1.893476
     94          8           0        6.948311   -2.464583    1.871665
     95          7           0        7.085029   -3.887582   -3.204814
     96          1           0        6.980083   -2.876111   -3.237997
     97          6           0        7.187767   -4.610252   -4.457813
     98          1           0        6.362692   -5.328457   -4.532633
     99          6           0        8.455112   -5.448903   -4.589587
    100          6           0        7.099740   -3.592295   -5.612858
    101          1           0        8.032419   -3.012294   -5.649568
    102          1           0        6.302082   -2.882731   -5.355489
    103          8           0        8.557091   -6.376479   -5.362441
    104          6           0        6.786424   -4.190349   -6.987877
    105          1           0        7.549821   -4.920095   -7.278611
    106          1           0        5.837084   -4.739715   -6.922422
    107          6           0        6.653318   -3.063146   -8.019198
    108          1           0        6.066340   -2.257826   -7.567683
    109          1           0        7.644275   -2.639173   -8.240141
    110          6           0        5.957233   -3.455190   -9.320671
    111          1           0        5.028013   -3.989929   -9.092651
    112          1           0        6.590622   -4.130373   -9.916262
    113          7           0        5.571883   -2.228773  -10.056221
    114          1           0        5.175960   -2.469932  -10.964396
    115          1           0        6.397627   -1.660913  -10.245204
    116          1           0        4.168937   -1.637333   -9.076742
    117          8           0        9.471484   -5.011318   -3.816144
    118          1           0       10.222565   -5.606894   -3.999310
    119          1           0        6.628675   -1.796262    2.506663
 ---------------------------------------------------------------------

 SCF Done:  E(RB3LYP) =  -2933.85447565     A.U. after    2 cycles

 Alpha  occ. eigenvalues --  -19.28853 -19.25042 -19.24698 -19.23808 -19.22680
 Alpha  occ. eigenvalues --  -19.19878 -19.19176 -19.18076 -19.17816 -19.17055
 Alpha  occ. eigenvalues --  -19.16726 -19.15240 -14.63214 -14.51718 -14.51619
 Alpha  occ. eigenvalues --  -14.48010 -14.43838 -14.42952 -14.41771 -14.40538
 Alpha  occ. eigenvalues --  -14.38871 -14.38317 -10.45773 -10.43653 -10.40776
 Alpha  occ. eigenvalues --  -10.37650 -10.37300 -10.36766 -10.35878 -10.35760
 Alpha  occ. eigenvalues --  -10.35161 -10.35130 -10.34875 -10.34671 -10.33724
 Alpha  occ. eigenvalues --  -10.32184 -10.32115 -10.31778 -10.29938 -10.28558
 Alpha  occ. eigenvalues --  -10.28555 -10.27595 -10.27227 -10.27191 -10.25884
 Alpha  occ. eigenvalues --  -10.25515 -10.25027 -10.24837 -10.23795 -10.23772
 Alpha  occ. eigenvalues --  -10.23321 -10.23106 -10.22867 -10.22490 -10.22432
 Alpha  occ. eigenvalues --  -10.22177 -10.22109 -10.22035 -10.21654 -10.21466
 Alpha  occ. eigenvalues --   -1.21543  -1.16820  -1.15732  -1.15569  -1.13515
 Alpha  occ. eigenvalues --   -1.13505  -1.12835  -1.11663  -1.09692  -1.08538
 Alpha  occ. eigenvalues --   -1.08060  -1.06924  -1.06531  -1.06495  -1.04393
 Alpha  occ. eigenvalues --   -1.04051  -1.00146  -0.99367  -0.98409  -0.97350
 Alpha  occ. eigenvalues --   -0.96511  -0.95981  -0.94000  -0.90783  -0.88520
 Alpha  occ. eigenvalues --   -0.88330  -0.87537  -0.85119  -0.84458  -0.83825
 Alpha  occ. eigenvalues --   -0.83313  -0.82607  -0.81837  -0.80755  -0.79593
 Alpha  occ. eigenvalues --   -0.77733  -0.76948  -0.76784  -0.76035  -0.74440
 Alpha  occ. eigenvalues --   -0.74272  -0.74243  -0.73554  -0.73233  -0.72441
 Alpha  occ. eigenvalues --   -0.71847  -0.71378  -0.70687  -0.70438  -0.68875
 Alpha  occ. eigenvalues --   -0.68589  -0.67316  -0.66717  -0.65729  -0.65686
 Alpha  occ. eigenvalues --   -0.65607  -0.65152  -0.64574  -0.63994  -0.63414
 Alpha  occ. eigenvalues --   -0.63087  -0.62838  -0.62728  -0.62641  -0.61495
 Alpha  occ. eigenvalues --   -0.61000  -0.60932  -0.60394  -0.59232  -0.58590
 Alpha  occ. eigenvalues --   -0.58076  -0.57754  -0.57164  -0.57096  -0.56285
 Alpha  occ. eigenvalues --   -0.56165  -0.55935  -0.55461  -0.54927  -0.54602
 Alpha  occ. eigenvalues --   -0.54532  -0.54323  -0.53822  -0.53645  -0.53579
 Alpha  occ. eigenvalues --   -0.52963  -0.52688  -0.52652  -0.52539  -0.52376
 Alpha  occ. eigenvalues --   -0.51789  -0.51469  -0.50765  -0.50690  -0.50425
 Alpha  occ. eigenvalues --   -0.50026  -0.49859  -0.49427  -0.49306  -0.49261
 Alpha  occ. eigenvalues --   -0.48743  -0.48650  -0.48471  -0.48085  -0.47860
 Alpha  occ. eigenvalues --   -0.47456  -0.47057  -0.46848  -0.46736  -0.46484
 Alpha  occ. eigenvalues --   -0.45659  -0.45362  -0.45143  -0.44984  -0.44765
 Alpha  occ. eigenvalues --   -0.44686  -0.44471  -0.44163  -0.43947  -0.43806
 Alpha  occ. eigenvalues --   -0.43636  -0.43525  -0.43223  -0.43046  -0.43005
 Alpha  occ. eigenvalues --   -0.42777  -0.42629  -0.42244  -0.42084  -0.41899
 Alpha  occ. eigenvalues --   -0.41651  -0.41347  -0.41030  -0.40426  -0.40208
 Alpha  occ. eigenvalues --   -0.39730  -0.39568  -0.39314  -0.39128  -0.38992
 Alpha  occ. eigenvalues --   -0.38804  -0.38519  -0.37945  -0.37736  -0.37402
 Alpha  occ. eigenvalues --   -0.37367  -0.37101  -0.36897  -0.36646  -0.36342
 Alpha  occ. eigenvalues --   -0.35017  -0.34932  -0.34885  -0.34424  -0.33325
 Alpha  occ. eigenvalues --   -0.32737  -0.32648  -0.32040  -0.31465  -0.30736
 Alpha  occ. eigenvalues --   -0.30572  -0.29553  -0.28316  -0.28192  -0.27829
 Alpha  occ. eigenvalues --   -0.24247
 Alpha virt. eigenvalues --   -0.15133  -0.13480  -0.11160  -0.09961  -0.08524
 Alpha virt. eigenvalues --   -0.07419  -0.06830  -0.05139  -0.04763  -0.04546
 Alpha virt. eigenvalues --   -0.04241  -0.03687  -0.03552  -0.03248  -0.02764

 Mulliken charges:
               1
     1  N   -0.748993
     2  H    0.423187
     3  H    0.434478
     4  H    0.420126
     5  C   -0.117450
     6  H    0.209713
     7  C    0.645086
     8  C   -0.387211
     9  H    0.204488
    10  H    0.190806
    11  O   -0.522173
    12  C    0.302929
    13  C   -0.059473
    14  H    0.159660
    15  N   -0.617903
    16  H    0.345501
    17  C    0.248287
    18  H    0.196265
    19  N   -0.413708
    20  N   -0.600788
    21  H    0.369507
    22  C   -0.076604
    23  H    0.191389
    24  C    0.659521
    25  C    0.133282
    26  H    0.143694
    27  O   -0.579020
    28  C   -0.477111
    29  H    0.173247
    30  H    0.192874
    31  H    0.161626
    32  O   -0.599408
    33  H    0.392613
    34  N   -0.602919
    35  H    0.347838
    36  C   -0.072191
    37  H    0.201318
    38  C    0.638218
    39  C   -0.277232
    40  H    0.145853
    41  H    0.150984
    42  O   -0.535390
    43  C   -0.094164
    44  H    0.169365
    45  C   -0.473891
    46  H    0.153700
    47  H    0.130497
    48  H    0.171549
    49  C   -0.449159
    50  H    0.139945
    51  H    0.159435
    52  H    0.145780
    53  N   -0.614352
    54  H    0.360619
    55  C   -0.058533
    56  H    0.184037
    57  C    0.647141
    58  C   -0.473419
    59  H    0.215991
    60  H    0.161378
    61  H    0.135350
    62  O   -0.550810
    63  N   -0.620124
    64  H    0.369849
    65  C   -0.060364
    66  H    0.187371
    67  C    0.638899
    68  C   -0.394875
    69  H    0.161451
    70  H    0.169117
    71  O   -0.546724
    72  C    0.157222
    73  C   -0.183507
    74  H    0.140348
    75  C   -0.192328
    76  H    0.112727
    77  C   -0.208132
    78  H    0.130100
    79  C   -0.166318
    80  H    0.129106
    81  O   -0.694114
    82  C    0.363223
    83  N   -0.624923
    84  H    0.389144
    85  C   -0.084730
    86  H    0.196454
    87  C    0.641532
    88  C   -0.348410
    89  H    0.197165
    90  H    0.197812
    91  O   -0.523500
    92  C    0.570979
    93  O   -0.470832
    94  O   -0.553902
    95  N   -0.640190
    96  H    0.375531
    97  C   -0.000162
    98  H    0.183145
    99  C    0.602603
   100  C   -0.329248
   101  H    0.153812
   102  H    0.172728
   103  O   -0.469117
   104  C   -0.265561
   105  H    0.169614
   106  H    0.141582
   107  C   -0.279951
   108  H    0.159040
   109  H    0.131584
   110  C   -0.141488
   111  H    0.162329
   112  H    0.141548
   113  N   -0.768052
   114  H    0.325283
   115  H    0.316857
   116  H    0.458788
   117  O   -0.558113
   118  H    0.412122
   119  H    0.410230
 Sum of Mulliken charges =   1.00000

 Dipole moment (field-independent basis, Debye):
    X=            -32.1919    Y=             -2.1660    Z=              6.2121  Tot=             32.8573
 Quadrupole moment (field-independent basis, Debye-Ang):
   XX=            -41.1999   YY=           -372.7437   ZZ=           -276.0323
   XY=             58.8615   XZ=            -92.2146   YZ=            -10.3747

 Normal termination of Gaussian 16 at Sun Jun 19 13:58:20 2022.
