 Gaussian 16, Revision C.01,
 Gaussian 16:  ES64L-G16RevC.01  3-Jul-2019

 ----------------------------------------------------------------------
 # B3LYP/6-31G* empiricaldispersion=gd3 guess=read geom=check nosymm in
 tegral(ultrafinegrid)
 ----------------------------------------------------------------------

 ------------------------------------------------------
 Candidate Structure: Conf:315 Charge calc in gas phase
 ------------------------------------------------------
 Structure from the checkpoint file:  "conf-315.chk"
 Charge =  1 Multiplicity = 1

                          Input orientation:
 ---------------------------------------------------------------------
 Center     Atomic      Atomic             Coordinates (Angstroms)
 Number     Number       Type             X           Y           Z
 ---------------------------------------------------------------------
      1          7           0       -8.156804   -0.386973    5.161275
      2          1           0       -7.862115   -0.721036    6.080695
      3          1           0       -8.146397    0.636602    5.192079
      4          1           0       -9.098981   -0.716153    4.961934
      5          6           0       -7.202998   -0.775496    4.106250
      6          1           0       -6.856134   -1.797627    4.280343
      7          6           0       -6.036373    0.201954    4.181613
      8          6           0       -7.874203   -0.698614    2.724272
      9          1           0       -8.193122    0.330837    2.554378
     10          1           0       -8.774193   -1.319330    2.754298
     11          8           0       -6.198357    1.339579    4.621430
     12          6           0       -6.991186   -1.115778    1.589325
     13          6           0       -6.454388   -0.423292    0.542738
     14          1           0       -6.589923    0.628734    0.314433
     15          7           0       -6.484905   -2.391543    1.456494
     16          1           0       -6.693367   -3.174736    2.058575
     17          6           0       -5.697519   -2.417304    0.349505
     18          1           0       -5.186193   -3.308967    0.024812
     19          7           0       -5.653673   -1.240759   -0.235283
     20          7           0       -4.851390   -0.229428    3.706472
     21          1           0       -4.791180   -1.141863    3.277103
     22          6           0       -3.778486    0.703454    3.400439
     23          1           0       -4.211468    1.688333    3.198184
     24          6           0       -3.062514    0.180960    2.164828
     25          6           0       -2.819947    0.857143    4.601491
     26          1           0       -2.345022   -0.112484    4.781024
     27          8           0       -2.731716   -0.991048    2.066730
     28          6           0       -1.763828    1.919990    4.342422
     29          1           0       -1.142517    1.677345    3.477275
     30          1           0       -1.126710    2.011380    5.223291
     31          1           0       -2.250933    2.886602    4.170545
     32          8           0       -3.547061    1.190244    5.769882
     33          1           0       -4.387747    1.565671    5.488046
     34          7           0       -2.835743    1.093741    1.177324
     35          1           0       -2.875833    2.063508    1.448359
     36          6           0       -1.861082    0.785204    0.132155
     37          1           0       -2.071377   -0.233756   -0.189548
     38          6           0       -0.457344    0.878688    0.713471
     39          6           0       -2.032494    1.773460   -1.019595
     40          1           0       -1.938400    2.780298   -0.605874
     41          1           0       -3.052765    1.669666   -1.395899
     42          8           0       -0.066672    1.917674    1.249084
     43          6           0       -1.052254    1.624937   -2.181965
     44          1           0       -0.041354    1.793907   -1.794724
     45          6           0       -1.096739    0.235405   -2.807686
     46          1           0       -2.115668   -0.016999   -3.113085
     47          1           0       -0.731340   -0.535073   -2.130105
     48          1           0       -0.469805    0.214478   -3.699710
     49          6           0       -1.338863    2.678402   -3.248803
     50          1           0       -2.334413    2.526949   -3.671935
     51          1           0       -0.608811    2.616570   -4.058869
     52          1           0       -1.294889    3.686728   -2.831166
     53          7           0        0.297955   -0.248775    0.621450
     54          1           0       -0.040044   -0.978434    0.015240
     55          6           0        1.740414   -0.207642    0.785387
     56          1           0        1.953944    0.629631    1.448865
     57          6           0        2.383027    0.048891   -0.581964
     58          6           0        2.251133   -1.514779    1.369958
     59          1           0        3.328942   -1.460341    1.536654
     60          1           0        2.051170   -2.337080    0.680673
     61          1           0        1.757616   -1.721879    2.320005
     62          8           0        1.949897   -0.470064   -1.610971
     63          7           0        3.471258    0.846345   -0.575816
     64          1           0        3.751622    1.294503    0.276573
     65          6           0        4.121293    1.236255   -1.810600
     66          1           0        3.428890    1.866175   -2.375064
     67          6           0        4.446083   -0.022296   -2.602802
     68          6           0        5.407983    2.007854   -1.509612
     69          1           0        6.036946    1.400715   -0.863028
     70          1           0        5.946043    2.164509   -2.452168
     71          8           0        5.018709   -0.976554   -2.086033
     72          6           0        5.114667    3.312258   -0.865777
     73          6           0        4.502881    4.339767   -1.610059
     74          1           0        4.293314    4.157083   -2.660971
     75          6           0        5.375064    3.521988    0.499877
     76          1           0        5.838173    2.724879    1.075680
     77          6           0        4.175619    5.540761   -1.049975
     78          1           0        3.709836    6.336494   -1.616813
     79          6           0        5.055251    4.695079    1.121789
     80          1           0        5.246271    4.866188    2.172930
     81          8           0        4.132182    6.844373    0.904802
     82          6           0        4.429757    5.778845    0.368815
     83          7           0        4.063562   -0.011351   -3.907586
     84          1           0        3.482870    0.746493   -4.235783
     85          6           0        4.007192   -1.276946   -4.639162
     86          1           0        3.642547   -2.034445   -3.938533
     87          6           0        5.420003   -1.631125   -5.116333
     88          6           0        3.042939   -1.153672   -5.827028
     89          1           0        2.925728   -2.120809   -6.314472
     90          1           0        3.427700   -0.431363   -6.544904
     91          8           0        5.808861   -1.336908   -6.242025
     92          6           0        1.721592   -0.690773   -5.300264
     93          8           0        1.309550    0.441679   -5.371147
     94          8           0        1.066277   -1.667945   -4.652037
     95          7           0        6.211320   -2.260866   -4.215245
     96          1           0        5.909540   -2.357979   -3.250547
     97          6           0        7.622153   -2.440564   -4.461952
     98          1           0        7.784844   -2.385008   -5.541832
     99          6           0        8.033302   -3.813004   -3.975716
    100          6           0        8.483096   -1.382564   -3.752410
    101          1           0        9.535141   -1.629473   -3.914197
    102          1           0        8.303162   -1.456721   -2.674400
    103          8           0        7.412608   -4.495504   -3.206215
    104          6           0        8.215553    0.043681   -4.224096
    105          1           0        7.153304    0.284540   -4.126090
    106          1           0        8.743298    0.733806   -3.559010
    107          6           0        8.657383    0.305986   -5.653577
    108          1           0        9.742412    0.209870   -5.730990
    109          1           0        8.220176   -0.431868   -6.331686
    110          6           0        8.231262    1.680573   -6.117693
    111          1           0        8.614374    2.436157   -5.429026
    112          1           0        7.138760    1.731483   -6.088003
    113          7           0        8.687466    1.984591   -7.497147
    114          1           0        8.370091    2.899708   -7.818636
    115          1           0        8.338640    1.289735   -8.156316
    116          1           0        9.705370    1.974272   -7.556933
    117          8           0        9.227092   -4.177003   -4.489321
    118          1           0        9.425609   -5.042322   -4.109352
    119          1           0        0.273764   -1.276043   -4.255360
 ---------------------------------------------------------------------

 SCF Done:  E(RB3LYP) =  -2933.69423780     A.U. after    3 cycles

 Alpha  occ. eigenvalues --  -19.26239 -19.25522 -19.24717 -19.20566 -19.19942
 Alpha  occ. eigenvalues --  -19.19908 -19.19650 -19.18312 -19.16933 -19.16470
 Alpha  occ. eigenvalues --  -19.16083 -19.03160 -14.62252 -14.61923 -14.49778
 Alpha  occ. eigenvalues --  -14.48181 -14.43456 -14.41858 -14.41757 -14.41090
 Alpha  occ. eigenvalues --  -14.40794 -14.40035 -10.42236 -10.41283 -10.38461
 Alpha  occ. eigenvalues --  -10.37999 -10.37733 -10.36859 -10.35388 -10.35243
 Alpha  occ. eigenvalues --  -10.33836 -10.33613 -10.33570 -10.32965 -10.32727
 Alpha  occ. eigenvalues --  -10.32292 -10.30619 -10.30556 -10.30554 -10.30157
 Alpha  occ. eigenvalues --  -10.29973 -10.28775 -10.28000 -10.27778 -10.27088
 Alpha  occ. eigenvalues --  -10.26823 -10.26249 -10.23660 -10.23328 -10.22937
 Alpha  occ. eigenvalues --  -10.22419 -10.21912 -10.21473 -10.20968 -10.18807
 Alpha  occ. eigenvalues --  -10.16469 -10.16365 -10.15961 -10.14017 -10.13589
 Alpha  occ. eigenvalues --   -1.19489  -1.17669  -1.16938  -1.16424  -1.16194
 Alpha  occ. eigenvalues --   -1.12331  -1.12026  -1.10698  -1.09358  -1.08598
 Alpha  occ. eigenvalues --   -1.08560  -1.08453  -1.07557  -1.07383  -1.04476
 Alpha  occ. eigenvalues --   -0.99995  -0.99280  -0.98630  -0.97732  -0.97420
 Alpha  occ. eigenvalues --   -0.96894  -0.94892  -0.94213  -0.92930  -0.87867
 Alpha  occ. eigenvalues --   -0.87171  -0.86716  -0.85651  -0.85168  -0.83897
 Alpha  occ. eigenvalues --   -0.82325  -0.81864  -0.80978  -0.80056  -0.78942
 Alpha  occ. eigenvalues --   -0.77833  -0.76995  -0.76333  -0.75351  -0.75227
 Alpha  occ. eigenvalues --   -0.75089  -0.73519  -0.73133  -0.71923  -0.71877
 Alpha  occ. eigenvalues --   -0.71730  -0.71380  -0.71043  -0.69686  -0.69449
 Alpha  occ. eigenvalues --   -0.68894  -0.68227  -0.67955  -0.67406  -0.65934
 Alpha  occ. eigenvalues --   -0.65668  -0.65190  -0.64802  -0.64269  -0.64214
 Alpha  occ. eigenvalues --   -0.64066  -0.63767  -0.63184  -0.62665  -0.60937
 Alpha  occ. eigenvalues --   -0.60869  -0.59927  -0.59268  -0.58951  -0.58604
 Alpha  occ. eigenvalues --   -0.57865  -0.57231  -0.57039  -0.56560  -0.56243
 Alpha  occ. eigenvalues --   -0.56110  -0.55996  -0.55163  -0.54832  -0.54352
 Alpha  occ. eigenvalues --   -0.54133  -0.54024  -0.54000  -0.53776  -0.53532
 Alpha  occ. eigenvalues --   -0.53338  -0.52731  -0.52440  -0.52045  -0.51920
 Alpha  occ. eigenvalues --   -0.51652  -0.51402  -0.51096  -0.51070  -0.50599
 Alpha  occ. eigenvalues --   -0.50370  -0.50241  -0.49599  -0.49243  -0.48698
 Alpha  occ. eigenvalues --   -0.48238  -0.47915  -0.47738  -0.47619  -0.47221
 Alpha  occ. eigenvalues --   -0.47107  -0.46962  -0.46511  -0.46340  -0.46100
 Alpha  occ. eigenvalues --   -0.45937  -0.45528  -0.45383  -0.44617  -0.44532
 Alpha  occ. eigenvalues --   -0.44498  -0.44249  -0.44046  -0.43776  -0.43573
 Alpha  occ. eigenvalues --   -0.43210  -0.43154  -0.42988  -0.42565  -0.42337
 Alpha  occ. eigenvalues --   -0.42214  -0.42019  -0.41784  -0.41480  -0.41302
 Alpha  occ. eigenvalues --   -0.41122  -0.40621  -0.39903  -0.39888  -0.39563
 Alpha  occ. eigenvalues --   -0.38492  -0.38436  -0.37979  -0.37929  -0.37493
 Alpha  occ. eigenvalues --   -0.37248  -0.36938  -0.36693  -0.36059  -0.35666
 Alpha  occ. eigenvalues --   -0.34531  -0.34483  -0.34334  -0.33737  -0.33394
 Alpha  occ. eigenvalues --   -0.33115  -0.33049  -0.32792  -0.32633  -0.32110
 Alpha  occ. eigenvalues --   -0.31631  -0.31498  -0.30880  -0.30469  -0.30043
 Alpha  occ. eigenvalues --   -0.29572  -0.28924  -0.27507  -0.22755  -0.16776
 Alpha  occ. eigenvalues --   -0.13554
 Alpha virt. eigenvalues --   -0.12789  -0.12324  -0.11847  -0.08911  -0.06765
 Alpha virt. eigenvalues --   -0.06345  -0.05949  -0.05733  -0.05729  -0.05493
 Alpha virt. eigenvalues --   -0.05088  -0.04346  -0.03859  -0.03619  -0.03374

 Mulliken charges:
               1
     1  N   -0.695570
     2  H    0.410255
     3  H    0.422528
     4  H    0.395046
     5  C   -0.148771
     6  H    0.204858
     7  C    0.639944
     8  C   -0.379347
     9  H    0.206395
    10  H    0.177845
    11  O   -0.549005
    12  C    0.308622
    13  C   -0.060066
    14  H    0.159705
    15  N   -0.614423
    16  H    0.335289
    17  C    0.232133
    18  H    0.189180
    19  N   -0.406940
    20  N   -0.573701
    21  H    0.355892
    22  C   -0.115250
    23  H    0.173176
    24  C    0.620048
    25  C    0.172827
    26  H    0.147610
    27  O   -0.533942
    28  C   -0.478705
    29  H    0.186460
    30  H    0.180546
    31  H    0.141221
    32  O   -0.649189
    33  H    0.414918
    34  N   -0.594991
    35  H    0.343784
    36  C   -0.061548
    37  H    0.172519
    38  C    0.630990
    39  C   -0.276721
    40  H    0.156588
    41  H    0.146868
    42  O   -0.532291
    43  C   -0.090532
    44  H    0.161488
    45  C   -0.488576
    46  H    0.141382
    47  H    0.142549
    48  H    0.161310
    49  C   -0.453403
    50  H    0.135748
    51  H    0.166590
    52  H    0.153204
    53  N   -0.568842
    54  H    0.340978
    55  C   -0.090415
    56  H    0.192056
    57  C    0.655075
    58  C   -0.449858
    59  H    0.170605
    60  H    0.161449
    61  H    0.166612
    62  O   -0.571193
    63  N   -0.595256
    64  H    0.349063
    65  C   -0.009343
    66  H    0.162456
    67  C    0.663458
    68  C   -0.396987
    69  H    0.154667
    70  H    0.106789
    71  O   -0.562912
    72  C    0.132595
    73  C   -0.173700
    74  H    0.053488
    75  C   -0.201536
    76  H    0.074262
    77  C   -0.215835
    78  H    0.090183
    79  C   -0.219075
    80  H    0.094586
    81  O   -0.605835
    82  C    0.414677
    83  N   -0.634875
    84  H    0.350469
    85  C   -0.054973
    86  H    0.206104
    87  C    0.631816
    88  C   -0.348534
    89  H    0.191328
    90  H    0.183586
    91  O   -0.569590
    92  C    0.569956
    93  O   -0.465757
    94  O   -0.565048
    95  N   -0.581203
    96  H    0.381067
    97  C   -0.068427
    98  H    0.189996
    99  C    0.587460
   100  C   -0.279868
   101  H    0.163211
   102  H    0.183063
   103  O   -0.442998
   104  C   -0.283672
   105  H    0.181493
   106  H    0.164880
   107  C   -0.292648
   108  H    0.151648
   109  H    0.191049
   110  C   -0.227701
   111  H    0.226460
   112  H    0.237734
   113  N   -0.692319
   114  H    0.410144
   115  H    0.411924
   116  H    0.401191
   117  O   -0.570989
   118  H    0.420769
   119  H    0.436490
 Sum of Mulliken charges =   1.00000

 Dipole moment (field-independent basis, Debye):
    X=             -9.2477    Y=            -14.3245    Z=            -11.2078  Tot=             20.4040
 Quadrupole moment (field-independent basis, Debye-Ang):
   XX=            172.9803   YY=           -426.1720   ZZ=            -90.0907
   XY=             22.8551   XZ=           -388.3560   YZ=            -88.5388

 Normal termination of Gaussian 16 at Sun Jun 19 14:04:25 2022.
