 Gaussian 16, Revision C.01,
 Gaussian 16:  ES64L-G16RevC.01  3-Jul-2019

 ----------------------------------------------------------------------
 # B3LYP/6-31G* empiricaldispersion=gd3 guess=read geom=check nosymm in
 tegral(ultrafinegrid)
 ----------------------------------------------------------------------

 ------------------------------------------------------
 Candidate Structure: Conf:746 Charge calc in gas phase
 ------------------------------------------------------
 Structure from the checkpoint file:  "conf-746.chk"
 Charge =  1 Multiplicity = 1

                          Input orientation:
 ---------------------------------------------------------------------
 Center     Atomic      Atomic             Coordinates (Angstroms)
 Number     Number       Type             X           Y           Z
 ---------------------------------------------------------------------
      1          7           0       -5.846061    1.086119    4.015955
      2          1           0       -6.557987    1.500050    3.380467
      3          1           0       -5.773078    0.068623    3.796558
      4          1           0       -6.138289    1.228363    4.986631
      5          6           0       -4.464098    1.626681    3.729270
      6          1           0       -4.584698    2.654423    3.379703
      7          6           0       -3.965878    0.685262    2.607712
      8          6           0       -3.596331    1.541977    4.987499
      9          1           0       -4.070474    2.101122    5.802809
     10          1           0       -3.530636    0.496871    5.311443
     11          8           0       -4.353975   -0.485814    2.632761
     12          6           0       -2.187790    2.100200    4.764911
     13          1           0       -2.217500    3.135573    4.399662
     14          1           0       -1.630208    1.528741    4.015084
     15          6           0       -1.404575    2.089002    6.066614
     16          8           0       -1.867314    1.785141    7.142458
     17          8           0       -0.128879    2.468624    5.866369
     18          7           0       -3.164229    1.232114    1.691815
     19          1           0       -2.808185    2.181157    1.783334
     20          6           0       -2.715062    0.558005    0.481923
     21          1           0       -2.596088   -0.507025    0.699989
     22          6           0       -1.377966    1.220537    0.108181
     23          6           0       -3.743401    0.742108   -0.680991
     24          1           0       -3.380208    0.173802   -1.544453
     25          1           0       -3.737688    1.799467   -0.973082
     26          8           0       -1.088127    2.330200    0.562275
     27          6           0       -5.125409    0.309171   -0.296667
     28          6           0       -5.657510   -0.950171   -0.424997
     29          1           0       -5.244877   -1.824410   -0.909804
     30          6           0       -6.092132    1.082141    0.440446
     31          6           0       -7.179753    0.211599    0.751710
     32          6           0       -6.140742    2.413105    0.890160
     33          1           0       -5.340038    3.105254    0.644184
     34          7           0       -6.883571   -1.014133    0.202693
     35          1           0       -7.491917   -1.819397    0.204745
     36          6           0       -8.290100    1.948872    1.961270
     37          1           0       -9.139536    2.310616    2.533363
     38          6           0       -8.278433    0.628233    1.510375
     39          1           0       -9.099466   -0.046899    1.734323
     40          6           0       -7.232260    2.837620    1.646859
     41          1           0       -7.290483    3.870618    1.978360
     42          7           0       -0.620823    0.538848   -0.766992
     43          1           0       -0.874336   -0.385445   -1.109448
     44          6           0        0.603766    1.060021   -1.342739
     45          1           0        0.461816    2.110701   -1.615913
     46          6           0        0.900104    0.193370   -2.577581
     47          6           0        1.782871    0.992225   -0.330410
     48          1           0        1.529608    1.689438    0.477767
     49          8           0        0.422867   -0.935476   -2.673438
     50          6           0        2.044630   -0.403065    0.227203
     51          1           0        1.168939   -0.775757    0.767406
     52          1           0        2.883151   -0.370575    0.931540
     53          1           0        2.293811   -1.109289   -0.569425
     54          8           0        2.929510    1.490554   -1.050355
     55          1           0        3.570746    0.103441   -2.252032
     56          7           0        1.753351    0.734872   -3.478280
     57          1           0        2.156190    1.639044   -3.260932
     58          6           0        2.446181   -0.093319   -4.464349
     59          1           0        1.708102   -0.708059   -4.983917
     60          6           0        3.432729   -1.080286   -3.801828
     61          6           0        3.185691    0.829715   -5.451227
     62          1           0        3.957564    1.383294   -4.903115
     63          1           0        2.460796    1.573072   -5.809049
     64          8           0        3.777598   -2.090936   -4.362124
     65          6           0        3.811365    0.105834   -6.649026
     66          1           0        4.439871   -0.720238   -6.299208
     67          1           0        3.018069   -0.350405   -7.256620
     68          6           0        4.653521    1.030706   -7.545905
     69          1           0        4.964398    0.471932   -8.436101
     70          1           0        4.057059    1.874816   -7.909857
     71          7           0        5.852420    1.562540   -6.914732
     72          1           0        6.514728    0.859583   -6.608632
     73          7           0        7.105912    2.906216   -5.511964
     74          1           0        7.156179    3.833357   -5.103990
     75          1           0        7.913040    2.722332   -6.099955
     76          7           0        4.953359    3.613511   -5.999731
     77          1           0        4.078213    3.327095   -6.436199
     78          6           0        5.877520    2.733345   -6.163440
     79          8           0        3.943786   -0.734673   -2.600789
     80          1           0        0.318789    2.456245    6.734386
     81          1           0        3.638142    1.678496   -0.414583
 ---------------------------------------------------------------------

 SCF Done:  E(RB3LYP) =  -2054.02971988     A.U. after    1 cycles

 Alpha  occ. eigenvalues --  -19.29550 -19.26330 -19.26022 -19.24359 -19.24165
 Alpha  occ. eigenvalues --  -19.23031 -19.21322 -19.18590 -14.59032 -14.49650
 Alpha  occ. eigenvalues --  -14.49130 -14.46924 -14.45070 -14.39779 -14.38136
 Alpha  occ. eigenvalues --  -14.32667 -10.43246 -10.42600 -10.40148 -10.40140
 Alpha  occ. eigenvalues --  -10.38223 -10.37198 -10.35581 -10.34352 -10.33720
 Alpha  occ. eigenvalues --  -10.33607 -10.33469 -10.32928 -10.32504 -10.32446
 Alpha  occ. eigenvalues --  -10.31077 -10.30938 -10.30903 -10.30649 -10.30566
 Alpha  occ. eigenvalues --  -10.30343 -10.30112 -10.29216 -10.27633 -10.26272
 Alpha  occ. eigenvalues --  -10.26140 -10.24444  -1.20591  -1.18637  -1.15292
 Alpha  occ. eigenvalues --   -1.15018  -1.13408  -1.13241  -1.12697  -1.11813
 Alpha  occ. eigenvalues --   -1.09157  -1.06919  -1.06369  -1.03519  -1.01909
 Alpha  occ. eigenvalues --   -1.01685  -0.95852  -0.94755  -0.93251  -0.92077
 Alpha  occ. eigenvalues --   -0.89272  -0.88221  -0.87726  -0.86304  -0.85781
 Alpha  occ. eigenvalues --   -0.85208  -0.83442  -0.81384  -0.79608  -0.79274
 Alpha  occ. eigenvalues --   -0.77217  -0.73873  -0.73339  -0.73188  -0.73093
 Alpha  occ. eigenvalues --   -0.72256  -0.71358  -0.70762  -0.69652  -0.69117
 Alpha  occ. eigenvalues --   -0.68002  -0.67642  -0.66790  -0.66731  -0.65449
 Alpha  occ. eigenvalues --   -0.64999  -0.64096  -0.63251  -0.62431  -0.61405
 Alpha  occ. eigenvalues --   -0.60708  -0.60099  -0.59905  -0.59341  -0.59056
 Alpha  occ. eigenvalues --   -0.58846  -0.58568  -0.58218  -0.57985  -0.56980
 Alpha  occ. eigenvalues --   -0.56602  -0.56213  -0.55543  -0.55411  -0.54922
 Alpha  occ. eigenvalues --   -0.54668  -0.54374  -0.53507  -0.53276  -0.52654
 Alpha  occ. eigenvalues --   -0.52299  -0.52087  -0.51888  -0.51452  -0.50755
 Alpha  occ. eigenvalues --   -0.50566  -0.50338  -0.50078  -0.49784  -0.49296
 Alpha  occ. eigenvalues --   -0.48915  -0.48555  -0.48497  -0.48123  -0.48072
 Alpha  occ. eigenvalues --   -0.47756  -0.47538  -0.47426  -0.46579  -0.46528
 Alpha  occ. eigenvalues --   -0.45676  -0.45385  -0.45117  -0.44899  -0.43900
 Alpha  occ. eigenvalues --   -0.43137  -0.42534  -0.41845  -0.41415  -0.40704
 Alpha  occ. eigenvalues --   -0.40498  -0.40324  -0.39632  -0.38932  -0.38708
 Alpha  occ. eigenvalues --   -0.37866  -0.37240  -0.36630  -0.36364  -0.35933
 Alpha  occ. eigenvalues --   -0.34749  -0.34276  -0.31546  -0.31507  -0.30610
 Alpha  occ. eigenvalues --   -0.30102  -0.26896
 Alpha virt. eigenvalues --   -0.13133  -0.12604  -0.09688  -0.09371  -0.09194
 Alpha virt. eigenvalues --   -0.08546  -0.07449  -0.05148  -0.04587  -0.04075
 Alpha virt. eigenvalues --   -0.03643  -0.02918  -0.01984  -0.01938  -0.01602

 Mulliken charges:
               1
     1  N   -0.766226
     2  H    0.422652
     3  H    0.421456
     4  H    0.405267
     5  C   -0.108250
     6  H    0.199259
     7  C    0.664822
     8  C   -0.284969
     9  H    0.188819
    10  H    0.196517
    11  O   -0.537199
    12  C   -0.383862
    13  H    0.195256
    14  H    0.204360
    15  C    0.596030
    16  O   -0.445110
    17  O   -0.558390
    18  N   -0.602880
    19  H    0.363852
    20  C   -0.064958
    21  H    0.195522
    22  C    0.636051
    23  C   -0.364283
    24  H    0.178890
    25  H    0.174051
    26  O   -0.543515
    27  C    0.079383
    28  C    0.035567
    29  H    0.181628
    30  C    0.064488
    31  C    0.325741
    32  C   -0.224495
    33  H    0.145364
    34  N   -0.681429
    35  H    0.350218
    36  C   -0.204220
    37  H    0.161204
    38  C   -0.170470
    39  H    0.160259
    40  C   -0.194778
    41  H    0.155340
    42  N   -0.624993
    43  H    0.365496
    44  C   -0.045602
    45  H    0.191400
    46  C    0.609519
    47  C    0.111300
    48  H    0.170744
    49  O   -0.527727
    50  C   -0.477737
    51  H    0.151049
    52  H    0.159904
    53  H    0.200290
    54  O   -0.645969
    55  H    0.442123
    56  N   -0.631742
    57  H    0.357125
    58  C   -0.045956
    59  H    0.201191
    60  C    0.607963
    61  C   -0.316686
    62  H    0.172115
    63  H    0.154132
    64  O   -0.442376
    65  C   -0.268556
    66  H    0.176692
    67  H    0.146276
    68  C   -0.159197
    69  H    0.164121
    70  H    0.156207
    71  N   -0.588627
    72  H    0.325623
    73  N   -0.750575
    74  H    0.336292
    75  H    0.322482
    76  N   -0.655963
    77  H    0.268950
    78  C    0.576560
    79  O   -0.607494
    80  H    0.429467
    81  H    0.425220
 Sum of Mulliken charges =   1.00000

 Dipole moment (field-independent basis, Debye):
    X=            -19.6498    Y=              6.9181    Z=             10.5810  Tot=             23.3652
 Quadrupole moment (field-independent basis, Debye-Ang):
   XX=            -66.4988   YY=           -243.3127   ZZ=           -165.9041
   XY=             -0.3673   XZ=            -75.2065   YZ=             20.7413

 Normal termination of Gaussian 16 at Sun May 15 01:27:26 2022.
