 Gaussian 16, Revision C.01,
 Gaussian 16:  ES64L-G16RevC.01  3-Jul-2019

 ----------------------------------------------------------------------
 # B3LYP/6-31G* empiricaldispersion=gd3 guess=read geom=check nosymm in
 tegral(ultrafinegrid)
 ----------------------------------------------------------------------

 ------------------------------------------------------
 Candidate Structure: Conf:584 Charge calc in gas phase
 ------------------------------------------------------
 Structure from the checkpoint file:  "conf-584.chk"
 Charge =  1 Multiplicity = 1

                          Input orientation:
 ---------------------------------------------------------------------
 Center     Atomic      Atomic             Coordinates (Angstroms)
 Number     Number       Type             X           Y           Z
 ---------------------------------------------------------------------
      1          7           0       -4.489229    1.632854    4.701680
      2          1           0       -4.885782    0.704562    4.468179
      3          1           0       -3.747536    1.474996    5.390935
      4          1           0       -5.184977    2.311993    5.077614
      5          6           0       -3.961806    2.212848    3.415913
      6          1           0       -4.836926    2.641390    2.918345
      7          6           0       -3.523773    0.996251    2.568052
      8          6           0       -2.935379    3.329946    3.647484
      9          1           0       -1.967221    2.901844    3.931025
     10          1           0       -2.800581    3.842074    2.690110
     11          8           0       -3.938699   -0.121696    2.863113
     12          6           0       -3.328502    4.394882    4.703640
     13          1           0       -2.676415    5.262441    4.589027
     14          1           0       -3.171128    4.004326    5.717168
     15          6           0       -4.781372    4.823710    4.642332
     16          8           0       -5.719466    4.053636    4.823289
     17          8           0       -4.948719    6.118739    4.399191
     18          7           0       -2.766289    1.312216    1.506719
     19          1           0       -2.584526    2.293507    1.316664
     20          6           0       -2.489225    0.446332    0.366688
     21          1           0       -3.040664   -0.487965    0.514803
     22          6           0       -1.005384    0.096029    0.461798
     23          6           0       -2.941699    1.175966   -0.940239
     24          1           0       -4.030622    1.066989   -0.988681
     25          1           0       -2.550659    0.642272   -1.814497
     26          8           0       -0.653193   -0.426996    1.597800
     27          6           0       -2.551200    2.629095   -0.933861
     28          6           0       -1.359319    3.181755   -1.364283
     29          1           0       -0.568698    2.746191   -1.961253
     30          6           0       -3.234298    3.684483   -0.219523
     31          6           0       -2.355184    4.812629   -0.216222
     32          6           0       -4.483950    3.788396    0.427334
     33          1           0       -5.194778    2.965454    0.385783
     34          7           0       -1.241968    4.475324   -0.943670
     35          1           0       -0.327633    4.981910   -1.096071
     36          6           0       -3.893758    6.047438    1.140282
     37          1           0       -4.163629    6.946977    1.684716
     38          6           0       -2.673850    5.990394    0.475625
     39          1           0       -1.987761    6.832003    0.486424
     40          6           0       -4.800842    4.962811    1.100944
     41          1           0       -5.769850    5.059951    1.583905
     42          7           0       -0.156454    0.353436   -0.491062
     43          1           0       -0.456152    0.655430   -1.427202
     44          6           0        1.317919    0.349460   -0.426468
     45          1           0        1.634848    0.887151    0.473101
     46          6           0        1.764539    1.099403   -1.712356
     47          6           0        1.863956   -1.093795   -0.348996
     48          1           0        1.236244   -1.724688   -0.992818
     49          8           0        0.996831    1.046269   -2.693155
     50          6           0        3.329381   -1.274106   -0.702441
     51          1           0        3.474775   -1.122796   -1.776655
     52          1           0        3.627018   -2.305102   -0.476965
     53          1           0        3.989404   -0.576761   -0.179033
     54          8           0        1.618972   -1.456860    1.044751
     55          1           0        0.275317   -0.858115    1.534969
     56          7           0        2.934871    1.702635   -1.590088
     57          1           0        3.486667    1.583924   -0.685649
     58          6           0        4.040476    1.810871   -2.562492
     59          1           0        3.945002    0.996228   -3.290415
     60          6           0        5.330347    1.504452   -1.651980
     61          6           0        4.230765    3.134168   -3.308766
     62          1           0        5.293393    3.138791   -3.571105
     63          1           0        4.074673    3.978290   -2.623885
     64          8           0        6.403261    1.476920   -2.250574
     65          6           0        3.406320    3.311579   -4.592402
     66          1           0        3.941116    3.984269   -5.277777
     67          1           0        3.325534    2.349819   -5.115573
     68          6           0        1.992906    3.869410   -4.391821
     69          1           0        1.432931    3.806124   -5.334200
     70          1           0        1.440492    3.275512   -3.660113
     71          7           0        1.990179    5.266910   -3.964200
     72          1           0        2.439701    5.928347   -4.584245
     73          7           0        1.387980    7.123209   -2.748933
     74          1           0        1.088966    7.494258   -1.857891
     75          1           0        0.959811    7.553971   -3.557818
     76          7           0        1.315622    5.071703   -1.677691
     77          1           0        1.723019    4.137285   -1.725568
     78          6           0        1.561169    5.751542   -2.763493
     79          8           0        5.055491    1.329447   -0.417821
     80          1           0       -5.906801    6.317108    4.411309
     81          1           0        1.893675   -2.374479    1.206409
 ---------------------------------------------------------------------

 SCF Done:  E(RB3LYP) =  -2053.96359929     A.U. after    1 cycles

 Alpha  occ. eigenvalues --  -19.34811 -19.33930 -19.30095 -19.29888 -19.27907
 Alpha  occ. eigenvalues --  -19.21620 -19.11635 -19.09906 -14.60461 -14.53528
 Alpha  occ. eigenvalues --  -14.51481 -14.45788 -14.42286 -14.41831 -14.41765
 Alpha  occ. eigenvalues --  -14.36172 -10.48002 -10.47429 -10.45195 -10.41575
 Alpha  occ. eigenvalues --  -10.39267 -10.38215 -10.37008 -10.36336 -10.36329
 Alpha  occ. eigenvalues --  -10.36243 -10.35779 -10.32983 -10.32100 -10.31679
 Alpha  occ. eigenvalues --  -10.29870 -10.29422 -10.29411 -10.29306 -10.29069
 Alpha  occ. eigenvalues --  -10.29053 -10.28849 -10.28020 -10.26250 -10.26090
 Alpha  occ. eigenvalues --  -10.23640 -10.22331  -1.26126  -1.24941  -1.20281
 Alpha  occ. eigenvalues --   -1.17189  -1.16311  -1.14851  -1.13287  -1.09816
 Alpha  occ. eigenvalues --   -1.08848  -1.07205  -1.05088  -1.04526  -0.99360
 Alpha  occ. eigenvalues --   -0.96979  -0.95837  -0.95597  -0.94522  -0.93934
 Alpha  occ. eigenvalues --   -0.91390  -0.90596  -0.89836  -0.87732  -0.84525
 Alpha  occ. eigenvalues --   -0.84111  -0.83724  -0.82490  -0.81474  -0.79821
 Alpha  occ. eigenvalues --   -0.78525  -0.76677  -0.75961  -0.75568  -0.74663
 Alpha  occ. eigenvalues --   -0.74000  -0.73004  -0.72710  -0.72429  -0.71010
 Alpha  occ. eigenvalues --   -0.69319  -0.68466  -0.66986  -0.66377  -0.66315
 Alpha  occ. eigenvalues --   -0.65478  -0.65308  -0.64373  -0.63701  -0.63137
 Alpha  occ. eigenvalues --   -0.62663  -0.62473  -0.62191  -0.61957  -0.61407
 Alpha  occ. eigenvalues --   -0.60530  -0.59711  -0.58654  -0.58609  -0.58304
 Alpha  occ. eigenvalues --   -0.57808  -0.57492  -0.56784  -0.56339  -0.55686
 Alpha  occ. eigenvalues --   -0.55396  -0.54884  -0.54604  -0.54376  -0.54046
 Alpha  occ. eigenvalues --   -0.53643  -0.53593  -0.52820  -0.52363  -0.52260
 Alpha  occ. eigenvalues --   -0.52128  -0.51497  -0.51280  -0.50994  -0.50771
 Alpha  occ. eigenvalues --   -0.50280  -0.49572  -0.49187  -0.49108  -0.48658
 Alpha  occ. eigenvalues --   -0.48411  -0.47460  -0.47219  -0.46935  -0.46241
 Alpha  occ. eigenvalues --   -0.45574  -0.45011  -0.44455  -0.44083  -0.43762
 Alpha  occ. eigenvalues --   -0.43644  -0.43516  -0.42703  -0.42037  -0.41663
 Alpha  occ. eigenvalues --   -0.41311  -0.40977  -0.40267  -0.38957  -0.38466
 Alpha  occ. eigenvalues --   -0.38212  -0.37955  -0.35873  -0.35021  -0.33350
 Alpha  occ. eigenvalues --   -0.32926  -0.32582  -0.30791  -0.29898  -0.26682
 Alpha  occ. eigenvalues --   -0.26269  -0.23848
 Alpha virt. eigenvalues --   -0.17012  -0.15102  -0.13408  -0.12112  -0.10686
 Alpha virt. eigenvalues --   -0.08553  -0.08245  -0.05983  -0.05533  -0.05001
 Alpha virt. eigenvalues --   -0.04826  -0.03342  -0.02958  -0.02775  -0.02566

 Mulliken charges:
               1
     1  N   -0.752535
     2  H    0.425526
     3  H    0.405693
     4  H    0.438674
     5  C   -0.133032
     6  H    0.240491
     7  C    0.649281
     8  C   -0.326089
     9  H    0.190120
    10  H    0.228548
    11  O   -0.514905
    12  C   -0.379656
    13  H    0.228063
    14  H    0.189030
    15  C    0.627270
    16  O   -0.499289
    17  O   -0.523107
    18  N   -0.604570
    19  H    0.381053
    20  C   -0.051732
    21  H    0.228736
    22  C    0.633125
    23  C   -0.402668
    24  H    0.189624
    25  H    0.189200
    26  O   -0.566780
    27  C    0.010556
    28  C   -0.015663
    29  H    0.193568
    30  C    0.005043
    31  C    0.333920
    32  C   -0.235323
    33  H    0.130910
    34  N   -0.684505
    35  H    0.396280
    36  C   -0.161631
    37  H    0.145736
    38  C   -0.164856
    39  H    0.156017
    40  C   -0.165955
    41  H    0.128407
    42  N   -0.583214
    43  H    0.403395
    44  C   -0.102204
    45  H    0.215132
    46  C    0.591274
    47  C    0.138989
    48  H    0.161737
    49  O   -0.563580
    50  C   -0.502693
    51  H    0.188304
    52  H    0.154959
    53  H    0.248652
    54  O   -0.672391
    55  H    0.483218
    56  N   -0.604245
    57  H    0.374157
    58  C   -0.084438
    59  H    0.151039
    60  C    0.595271
    61  C   -0.278281
    62  H    0.195994
    63  H    0.143106
    64  O   -0.538039
    65  C   -0.266751
    66  H    0.136598
    67  H    0.148564
    68  C   -0.160099
    69  H    0.151939
    70  H    0.176531
    71  N   -0.591702
    72  H    0.333255
    73  N   -0.745765
    74  H    0.338617
    75  H    0.332538
    76  N   -0.766830
    77  H    0.308560
    78  C    0.666701
    79  O   -0.618351
    80  H    0.440715
    81  H    0.436761
 Sum of Mulliken charges =   1.00000

 Dipole moment (field-independent basis, Debye):
    X=            -25.2392    Y=             11.9684    Z=             14.6785  Tot=             31.5550
 Quadrupole moment (field-independent basis, Debye-Ang):
   XX=           -250.6015   YY=           -142.3962   ZZ=           -145.5494
   XY=            -69.6111   XZ=            -61.5594   YZ=             26.3254

 Normal termination of Gaussian 16 at Sun May 15 01:27:34 2022.
