 Gaussian 16, Revision C.01,
 Gaussian 16:  ES64L-G16RevC.01  3-Jul-2019

 ----------------------------------------------------------------------
 # B3LYP/6-31G* empiricaldispersion=gd3 guess=read geom=check nosymm in
 tegral(ultrafinegrid)
 ----------------------------------------------------------------------

 ------------------------------------------------------
 Candidate Structure: Conf:205 Charge calc in gas phase
 ------------------------------------------------------
 Structure from the checkpoint file:  "conf-205.chk"
 Charge =  1 Multiplicity = 1

                          Input orientation:
 ---------------------------------------------------------------------
 Center     Atomic      Atomic             Coordinates (Angstroms)
 Number     Number       Type             X           Y           Z
 ---------------------------------------------------------------------
      1          7           0       -3.220133   -1.308977    3.977537
      2          1           0       -3.910291   -2.033181    3.746559
      3          1           0       -2.329564   -1.554095    3.495351
      4          1           0       -3.084936   -1.301900    4.994514
      5          6           0       -3.589339    0.060384    3.426482
      6          1           0       -4.675856    0.166264    3.477580
      7          6           0       -3.048767    0.030932    1.982947
      8          6           0       -2.874437    1.138106    4.260539
      9          1           0       -3.237091    1.075903    5.294296
     10          1           0       -1.797937    0.933174    4.271842
     11          8           0       -2.005412   -0.627562    1.792842
     12          6           0       -3.133414    2.543032    3.699872
     13          1           0       -4.202804    2.726160    3.568839
     14          1           0       -2.656759    2.648756    2.717067
     15          6           0       -2.606570    3.668850    4.571270
     16          8           0       -3.142686    4.743658    4.678531
     17          8           0       -1.449791    3.326430    5.183702
     18          7           0       -3.710500    0.742587    1.081225
     19          1           0       -4.569269    1.224902    1.347696
     20          6           0       -3.248766    0.981487   -0.295759
     21          1           0       -3.445154    0.078191   -0.882565
     22          6           0       -1.753635    1.273094   -0.248389
     23          6           0       -4.018590    2.184892   -0.917255
     24          1           0       -3.806049    2.174760   -1.990928
     25          1           0       -3.588905    3.107823   -0.512948
     26          8           0       -1.314607    2.081939    0.614181
     27          6           0       -5.489777    2.138740   -0.639543
     28          6           0       -6.467969    1.460675   -1.330678
     29          1           0       -6.399941    0.898307   -2.252168
     30          6           0       -6.134813    2.733267    0.508320
     31          6           0       -7.506639    2.362171    0.456292
     32          6           0       -5.688802    3.561182    1.558240
     33          1           0       -4.661768    3.915758    1.588115
     34          7           0       -7.672374    1.588216   -0.675046
     35          1           0       -8.556904    1.246613   -1.021654
     36          6           0       -7.949753    3.564496    2.468037
     37          1           0       -8.639371    3.902600    3.235411
     38          6           0       -8.425140    2.771328    1.429307
     39          1           0       -9.472040    2.487814    1.372349
     40          6           0       -6.596432    3.961856    2.531740
     41          1           0       -6.260138    4.606009    3.339001
     42          7           0       -0.984349    0.612841   -1.094797
     43          1           0       -1.314463   -0.117910   -1.748597
     44          6           0        0.457567    0.775804   -1.250766
     45          1           0        0.713152    1.834650   -1.355270
     46          6           0        0.769374   -0.056677   -2.548075
     47          6           0        1.245966    0.147124   -0.082949
     48          1           0        1.143438   -0.940941   -0.100232
     49          8           0       -0.074688   -0.912684   -2.863176
     50          6           0        2.664353    0.603956    0.095119
     51          1           0        3.289531    0.294467   -0.765885
     52          1           0        3.086313    0.160132    1.000613
     53          1           0        2.715561    1.695761    0.171933
     54          8           0        0.500294    0.519024    1.250647
     55          1           0       -0.064512    1.390440    1.082592
     56          7           0        1.922627    0.212435   -3.124697
     57          1           0        2.650190    0.789212   -2.648581
     58          6           0        2.693490   -0.727115   -3.954767
     59          1           0        2.254411   -1.724331   -3.857831
     60          6           0        4.137009   -0.704061   -3.294058
     61          6           0        2.715039   -0.306459   -5.432049
     62          1           0        3.294900    0.623004   -5.525425
     63          1           0        1.688347   -0.073969   -5.748507
     64          8           0        4.296007    0.239306   -2.442548
     65          6           0        3.300848   -1.393939   -6.339497
     66          1           0        4.264742   -1.716019   -5.932680
     67          1           0        2.639075   -2.270342   -6.333200
     68          6           0        3.469247   -0.918669   -7.786107
     69          1           0        2.514445   -0.557659   -8.180459
     70          1           0        4.167958   -0.074022   -7.829239
     71          7           0        3.984447   -1.958080   -8.688549
     72          1           0        4.922226   -2.248449   -8.431828
     73          7           0        1.860855   -2.720889   -9.316125
     74          1           0        1.384427   -3.525072   -9.710087
     75          1           0        1.770351   -1.907774   -9.917447
     76          7           0        3.557489   -4.285859   -9.133974
     77          1           0        4.501830   -4.419490   -8.766506
     78          6           0        3.192108   -3.059141   -9.034604
     79          8           0        4.930682   -1.565094   -3.673596
     80          1           0       -1.150473    4.100811    5.699218
     81          1           0       -0.217081   -0.137965    1.430228
 ---------------------------------------------------------------------

 SCF Done:  E(RB3LYP) =  -2053.90572045     A.U. after    1 cycles

 Alpha  occ. eigenvalues --  -19.37919 -19.32656 -19.32063 -19.28738 -19.26111
 Alpha  occ. eigenvalues --  -19.20618 -19.10816 -19.09440 -14.66024 -14.55418
 Alpha  occ. eigenvalues --  -14.51200 -14.50078 -14.41863 -14.36301 -14.35561
 Alpha  occ. eigenvalues --  -14.29793 -10.49365 -10.45914 -10.45154 -10.44776
 Alpha  occ. eigenvalues --  -10.40006 -10.39982 -10.38216 -10.37610 -10.36486
 Alpha  occ. eigenvalues --  -10.34750 -10.34323 -10.33819 -10.33801 -10.30924
 Alpha  occ. eigenvalues --  -10.30710 -10.30457 -10.30347 -10.29700 -10.29544
 Alpha  occ. eigenvalues --  -10.29174 -10.28289 -10.27254 -10.25061 -10.23848
 Alpha  occ. eigenvalues --  -10.21474 -10.19590  -1.25110  -1.24155  -1.22751
 Alpha  occ. eigenvalues --   -1.19919  -1.19321  -1.13946  -1.12589  -1.11925
 Alpha  occ. eigenvalues --   -1.09966  -1.07297  -1.03757  -0.99502  -0.99151
 Alpha  occ. eigenvalues --   -0.98668  -0.95864  -0.94997  -0.94738  -0.92442
 Alpha  occ. eigenvalues --   -0.91158  -0.89963  -0.89538  -0.85479  -0.85302
 Alpha  occ. eigenvalues --   -0.84855  -0.83848  -0.82858  -0.81724  -0.79961
 Alpha  occ. eigenvalues --   -0.79428  -0.78289  -0.77290  -0.75672  -0.75226
 Alpha  occ. eigenvalues --   -0.74210  -0.74068  -0.73863  -0.72272  -0.71228
 Alpha  occ. eigenvalues --   -0.70942  -0.68767  -0.68731  -0.68420  -0.67529
 Alpha  occ. eigenvalues --   -0.67060  -0.65840  -0.65373  -0.63996  -0.63629
 Alpha  occ. eigenvalues --   -0.61947  -0.61629  -0.61170  -0.60978  -0.60611
 Alpha  occ. eigenvalues --   -0.60193  -0.60063  -0.59390  -0.59144  -0.58897
 Alpha  occ. eigenvalues --   -0.58190  -0.57295  -0.56630  -0.56224  -0.55823
 Alpha  occ. eigenvalues --   -0.55692  -0.55504  -0.54861  -0.54719  -0.54101
 Alpha  occ. eigenvalues --   -0.53209  -0.53030  -0.52815  -0.52262  -0.52177
 Alpha  occ. eigenvalues --   -0.51671  -0.51266  -0.51071  -0.50078  -0.49923
 Alpha  occ. eigenvalues --   -0.49561  -0.49198  -0.48487  -0.47944  -0.47227
 Alpha  occ. eigenvalues --   -0.46979  -0.46790  -0.46700  -0.46459  -0.45579
 Alpha  occ. eigenvalues --   -0.45209  -0.45202  -0.44873  -0.44021  -0.43318
 Alpha  occ. eigenvalues --   -0.43113  -0.42579  -0.41826  -0.41297  -0.40017
 Alpha  occ. eigenvalues --   -0.39735  -0.39617  -0.39599  -0.37930  -0.37549
 Alpha  occ. eigenvalues --   -0.36590  -0.35589  -0.35287  -0.34167  -0.32850
 Alpha  occ. eigenvalues --   -0.32397  -0.27889  -0.26976  -0.25855  -0.25695
 Alpha  occ. eigenvalues --   -0.24007  -0.23065
 Alpha virt. eigenvalues --   -0.18857  -0.15675  -0.15032  -0.13052  -0.11319
 Alpha virt. eigenvalues --   -0.10653  -0.09920  -0.09842  -0.08573  -0.07772
 Alpha virt. eigenvalues --   -0.06699  -0.05750  -0.04330  -0.03863  -0.03476

 Mulliken charges:
               1
     1  N   -0.740024
     2  H    0.430404
     3  H    0.430457
     4  H    0.428642
     5  C   -0.131178
     6  H    0.228561
     7  C    0.677467
     8  C   -0.292286
     9  H    0.191151
    10  H    0.198812
    11  O   -0.594930
    12  C   -0.410563
    13  H    0.199071
    14  H    0.226983
    15  C    0.591528
    16  O   -0.426911
    17  O   -0.567500
    18  N   -0.598459
    19  H    0.379959
    20  C   -0.014626
    21  H    0.199488
    22  C    0.624199
    23  C   -0.401034
    24  H    0.200783
    25  H    0.202569
    26  O   -0.610520
    27  C    0.034177
    28  C    0.016583
    29  H    0.182632
    30  C    0.030824
    31  C    0.320155
    32  C   -0.245896
    33  H    0.151723
    34  N   -0.680894
    35  H    0.352941
    36  C   -0.154646
    37  H    0.158670
    38  C   -0.155909
    39  H    0.156439
    40  C   -0.149074
    41  H    0.165640
    42  N   -0.599106
    43  H    0.387435
    44  C   -0.102198
    45  H    0.208446
    46  C    0.600746
    47  C    0.065048
    48  H    0.208941
    49  O   -0.554053
    50  C   -0.496947
    51  H    0.283926
    52  H    0.178335
    53  H    0.166853
    54  O   -0.667780
    55  H    0.483843
    56  N   -0.577618
    57  H    0.358041
    58  C   -0.095815
    59  H    0.162544
    60  C    0.587059
    61  C   -0.255613
    62  H    0.138879
    63  H    0.130429
    64  O   -0.613999
    65  C   -0.276869
    66  H    0.185940
    67  H    0.149175
    68  C   -0.144007
    69  H    0.142401
    70  H    0.145071
    71  N   -0.582371
    72  H    0.312576
    73  N   -0.736887
    74  H    0.331583
    75  H    0.317499
    76  N   -0.638854
    77  H    0.264716
    78  C    0.546663
    79  O   -0.531662
    80  H    0.435640
    81  H    0.476578
 Sum of Mulliken charges =   1.00000

 Dipole moment (field-independent basis, Debye):
    X=            -32.7916    Y=              4.1191    Z=             23.6950  Tot=             40.6659
 Quadrupole moment (field-independent basis, Debye-Ang):
   XX=           -152.3855   YY=           -255.8931   ZZ=           -193.8191
   XY=             21.5907   XZ=             -8.4544   YZ=            -49.2798

 Normal termination of Gaussian 16 at Sun May 15 01:26:27 2022.
