 Gaussian 16, Revision C.01,
 Gaussian 16:  ES64L-G16RevC.01  3-Jul-2019

 ----------------------------------------------------------------------
 # B3LYP/6-31G* empiricaldispersion=gd3 guess=read geom=check nosymm in
 tegral(ultrafinegrid)
 ----------------------------------------------------------------------

 ------------------------------------------------------
 Candidate Structure: Conf:962 Charge calc in gas phase
 ------------------------------------------------------
 Structure from the checkpoint file:  "conf-962.chk"
 Charge =  1 Multiplicity = 1

                          Input orientation:
 ---------------------------------------------------------------------
 Center     Atomic      Atomic             Coordinates (Angstroms)
 Number     Number       Type             X           Y           Z
 ---------------------------------------------------------------------
      1          7           0       -6.146712    0.511506    3.413552
      2          1           0       -6.716228    0.794179    2.591156
      3          1           0       -5.946470   -0.498224    3.328061
      4          1           0       -6.691161    0.750308    4.249829
      5          6           0       -4.818355    1.226937    3.392153
      6          1           0       -5.036740    2.265275    3.135344
      7          6           0       -4.033231    0.484140    2.288365
      8          6           0       -4.066380    1.107750    4.727793
      9          1           0       -3.687046    0.084481    4.822854
     10          1           0       -3.193563    1.764187    4.642790
     11          8           0       -4.165169   -0.739251    2.230555
     12          6           0       -4.845538    1.462673    6.016907
     13          1           0       -4.128862    1.560534    6.834768
     14          1           0       -5.541465    0.659251    6.284212
     15          6           0       -5.611741    2.765769    5.919735
     16          8           0       -5.258363    3.844531    6.311871
     17          8           0       -6.806457    2.569232    5.263216
     18          7           0       -3.280579    1.242354    1.485018
     19          1           0       -3.151936    2.239764    1.642725
     20          6           0       -2.554790    0.737420    0.327733
     21          1           0       -2.228094   -0.284326    0.541125
     22          6           0       -1.367809    1.693836    0.123875
     23          6           0       -3.448349    0.744315   -0.954150
     24          1           0       -2.862475    0.312421   -1.773237
     25          1           0       -3.642796    1.790130   -1.222719
     26          8           0       -1.400189    2.831545    0.597937
     27          6           0       -4.736275    0.002619   -0.770089
     28          6           0       -4.964991   -1.329811   -1.009006
     29          1           0       -4.314334   -2.070837   -1.452709
     30          6           0       -5.937196    0.515377   -0.162612
     31          6           0       -6.848716   -0.576108   -0.041074
     32          6           0       -6.329751    1.780552    0.308059
     33          1           0       -5.665911    2.634720    0.206627
     34          7           0       -6.224994   -1.680991   -0.570811
     35          1           0       -6.642360   -2.593430   -0.678939
     36          6           0       -8.468009    0.826036    1.018281
     37          1           0       -9.447134    0.972020    1.464896
     38          6           0       -8.109974   -0.436369    0.547787
     39          1           0       -8.792304   -1.277783    0.628055
     40          6           0       -7.586843    1.928417    0.895552
     41          1           0       -7.908740    2.907256    1.240249
     42          7           0       -0.370234    1.220796   -0.642393
     43          1           0       -0.367902    0.275261   -1.018480
     44          6           0        0.743830    2.032397   -1.092181
     45          1           0        0.383454    3.030147   -1.363382
     46          6           0        1.348506    1.303382   -2.302418
     47          6           0        1.807041    2.206588    0.027407
     48          1           0        1.312479    2.765761    0.831814
     49          8           0        1.164109    0.096440   -2.451253
     50          6           0        2.374743    0.893982    0.557791
     51          1           0        1.580744    0.270485    0.980118
     52          1           0        3.100527    1.095692    1.353520
     53          1           0        2.879825    0.330803   -0.231975
     54          8           0        2.839461    3.022379   -0.560295
     55          1           0        3.918166    1.896799   -1.780766
     56          7           0        2.126065    2.056415   -3.115351
     57          1           0        2.254718    3.033700   -2.881640
     58          6           0        3.055288    1.448471   -4.066459
     59          1           0        2.540269    0.620456   -4.558633
     60          6           0        4.287841    0.832206   -3.370255
     61          6           0        3.480434    2.510197   -5.099278
     62          1           0        4.095821    3.275075   -4.606422
     63          1           0        2.568634    3.017867   -5.432645
     64          8           0        4.990960    0.033763   -3.938263
     65          6           0        4.229394    1.944457   -6.312189
     66          1           0        5.102576    1.370268   -5.985365
     67          1           0        3.576326    1.235496   -6.841604
     68          6           0        4.689253    3.038862   -7.289452
     69          1           0        5.374298    3.722958   -6.781730
     70          1           0        5.252242    2.579179   -8.109203
     71          7           0        3.603371    3.825501   -7.886048
     72          1           0        2.967373    3.264700   -8.441314
     73          7           0        3.791254    5.633135   -6.412052
     74          1           0        3.287187    6.446228   -6.074683
     75          1           0        4.650069    5.901266   -6.882540
     76          7           0        1.683991    5.108033   -7.214203
     77          1           0        1.163937    4.385078   -7.716125
     78          6           0        2.942649    4.843209   -7.196880
     79          8           0        4.576167    1.254478   -2.120463
     80          1           0       -7.272696    3.427883    5.237898
     81          1           0        3.445683    3.306998    0.142043
 ---------------------------------------------------------------------

 SCF Done:  E(RB3LYP) =  -2054.02957725     A.U. after    1 cycles

 Alpha  occ. eigenvalues --  -19.33100 -19.26792 -19.26044 -19.25267 -19.24266
 Alpha  occ. eigenvalues --  -19.22660 -19.21059 -19.18420 -14.58500 -14.49234
 Alpha  occ. eigenvalues --  -14.48872 -14.46603 -14.44949 -14.39688 -14.38694
 Alpha  occ. eigenvalues --  -14.33051 -10.44937 -10.42786 -10.40089 -10.39785
 Alpha  occ. eigenvalues --  -10.38039 -10.37039 -10.35205 -10.34735 -10.34099
 Alpha  occ. eigenvalues --  -10.33802 -10.33351 -10.33190 -10.32651 -10.32578
 Alpha  occ. eigenvalues --  -10.30734 -10.30665 -10.30640 -10.30511 -10.30321
 Alpha  occ. eigenvalues --  -10.30166 -10.29840 -10.28948 -10.27304 -10.26139
 Alpha  occ. eigenvalues --  -10.25501 -10.24023  -1.23190  -1.17937  -1.15109
 Alpha  occ. eigenvalues --   -1.14729  -1.14608  -1.13170  -1.12936  -1.12459
 Alpha  occ. eigenvalues --   -1.08895  -1.06793  -1.05832  -1.03200  -1.02043
 Alpha  occ. eigenvalues --   -1.01464  -0.95680  -0.95006  -0.93293  -0.91953
 Alpha  occ. eigenvalues --   -0.89265  -0.88759  -0.87975  -0.86334  -0.85509
 Alpha  occ. eigenvalues --   -0.84990  -0.83157  -0.81047  -0.79561  -0.78957
 Alpha  occ. eigenvalues --   -0.77194  -0.73958  -0.73632  -0.73049  -0.72746
 Alpha  occ. eigenvalues --   -0.72497  -0.71076  -0.70832  -0.70491  -0.69285
 Alpha  occ. eigenvalues --   -0.67789  -0.67275  -0.66579  -0.66313  -0.65049
 Alpha  occ. eigenvalues --   -0.64681  -0.64473  -0.64068  -0.63614  -0.61158
 Alpha  occ. eigenvalues --   -0.60751  -0.60234  -0.60078  -0.59908  -0.59076
 Alpha  occ. eigenvalues --   -0.58878  -0.58597  -0.58254  -0.57995  -0.57504
 Alpha  occ. eigenvalues --   -0.56619  -0.56149  -0.55882  -0.55026  -0.54792
 Alpha  occ. eigenvalues --   -0.54505  -0.54074  -0.53466  -0.53427  -0.52957
 Alpha  occ. eigenvalues --   -0.52389  -0.52103  -0.51818  -0.51536  -0.51076
 Alpha  occ. eigenvalues --   -0.51002  -0.50550  -0.50161  -0.49591  -0.49303
 Alpha  occ. eigenvalues --   -0.49084  -0.48897  -0.48677  -0.48478  -0.48415
 Alpha  occ. eigenvalues --   -0.47921  -0.47515  -0.47223  -0.46665  -0.46307
 Alpha  occ. eigenvalues --   -0.45168  -0.45077  -0.45022  -0.44914  -0.44644
 Alpha  occ. eigenvalues --   -0.43597  -0.42793  -0.42405  -0.41732  -0.40202
 Alpha  occ. eigenvalues --   -0.40063  -0.39957  -0.39919  -0.39216  -0.38551
 Alpha  occ. eigenvalues --   -0.38384  -0.36955  -0.36333  -0.36255  -0.35720
 Alpha  occ. eigenvalues --   -0.34499  -0.34027  -0.31469  -0.31246  -0.30975
 Alpha  occ. eigenvalues --   -0.30238  -0.27073
 Alpha virt. eigenvalues --   -0.12843  -0.12689  -0.11708  -0.09551  -0.08929
 Alpha virt. eigenvalues --   -0.07469  -0.07117  -0.05031  -0.04311  -0.04160
 Alpha virt. eigenvalues --   -0.03814  -0.02698  -0.01758  -0.01513  -0.01236

 Mulliken charges:
               1
     1  N   -0.763179
     2  H    0.425551
     3  H    0.412270
     4  H    0.418707
     5  C   -0.115161
     6  H    0.200191
     7  C    0.662481
     8  C   -0.297882
     9  H    0.203651
    10  H    0.206916
    11  O   -0.536243
    12  C   -0.372846
    13  H    0.225720
    14  H    0.179891
    15  C    0.579437
    16  O   -0.402413
    17  O   -0.606705
    18  N   -0.606780
    19  H    0.362319
    20  C   -0.060811
    21  H    0.193163
    22  C    0.633592
    23  C   -0.365724
    24  H    0.177718
    25  H    0.174643
    26  O   -0.541360
    27  C    0.084131
    28  C    0.033147
    29  H    0.180508
    30  C    0.068825
    31  C    0.325210
    32  C   -0.232323
    33  H    0.145860
    34  N   -0.682571
    35  H    0.349322
    36  C   -0.187682
    37  H    0.157593
    38  C   -0.169478
    39  H    0.158500
    40  C   -0.203860
    41  H    0.149209
    42  N   -0.623676
    43  H    0.364719
    44  C   -0.046520
    45  H    0.192121
    46  C    0.609123
    47  C    0.114201
    48  H    0.169180
    49  O   -0.529444
    50  C   -0.478601
    51  H    0.154068
    52  H    0.159422
    53  H    0.196542
    54  O   -0.645559
    55  H    0.440015
    56  N   -0.633091
    57  H    0.355547
    58  C   -0.050822
    59  H    0.203448
    60  C    0.603890
    61  C   -0.305506
    62  H    0.156345
    63  H    0.175476
    64  O   -0.440432
    65  C   -0.271549
    66  H    0.184215
    67  H    0.134311
    68  C   -0.156713
    69  H    0.161845
    70  H    0.161587
    71  N   -0.577602
    72  H    0.311642
    73  N   -0.738802
    74  H    0.336834
    75  H    0.327639
    76  N   -0.640618
    77  H    0.261612
    78  C    0.549192
    79  O   -0.605862
    80  H    0.435130
    81  H    0.423156
 Sum of Mulliken charges =   1.00000

 Dipole moment (field-independent basis, Debye):
    X=            -23.0316    Y=              4.9593    Z=             10.0861  Tot=             25.6277
 Quadrupole moment (field-independent basis, Debye-Ang):
   XX=            -72.0312   YY=           -227.6615   ZZ=           -167.6167
   XY=             24.2881   XZ=            -81.7524   YZ=              4.1285

 Normal termination of Gaussian 16 at Sun May 15 01:27:25 2022.
