 Gaussian 16, Revision C.01,
 Gaussian 16:  ES64L-G16RevC.01  3-Jul-2019

 ----------------------------------------------------------------------
 # B3LYP/6-31G* empiricaldispersion=gd3 guess=read geom=check nosymm in
 tegral(ultrafinegrid)
 ----------------------------------------------------------------------

 -----------------------------------------------------
 Candidate Structure: Conf:12 Charge calc in gas phase
 -----------------------------------------------------
 Structure from the checkpoint file:  "conf-12.chk"
 Charge =  1 Multiplicity = 1

                          Input orientation:
 ---------------------------------------------------------------------
 Center     Atomic      Atomic             Coordinates (Angstroms)
 Number     Number       Type             X           Y           Z
 ---------------------------------------------------------------------
      1          7           0       -5.105733   -1.229022    3.058724
      2          1           0       -5.781281   -0.488389    2.752314
      3          1           0       -4.955469   -1.885659    2.275788
      4          1           0       -5.512725   -1.736088    3.851887
      5          6           0       -3.771554   -0.592155    3.384788
      6          1           0       -3.993630    0.301086    3.974001
      7          6           0       -3.170584   -0.281510    2.005481
      8          6           0       -2.831844   -1.555567    4.117937
      9          1           0       -3.270847   -1.888396    5.064265
     10          1           0       -2.698951   -2.430957    3.472243
     11          8           0       -3.048247   -1.215933    1.207825
     12          6           0       -1.459912   -0.874890    4.388817
     13          1           0       -1.489071   -0.330120    5.335285
     14          1           0       -1.192283   -0.167724    3.598266
     15          6           0       -0.356354   -1.906728    4.430234
     16          8           0        0.326200   -2.227299    3.467451
     17          8           0       -0.224294   -2.477355    5.620694
     18          7           0       -2.860405    0.987427    1.768931
     19          1           0       -2.844594    1.654766    2.529144
     20          6           0       -2.240975    1.430238    0.525508
     21          1           0       -2.485975    0.682038   -0.230374
     22          6           0       -0.732963    1.372625    0.839461
     23          6           0       -2.897641    2.770728    0.114803
     24          1           0       -2.366445    3.180440   -0.750450
     25          1           0       -2.787406    3.499365    0.927826
     26          8           0       -0.310920    1.755233    1.923899
     27          6           0       -4.338337    2.489999   -0.239309
     28          6           0       -4.794092    2.266537   -1.517332
     29          1           0       -4.288771    2.425571   -2.460417
     30          6           0       -5.417409    2.099961    0.643207
     31          6           0       -6.473010    1.607445   -0.180147
     32          6           0       -5.617575    2.099999    2.036031
     33          1           0       -4.896085    2.569859    2.698973
     34          7           0       -6.068918    1.746020   -1.486172
     35          1           0       -6.629825    1.535082   -2.298347
     36          6           0       -7.777712    0.993630    1.723906
     37          1           0       -8.682231    0.580520    2.160127
     38          6           0       -7.643843    1.046049    0.342161
     39          1           0       -8.422975    0.665105   -0.311297
     40          6           0       -6.777197    1.534618    2.568940
     41          1           0       -6.958256    1.589908    3.640494
     42          7           0       -0.009914    0.633699   -0.058199
     43          1           0       -0.220813    0.704303   -1.067457
     44          6           0        1.420254    0.389933    0.099135
     45          1           0        1.803332    0.950834    0.953557
     46          6           0        2.072553    0.780048   -1.256950
     47          6           0        1.666212   -1.137937    0.275642
     48          1           0        1.663582   -1.627868   -0.699719
     49          8           0        1.336053    0.754943   -2.255188
     50          6           0        2.837860   -1.545214    1.120898
     51          1           0        3.771201   -1.246462    0.597052
     52          1           0        2.863158   -2.631503    1.246585
     53          1           0        2.814197   -1.056354    2.101461
     54          8           0        0.375437   -1.759264    0.900869
     55          1           0        0.409525   -1.834342    1.909015
     56          7           0        3.374947    0.996494   -1.187568
     57          1           0        3.885054    0.757936   -0.314042
     58          6           0        4.345099    0.709463   -2.252373
     59          1           0        3.836189    0.188556   -3.068300
     60          6           0        5.360282   -0.288659   -1.544912
     61          6           0        5.021548    1.980389   -2.778241
     62          1           0        5.557994    2.456990   -1.946923
     63          1           0        4.237212    2.681514   -3.101153
     64          8           0        6.107817   -0.925712   -2.285540
     65          6           0        5.995204    1.708328   -3.929467
     66          1           0        6.801838    1.062548   -3.572627
     67          1           0        5.480704    1.155709   -4.728301
     68          6           0        6.577557    2.993560   -4.533134
     69          1           0        7.249535    2.734862   -5.356387
     70          1           0        5.779231    3.612197   -4.962993
     71          7           0        7.301446    3.856051   -3.586534
     72          1           0        6.677282    4.334901   -2.948196
     73          7           0        9.296056    2.645874   -3.725452
     74          1           0       10.156758    2.433853   -3.234785
     75          1           0        9.463909    3.047469   -4.641148
     76          7           0        8.749466    3.594017   -1.684586
     77          1           0        7.971086    4.021831   -1.178528
     78          6           0        8.439985    3.390136   -2.914758
     79          8           0        5.255337   -0.302028   -0.268763
     80          1           0        0.494708   -3.139509    5.578896
     81          1           0       -0.371175   -1.159149    0.635721
 ---------------------------------------------------------------------

 SCF Done:  E(RB3LYP) =  -2053.89705942     A.U. after    1 cycles

 Alpha  occ. eigenvalues --  -19.37918 -19.35983 -19.31611 -19.29813 -19.26026
 Alpha  occ. eigenvalues --  -19.19122 -19.09989 -19.08525 -14.64545 -14.53813
 Alpha  occ. eigenvalues --  -14.50935 -14.49254 -14.40397 -14.35947 -14.34773
 Alpha  occ. eigenvalues --  -14.29251 -10.49551 -10.47025 -10.44863 -10.43065
 Alpha  occ. eigenvalues --  -10.38923 -10.38684 -10.38151 -10.37282 -10.35958
 Alpha  occ. eigenvalues --  -10.35431 -10.34887 -10.34494 -10.33612 -10.33168
 Alpha  occ. eigenvalues --  -10.32593 -10.32418 -10.32334 -10.32282 -10.31581
 Alpha  occ. eigenvalues --  -10.28631 -10.27378 -10.27026 -10.24153 -10.23538
 Alpha  occ. eigenvalues --  -10.20822 -10.19079  -1.27614  -1.24289  -1.22530
 Alpha  occ. eigenvalues --   -1.18511  -1.18463  -1.17790  -1.11126  -1.10938
 Alpha  occ. eigenvalues --   -1.10516  -1.05134  -1.02892  -0.99652  -0.98198
 Alpha  occ. eigenvalues --   -0.97956  -0.97685  -0.94923  -0.93891  -0.92189
 Alpha  occ. eigenvalues --   -0.91306  -0.89584  -0.89454  -0.87276  -0.85769
 Alpha  occ. eigenvalues --   -0.84935  -0.83561  -0.83012  -0.80942  -0.79653
 Alpha  occ. eigenvalues --   -0.78344  -0.77853  -0.76991  -0.76381  -0.75815
 Alpha  occ. eigenvalues --   -0.75161  -0.74496  -0.72757  -0.72485  -0.71632
 Alpha  occ. eigenvalues --   -0.70692  -0.69193  -0.68577  -0.68361  -0.67266
 Alpha  occ. eigenvalues --   -0.66914  -0.65665  -0.64707  -0.63856  -0.62890
 Alpha  occ. eigenvalues --   -0.62816  -0.62293  -0.62037  -0.61780  -0.61499
 Alpha  occ. eigenvalues --   -0.61263  -0.60698  -0.59478  -0.59166  -0.58500
 Alpha  occ. eigenvalues --   -0.57466  -0.57198  -0.57053  -0.56614  -0.56204
 Alpha  occ. eigenvalues --   -0.55404  -0.55285  -0.55098  -0.54737  -0.54379
 Alpha  occ. eigenvalues --   -0.54244  -0.53900  -0.53578  -0.52412  -0.51929
 Alpha  occ. eigenvalues --   -0.51612  -0.51152  -0.51035  -0.50137  -0.49624
 Alpha  occ. eigenvalues --   -0.49212  -0.49055  -0.48494  -0.48198  -0.47768
 Alpha  occ. eigenvalues --   -0.47557  -0.47106  -0.46956  -0.46636  -0.46158
 Alpha  occ. eigenvalues --   -0.45544  -0.45092  -0.44299  -0.44110  -0.43843
 Alpha  occ. eigenvalues --   -0.43394  -0.41933  -0.40786  -0.40667  -0.39955
 Alpha  occ. eigenvalues --   -0.39684  -0.39525  -0.39008  -0.37288  -0.36350
 Alpha  occ. eigenvalues --   -0.36239  -0.35635  -0.35236  -0.33725  -0.33569
 Alpha  occ. eigenvalues --   -0.31604  -0.27349  -0.26222  -0.25009  -0.24857
 Alpha  occ. eigenvalues --   -0.23472  -0.22113
 Alpha virt. eigenvalues --   -0.17212  -0.16433  -0.15118  -0.13543  -0.13065
 Alpha virt. eigenvalues --   -0.11799  -0.10063  -0.09189  -0.07701  -0.07110
 Alpha virt. eigenvalues --   -0.06729  -0.05749  -0.05408  -0.04522  -0.04030

 Mulliken charges:
               1
     1  N   -0.750373
     2  H    0.419586
     3  H    0.425246
     4  H    0.417677
     5  C   -0.102895
     6  H    0.205938
     7  C    0.617619
     8  C   -0.301873
     9  H    0.197017
    10  H    0.204249
    11  O   -0.535233
    12  C   -0.379322
    13  H    0.219777
    14  H    0.210873
    15  C    0.610630
    16  O   -0.487993
    17  O   -0.517728
    18  N   -0.553048
    19  H    0.359658
    20  C   -0.079175
    21  H    0.204205
    22  C    0.601090
    23  C   -0.378471
    24  H    0.197139
    25  H    0.178730
    26  O   -0.497846
    27  C    0.052107
    28  C    0.029189
    29  H    0.191530
    30  C    0.098541
    31  C    0.322191
    32  C   -0.229936
    33  H    0.128445
    34  N   -0.675120
    35  H    0.356650
    36  C   -0.164650
    37  H    0.162134
    38  C   -0.150681
    39  H    0.166513
    40  C   -0.242045
    41  H    0.152494
    42  N   -0.673730
    43  H    0.375694
    44  C   -0.087836
    45  H    0.210056
    46  C    0.593268
    47  C    0.075501
    48  H    0.230325
    49  O   -0.553961
    50  C   -0.532976
    51  H    0.297348
    52  H    0.180431
    53  H    0.156647
    54  O   -0.670209
    55  H    0.495008
    56  N   -0.569348
    57  H    0.353986
    58  C   -0.092868
    59  H    0.157407
    60  C    0.586450
    61  C   -0.258445
    62  H    0.136948
    63  H    0.119584
    64  O   -0.532869
    65  C   -0.263641
    66  H    0.209930
    67  H    0.126441
    68  C   -0.147056
    69  H    0.149646
    70  H    0.130967
    71  N   -0.583491
    72  H    0.302901
    73  N   -0.728937
    74  H    0.337332
    75  H    0.319793
    76  N   -0.636371
    77  H    0.254543
    78  C    0.556166
    79  O   -0.616478
    80  H    0.450163
    81  H    0.458847
 Sum of Mulliken charges =   1.00000

 Dipole moment (field-independent basis, Debye):
    X=            -38.5108    Y=             -3.1884    Z=             18.3397  Tot=             42.7738
 Quadrupole moment (field-independent basis, Debye-Ang):
   XX=           -199.1790   YY=           -224.9559   ZZ=           -155.6494
   XY=              8.4939   XZ=            -38.4110   YZ=            -43.6467

 Normal termination of Gaussian 16 at Sun May 15 01:26:36 2022.
