 Gaussian 16, Revision C.01,
 Gaussian 16:  ES64L-G16RevC.01  3-Jul-2019

 ----------------------------------------------------------------------
 # B3LYP/6-31G* empiricaldispersion=gd3 guess=read geom=check nosymm in
 tegral(ultrafinegrid)
 ----------------------------------------------------------------------

 ------------------------------------------------------
 Candidate Structure: Conf:617 Charge calc in gas phase
 ------------------------------------------------------
 Structure from the checkpoint file:  "conf-617.chk"
 Charge =  1 Multiplicity = 1

                          Input orientation:
 ---------------------------------------------------------------------
 Center     Atomic      Atomic             Coordinates (Angstroms)
 Number     Number       Type             X           Y           Z
 ---------------------------------------------------------------------
      1          7           0       -3.530323   -2.139452   -0.042850
      2          1           0       -4.559881   -2.015779   -0.094136
      3          1           0       -3.176476   -2.099775   -1.006408
      4          1           0       -3.302370   -3.034014    0.447280
      5          6           0       -2.913311   -1.014114    0.749084
      6          1           0       -3.387028   -1.067373    1.732736
      7          6           0       -3.291629    0.253704   -0.030863
      8          6           0       -1.374272   -1.126831    0.845164
      9          1           0       -0.925266   -0.667290   -0.037359
     10          1           0       -1.071520   -0.505915    1.694032
     11          8           0       -3.265390    0.209664   -1.259943
     12          6           0       -0.748123   -2.532717    0.997945
     13          1           0        0.311663   -2.397743    1.223893
     14          1           0       -0.807733   -3.072307    0.044383
     15          6           0       -1.431458   -3.402981    2.023674
     16          8           0       -2.593283   -3.790028    1.912441
     17          8           0       -0.671957   -3.716323    3.069150
     18          7           0       -3.613050    1.337776    0.695746
     19          1           0       -3.753770    1.236200    1.692640
     20          6           0       -4.156164    2.556784    0.076920
     21          1           0       -4.331582    2.298836   -0.970455
     22          6           0       -3.024894    3.622007    0.151268
     23          6           0       -5.475274    2.996511    0.762532
     24          1           0       -6.112427    3.452112   -0.004638
     25          1           0       -5.240025    3.790409    1.478539
     26          8           0       -3.086224    4.610732    0.867774
     27          6           0       -6.182863    1.868296    1.465523
     28          6           0       -6.536997    1.854653    2.793123
     29          1           0       -6.453885    2.642532    3.529638
     30          6           0       -6.518388    0.559345    0.948711
     31          6           0       -7.057358   -0.196636    2.029932
     32          6           0       -6.378323   -0.063695   -0.303756
     33          1           0       -5.986170    0.483210   -1.155161
     34          7           0       -7.064179    0.623993    3.136166
     35          1           0       -7.458677    0.390520    4.034983
     36          6           0       -7.260148   -2.135864    0.653104
     37          1           0       -7.552975   -3.172261    0.513204
     38          6           0       -7.427870   -1.540096    1.898087
     39          1           0       -7.834292   -2.097513    2.737093
     40          6           0       -6.742167   -1.403905   -0.441654
     41          1           0       -6.682872   -1.876797   -1.419395
     42          7           0       -1.937933    3.237261   -0.573985
     43          1           0       -2.014010    2.340575   -1.050740
     44          6           0       -0.547196    3.560188   -0.288912
     45          1           0       -0.213601    4.444900   -0.844505
     46          6           0        0.245432    2.317571   -0.756072
     47          6           0       -0.263241    3.832277    1.225709
     48          1           0       -0.703521    4.804456    1.461232
     49          8           0       -0.329427    1.242726   -0.939940
     50          6           0       -0.802530    2.775830    2.188418
     51          1           0       -1.885141    2.858008    2.287736
     52          1           0       -0.366377    2.942931    3.179105
     53          1           0       -0.535069    1.767127    1.866533
     54          8           0        1.179806    3.913442    1.344864
     55          1           0        1.830873    2.009119    1.402998
     56          7           0        1.586987    2.432274   -0.877687
     57          1           0        2.017754    3.306932   -0.602952
     58          6           0        2.394324    1.211122   -0.864615
     59          1           0        2.124524    0.596389   -1.725915
     60          6           0        2.058707    0.361213    0.379977
     61          6           0        3.892003    1.550384   -0.896712
     62          1           0        4.447081    0.608141   -0.818330
     63          1           0        4.146120    2.137345   -0.001668
     64          8           0        2.018238   -0.846663    0.352403
     65          6           0        4.306859    2.313980   -2.159215
     66          1           0        4.076403    1.711833   -3.048335
     67          1           0        3.731836    3.242454   -2.247602
     68          6           0        5.798306    2.684013   -2.155123
     69          1           0        6.045351    3.191075   -1.216666
     70          1           0        6.420113    1.782391   -2.192249
     71          7           0        6.195843    3.538664   -3.275541
     72          1           0        6.275133    3.036408   -4.152339
     73          7           0        5.400260    5.481883   -2.236522
     74          1           0        5.111593    6.433982   -2.439396
     75          1           0        6.217183    5.478638   -1.631759
     76          7           0        5.264662    5.358931   -4.547368
     77          1           0        5.344602    4.716323   -5.337860
     78          6           0        5.609621    4.800656   -3.447230
     79          8           0        1.847791    1.034681    1.531518
     80          1           0       -1.189990   -4.293984    3.664699
     81          1           0        1.386907    4.457379    2.120609
 ---------------------------------------------------------------------

 SCF Done:  E(RB3LYP) =  -2054.03433339     A.U. after    1 cycles

 Alpha  occ. eigenvalues --  -19.32199 -19.27651 -19.27617 -19.27222 -19.24395
 Alpha  occ. eigenvalues --  -19.23160 -19.22139 -19.21742 -14.56769 -14.48768
 Alpha  occ. eigenvalues --  -14.48061 -14.46702 -14.45128 -14.40949 -14.39683
 Alpha  occ. eigenvalues --  -14.34015 -10.45083 -10.41768 -10.40508 -10.39808
 Alpha  occ. eigenvalues --  -10.38741 -10.38681 -10.35418 -10.34344 -10.34074
 Alpha  occ. eigenvalues --  -10.33414 -10.33275 -10.32348 -10.32142 -10.32049
 Alpha  occ. eigenvalues --  -10.31813 -10.29277 -10.29221 -10.29175 -10.29072
 Alpha  occ. eigenvalues --  -10.28990 -10.28804 -10.28786 -10.28682 -10.28539
 Alpha  occ. eigenvalues --  -10.27708 -10.26567  -1.23455  -1.18423  -1.17033
 Alpha  occ. eigenvalues --   -1.15377  -1.14401  -1.14077  -1.13375  -1.11356
 Alpha  occ. eigenvalues --   -1.10140  -1.08056  -1.05406  -1.03449  -1.03084
 Alpha  occ. eigenvalues --   -1.02084  -0.94495  -0.94278  -0.93096  -0.90708
 Alpha  occ. eigenvalues --   -0.90026  -0.89348  -0.88060  -0.87033  -0.85123
 Alpha  occ. eigenvalues --   -0.83846  -0.82978  -0.82130  -0.80627  -0.78220
 Alpha  occ. eigenvalues --   -0.75960  -0.74353  -0.72836  -0.72628  -0.72394
 Alpha  occ. eigenvalues --   -0.71759  -0.71104  -0.70409  -0.69901  -0.69496
 Alpha  occ. eigenvalues --   -0.69345  -0.68605  -0.66549  -0.66004  -0.65627
 Alpha  occ. eigenvalues --   -0.65420  -0.64073  -0.63218  -0.62768  -0.61622
 Alpha  occ. eigenvalues --   -0.61386  -0.60794  -0.60174  -0.60038  -0.59699
 Alpha  occ. eigenvalues --   -0.58898  -0.58767  -0.58214  -0.57580  -0.57204
 Alpha  occ. eigenvalues --   -0.56819  -0.56236  -0.55494  -0.55023  -0.54256
 Alpha  occ. eigenvalues --   -0.54159  -0.53917  -0.53578  -0.53219  -0.53043
 Alpha  occ. eigenvalues --   -0.52666  -0.52308  -0.52111  -0.51734  -0.51551
 Alpha  occ. eigenvalues --   -0.51395  -0.50649  -0.50525  -0.50002  -0.49963
 Alpha  occ. eigenvalues --   -0.49662  -0.49282  -0.48944  -0.48743  -0.48483
 Alpha  occ. eigenvalues --   -0.47756  -0.47412  -0.47332  -0.46902  -0.46832
 Alpha  occ. eigenvalues --   -0.46338  -0.45911  -0.45150  -0.44991  -0.44522
 Alpha  occ. eigenvalues --   -0.44323  -0.43848  -0.43620  -0.43070  -0.42388
 Alpha  occ. eigenvalues --   -0.41932  -0.40980  -0.40117  -0.39717  -0.39106
 Alpha  occ. eigenvalues --   -0.38707  -0.38226  -0.37530  -0.36802  -0.35444
 Alpha  occ. eigenvalues --   -0.34706  -0.34550  -0.32915  -0.32217  -0.31331
 Alpha  occ. eigenvalues --   -0.30668  -0.28304
 Alpha virt. eigenvalues --   -0.12395  -0.11893  -0.10678  -0.09729  -0.08925
 Alpha virt. eigenvalues --   -0.08184  -0.07530  -0.06014  -0.04571  -0.04302
 Alpha virt. eigenvalues --   -0.03660  -0.02987  -0.01210  -0.00740  -0.00625

 Mulliken charges:
               1
     1  N   -0.767782
     2  H    0.409683
     3  H    0.407518
     4  H    0.429750
     5  C   -0.118921
     6  H    0.197228
     7  C    0.664076
     8  C   -0.327403
     9  H    0.255766
    10  H    0.194392
    11  O   -0.542651
    12  C   -0.391043
    13  H    0.251688
    14  H    0.183822
    15  C    0.607896
    16  O   -0.503602
    17  O   -0.520335
    18  N   -0.589069
    19  H    0.344877
    20  C   -0.090903
    21  H    0.208581
    22  C    0.619737
    23  C   -0.380828
    24  H    0.186578
    25  H    0.193849
    26  O   -0.508339
    27  C    0.039080
    28  C    0.000151
    29  H    0.178250
    30  C    0.083315
    31  C    0.313539
    32  C   -0.224914
    33  H    0.160723
    34  N   -0.681412
    35  H    0.346678
    36  C   -0.154482
    37  H    0.154347
    38  C   -0.158950
    39  H    0.152650
    40  C   -0.227107
    41  H    0.152988
    42  N   -0.626327
    43  H    0.384905
    44  C   -0.010237
    45  H    0.192097
    46  C    0.589930
    47  C    0.090431
    48  H    0.197215
    49  O   -0.536664
    50  C   -0.493481
    51  H    0.160644
    52  H    0.159832
    53  H    0.177627
    54  O   -0.654685
    55  H    0.441740
    56  N   -0.610846
    57  H    0.362605
    58  C   -0.038772
    59  H    0.198013
    60  C    0.613985
    61  C   -0.316180
    62  H    0.181710
    63  H    0.145772
    64  O   -0.469099
    65  C   -0.269332
    66  H    0.145185
    67  H    0.170893
    68  C   -0.140093
    69  H    0.151874
    70  H    0.157797
    71  N   -0.576582
    72  H    0.315625
    73  N   -0.747371
    74  H    0.340272
    75  H    0.325394
    76  N   -0.621591
    77  H    0.268929
    78  C    0.538280
    79  O   -0.606822
    80  H    0.432753
    81  H    0.425154
 Sum of Mulliken charges =   1.00000

 Dipole moment (field-independent basis, Debye):
    X=            -10.2987    Y=             -1.4223    Z=              7.8994  Tot=             13.0570
 Quadrupole moment (field-independent basis, Debye-Ang):
   XX=           -138.8433   YY=           -210.3455   ZZ=           -210.6255
   XY=             30.9829   XZ=            -36.4821   YZ=             15.4254

 Normal termination of Gaussian 16 at Sun May 15 01:27:33 2022.
