 Gaussian 16, Revision C.01,
 Gaussian 16:  ES64L-G16RevC.01  3-Jul-2019

 ----------------------------------------------------------------------
 # B3LYP/6-31G* empiricaldispersion=gd3 guess=read geom=check nosymm in
 tegral(ultrafinegrid)
 ----------------------------------------------------------------------

 ------------------------------------------------------
 Candidate Structure: Conf:112 Charge calc in gas phase
 ------------------------------------------------------
 Structure from the checkpoint file:  "conf-112.chk"
 Charge =  1 Multiplicity = 1

                          Input orientation:
 ---------------------------------------------------------------------
 Center     Atomic      Atomic             Coordinates (Angstroms)
 Number     Number       Type             X           Y           Z
 ---------------------------------------------------------------------
      1          7           0       -3.821538   -1.003899   -1.402866
      2          1           0       -4.648424   -0.579879   -1.821493
      3          1           0       -2.743490   -1.231325   -2.766765
      4          1           0       -4.135939   -1.875777   -0.977308
      5          6           0       -3.326751   -0.122753   -0.337866
      6          1           0       -4.106134    0.092631    0.413056
      7          6           0       -2.877664    1.200441   -0.976046
      8          6           0       -2.127551   -0.777216    0.402522
      9          1           0       -2.433214   -1.785200    0.704656
     10          1           0       -1.293418   -0.873970   -0.297997
     11          8           0       -2.544921    1.287875   -2.156678
     12          6           0       -1.689170   -0.001341    1.661058
     13          1           0       -2.531967    0.086419    2.359996
     14          1           0       -1.364345    1.008364    1.418990
     15          6           0       -0.550102   -0.609429    2.435666
     16          8           0        0.444028    0.003336    2.802931
     17          8           0       -0.735203   -1.898031    2.727108
     18          7           0       -2.772996    2.234831   -0.100364
     19          1           0       -3.101666    2.083980    0.844635
     20          6           0       -2.006613    3.463645   -0.304677
     21          1           0       -2.195286    3.823158   -1.322677
     22          6           0       -0.499415    3.169746   -0.189355
     23          6           0       -2.458101    4.525982    0.729945
     24          1           0       -3.458505    4.857569    0.431899
     25          1           0       -1.792066    5.387240    0.636012
     26          8           0        0.197917    3.851197    0.638269
     27          6           0       -2.473748    4.029239    2.154056
     28          6           0       -1.453657    4.134730    3.072152
     29          1           0       -0.502767    4.637664    2.979432
     30          6           0       -3.523022    3.272297    2.801959
     31          6           0       -3.053379    2.928055    4.098328
     32          6           0       -4.806995    2.842583    2.411348
     33          1           0       -5.214121    3.124167    1.443066
     34          7           0       -1.792414    3.472303    4.231508
     35          1           0       -1.241038    3.462598    5.076285
     36          6           0       -5.052747    1.714631    4.559567
     37          1           0       -5.661533    1.109776    5.224320
     38          6           0       -3.802010    2.148037    4.985110
     39          1           0       -3.422983    1.894515    5.970891
     40          6           0       -5.553622    2.064789    3.288001
     41          1           0       -6.547116    1.735196    2.999655
     42          7           0        0.029435    2.177353   -0.875040
     43          1           0       -0.580334    1.613940   -1.475339
     44          6           0        1.443985    1.751528   -0.931932
     45          1           0        2.056609    2.578179   -1.308211
     46          6           0        1.423666    0.537472   -1.877531
     47          6           0        1.992969    1.225658    0.426100
     48          1           0        1.496760    0.272282    0.622294
     49          8           0        0.370622   -0.131615   -1.910376
     50          6           0        3.503121    1.086685    0.478316
     51          1           0        3.887437    0.335933   -0.220996
     52          1           0        3.790003    0.778321    1.487285
     53          1           0        3.975961    2.052211    0.266196
     54          8           0        1.578995    2.112639    1.516910
     55          1           0        0.947706    3.118647    1.097348
     56          7           0        2.530439    0.205534   -2.518471
     57          1           0        3.449529    0.640363   -2.364409
     58          6           0        2.739374   -1.187603   -2.926845
     59          1           0        2.310758   -1.806973   -2.127860
     60          6           0        4.289518   -1.424337   -2.973264
     61          6           0        2.047586   -1.550393   -4.247870
     62          1           0        2.717238   -1.331127   -5.085468
     63          1           0        1.166874   -0.905595   -4.356996
     64          8           0        4.619382   -2.503467   -3.484706
     65          6           0        1.598702   -3.018222   -4.257023
     66          1           0        2.452213   -3.672690   -4.456020
     67          1           0        1.224914   -3.282117   -3.257784
     68          6           0        0.484413   -3.304568   -5.269205
     69          1           0        0.830160   -3.147581   -6.294458
     70          1           0        0.149757   -4.344240   -5.207019
     71          7           0       -0.697423   -2.412587   -5.133009
     72          1           0       -0.552071   -1.497868   -5.541854
     73          7           0       -1.939541   -3.543267   -3.534138
     74          1           0       -2.533745   -3.549264   -2.719913
     75          1           0       -1.856865   -4.405643   -4.053034
     76          7           0       -2.065237   -1.231325   -3.668766
     77          1           0       -1.552333   -0.364196   -3.779950
     78          6           0       -1.554319   -2.376456   -4.094935
     79          8           0        4.964730   -0.478376   -2.476178
     80          1           0        0.036143   -2.209373    3.239973
     81          1           0        1.036166    1.548592    2.129745
 ---------------------------------------------------------------------

 SCF Done:  E(RB3LYP) =  -2054.00670950     A.U. after    1 cycles

 Alpha  occ. eigenvalues --  -19.33489 -19.32080 -19.30813 -19.28764 -19.25821
 Alpha  occ. eigenvalues --  -19.22249 -19.10521 -19.09461 -14.52159 -14.49961
 Alpha  occ. eigenvalues --  -14.49902 -14.48768 -14.48638 -14.48492 -14.47471
 Alpha  occ. eigenvalues --  -14.43696 -10.46672 -10.45915 -10.45083 -10.42839
 Alpha  occ. eigenvalues --  -10.39054 -10.38180 -10.37965 -10.37408 -10.37051
 Alpha  occ. eigenvalues --  -10.33854 -10.33277 -10.32754 -10.32597 -10.32555
 Alpha  occ. eigenvalues --  -10.31739 -10.29452 -10.29410 -10.29299 -10.29289
 Alpha  occ. eigenvalues --  -10.28667 -10.28546 -10.28412 -10.27330 -10.26678
 Alpha  occ. eigenvalues --  -10.25829 -10.24895  -1.24884  -1.23201  -1.18319
 Alpha  occ. eigenvalues --   -1.17761  -1.15598  -1.14158  -1.13523  -1.08756
 Alpha  occ. eigenvalues --   -1.08600  -1.06610  -1.04956  -1.03868  -1.03020
 Alpha  occ. eigenvalues --   -1.00987  -1.00240  -0.95022  -0.94504  -0.94127
 Alpha  occ. eigenvalues --   -0.92610  -0.91490  -0.88669  -0.87114  -0.85519
 Alpha  occ. eigenvalues --   -0.84500  -0.83990  -0.82413  -0.81345  -0.78888
 Alpha  occ. eigenvalues --   -0.77801  -0.76587  -0.75265  -0.74545  -0.73824
 Alpha  occ. eigenvalues --   -0.73152  -0.72821  -0.72271  -0.71333  -0.70970
 Alpha  occ. eigenvalues --   -0.69566  -0.68732  -0.67833  -0.67518  -0.66640
 Alpha  occ. eigenvalues --   -0.66015  -0.65312  -0.64666  -0.64560  -0.64191
 Alpha  occ. eigenvalues --   -0.62842  -0.62654  -0.62450  -0.61798  -0.61617
 Alpha  occ. eigenvalues --   -0.60714  -0.59989  -0.59787  -0.59130  -0.58362
 Alpha  occ. eigenvalues --   -0.58150  -0.57834  -0.57508  -0.57026  -0.55735
 Alpha  occ. eigenvalues --   -0.55164  -0.54743  -0.54543  -0.54287  -0.53931
 Alpha  occ. eigenvalues --   -0.53878  -0.53614  -0.53352  -0.53023  -0.52723
 Alpha  occ. eigenvalues --   -0.52497  -0.52208  -0.51763  -0.51274  -0.50770
 Alpha  occ. eigenvalues --   -0.50609  -0.50133  -0.49782  -0.49746  -0.49308
 Alpha  occ. eigenvalues --   -0.48664  -0.48200  -0.47970  -0.47479  -0.46314
 Alpha  occ. eigenvalues --   -0.45835  -0.45717  -0.45500  -0.44871  -0.44360
 Alpha  occ. eigenvalues --   -0.44022  -0.43834  -0.42390  -0.42279  -0.41761
 Alpha  occ. eigenvalues --   -0.41743  -0.41481  -0.40824  -0.40207  -0.39977
 Alpha  occ. eigenvalues --   -0.39780  -0.39159  -0.38293  -0.38161  -0.37424
 Alpha  occ. eigenvalues --   -0.36399  -0.34370  -0.32966  -0.31064  -0.25613
 Alpha  occ. eigenvalues --   -0.25326  -0.23829
 Alpha virt. eigenvalues --   -0.16363  -0.13607  -0.12153  -0.11626  -0.10351
 Alpha virt. eigenvalues --   -0.09079  -0.08299  -0.08125  -0.05634  -0.05404
 Alpha virt. eigenvalues --   -0.04709  -0.03659  -0.02794  -0.02330  -0.01911

 Mulliken charges:
               1
     1  N   -0.772687
     2  H    0.352175
     3  H    0.432699
     4  H    0.332205
     5  C   -0.070338
     6  H    0.165992
     7  C    0.610627
     8  C   -0.306527
     9  H    0.175898
    10  H    0.217378
    11  O   -0.528990
    12  C   -0.383902
    13  H    0.213554
    14  H    0.164816
    15  C    0.614266
    16  O   -0.498039
    17  O   -0.530058
    18  N   -0.620358
    19  H    0.374841
    20  C   -0.054236
    21  H    0.220054
    22  C    0.624173
    23  C   -0.366480
    24  H    0.185710
    25  H    0.196599
    26  O   -0.589227
    27  C    0.023363
    28  C    0.014794
    29  H    0.180788
    30  C    0.045904
    31  C    0.315754
    32  C   -0.237400
    33  H    0.139506
    34  N   -0.683938
    35  H    0.347954
    36  C   -0.154873
    37  H    0.153305
    38  C   -0.163119
    39  H    0.151123
    40  C   -0.141295
    41  H    0.145274
    42  N   -0.621717
    43  H    0.422371
    44  C   -0.059003
    45  H    0.207893
    46  C    0.578383
    47  C    0.095186
    48  H    0.175335
    49  O   -0.582318
    50  C   -0.473106
    51  H    0.224637
    52  H    0.180816
    53  H    0.173623
    54  O   -0.700739
    55  H    0.505798
    56  N   -0.584727
    57  H    0.363562
    58  C   -0.071072
    59  H    0.138750
    60  C    0.586996
    61  C   -0.244352
    62  H    0.173548
    63  H    0.085723
    64  O   -0.565635
    65  C   -0.264285
    66  H    0.212590
    67  H    0.133894
    68  C   -0.180001
    69  H    0.189422
    70  H    0.160572
    71  N   -0.583643
    72  H    0.354047
    73  N   -0.750659
    74  H    0.358719
    75  H    0.379774
    76  N   -0.790001
    77  H    0.375021
    78  C    0.793590
    79  O   -0.607194
    80  H    0.440431
    81  H    0.470485
 Sum of Mulliken charges =   1.00000

 Dipole moment (field-independent basis, Debye):
    X=            -20.8354    Y=              2.1182    Z=              3.5375  Tot=             21.2395
 Quadrupole moment (field-independent basis, Debye-Ang):
   XX=           -259.4291   YY=           -191.0190   ZZ=           -179.0377
   XY=             34.2688   XZ=             37.7060   YZ=             21.9865

 Normal termination of Gaussian 16 at Sun May 15 01:26:49 2022.
