 Gaussian 16, Revision C.01,
 Gaussian 16:  ES64L-G16RevC.01  3-Jul-2019

 ----------------------------------------------------------------------
 # B3LYP/6-31G* empiricaldispersion=gd3 guess=read geom=check nosymm in
 tegral(ultrafinegrid)
 ----------------------------------------------------------------------

 ------------------------------------------------------
 Candidate Structure: Conf:156 Charge calc in gas phase
 ------------------------------------------------------
 Structure from the checkpoint file:  "conf-156.chk"
 Charge =  1 Multiplicity = 1

                          Input orientation:
 ---------------------------------------------------------------------
 Center     Atomic      Atomic             Coordinates (Angstroms)
 Number     Number       Type             X           Y           Z
 ---------------------------------------------------------------------
      1          7           0       -5.777251    0.958673    0.686449
      2          1           0       -6.241463    1.683853    0.103500
      3          1           0       -5.437741    0.199583    0.059911
      4          1           0       -6.460509    0.587731    1.352190
      5          6           0       -4.525906    1.488126    1.354723
      6          1           0       -4.684839    2.556849    1.509839
      7          6           0       -3.424554    1.204554    0.305827
      8          6           0       -4.225176    0.753418    2.662581
      9          1           0       -4.089402   -0.315222    2.455210
     10          1           0       -3.256406    1.108834    3.028472
     11          8           0       -3.536589    0.204514   -0.399992
     12          6           0       -5.267993    0.966940    3.764550
     13          1           0       -6.216174    0.448009    3.575225
     14          1           0       -5.514790    2.031836    3.877367
     15          6           0       -4.729626    0.486208    5.107384
     16          8           0       -3.561260    0.272600    5.334173
     17          8           0       -5.722870    0.358655    6.002876
     18          7           0       -2.407330    2.086949    0.271034
     19          1           0       -2.477579    2.934090    0.823710
     20          6           0       -1.451836    2.126168   -0.837209
     21          1           0       -1.384823    1.128415   -1.271838
     22          6           0       -0.098045    2.562505   -0.349493
     23          6           0       -1.937676    3.096026   -1.961008
     24          1           0       -1.171190    3.067841   -2.733653
     25          1           0       -1.993559    4.116000   -1.562171
     26          8           0       -0.101069    3.600990    0.447707
     27          6           0       -3.252483    2.626857   -2.498104
     28          6           0       -3.406629    1.653374   -3.458410
     29          1           0       -2.614900    1.146456   -4.002629
     30          6           0       -4.564293    2.926775   -1.993027
     31          6           0       -5.481231    2.080772   -2.692832
     32          6           0       -5.066039    3.804275   -1.014658
     33          1           0       -4.399369    4.489664   -0.496412
     34          7           0       -4.740145    1.330712   -3.578348
     35          1           0       -5.117156    0.676198   -4.248581
     36          6           0       -7.316116    2.936027   -1.415211
     37          1           0       -8.378184    2.969518   -1.190326
     38          6           0       -6.852242    2.076136   -2.415080
     39          1           0       -7.536849    1.431474   -2.959399
     40          6           0       -6.430029    3.800669   -0.727358
     41          1           0       -6.828313    4.489126    0.012711
     42          7           0        0.958305    1.960958   -0.790304
     43          1           0        0.897170    1.055550   -1.321124
     44          6           0        2.390383    2.313854   -0.738700
     45          1           0        2.527965    3.298515   -1.196366
     46          6           0        2.986713    1.176258   -1.641334
     47          6           0        2.989367    2.330704    0.677812
     48          1           0        2.766498    1.372332    1.165145
     49          8           0        2.244381    0.182049   -1.797199
     50          6           0        4.484192    2.622928    0.714200
     51          1           0        5.063208    1.834373    0.226536
     52          1           0        4.815388    2.688179    1.757384
     53          1           0        4.708361    3.571993    0.218675
     54          8           0        2.275994    3.387233    1.381363
     55          1           0        0.791462    3.683214    0.905852
     56          7           0        4.162180    1.406515   -2.153429
     57          1           0        4.852482    2.225265   -1.988550
     58          6           0        4.929411    0.556396   -3.067493
     59          1           0        5.196536   -0.378398   -2.558809
     60          6           0        6.261672    1.406359   -3.260816
     61          6           0        4.177601    0.239868   -4.380744
     62          1           0        4.897831    0.253517   -5.204367
     63          1           0        3.461894    1.057697   -4.544954
     64          8           0        7.060129    0.997624   -4.098598
     65          6           0        3.439475   -1.107242   -4.340490
     66          1           0        4.168488   -1.917107   -4.485795
     67          1           0        2.979062   -1.241536   -3.360385
     68          6           0        2.341286   -1.250976   -5.396274
     69          1           0        2.731438   -1.101497   -6.409164
     70          1           0        1.924267   -2.265816   -5.381650
     71          7           0        1.241221   -0.279065   -5.241728
     72          1           0        1.431453    0.619581   -5.663938
     73          7           0        0.164154   -1.360349   -3.477586
     74          1           0       -0.560329   -1.295640   -2.777102
     75          1           0        0.192193   -2.229517   -3.990745
     76          7           0       -0.184750    0.907677   -3.744682
     77          1           0        0.196724    1.703068   -4.261407
     78          6           0        0.408481   -0.185968   -4.150929
     79          8           0        6.298712    2.427544   -2.486326
     80          1           0       -5.325685    0.082172    6.852242
     81          1           0        2.605905    3.466183    2.291543
 ---------------------------------------------------------------------

 SCF Done:  E(RB3LYP) =  -2053.95064556     A.U. after    2 cycles

 Alpha  occ. eigenvalues --  -19.33757 -19.31339 -19.29708 -19.28264 -19.25944
 Alpha  occ. eigenvalues --  -19.19723 -19.09951 -19.08256 -14.60702 -14.52359
 Alpha  occ. eigenvalues --  -14.51591 -14.49985 -14.42172 -14.41999 -14.40430
 Alpha  occ. eigenvalues --  -14.36573 -10.46265 -10.45544 -10.44466 -10.42064
 Alpha  occ. eigenvalues --  -10.38067 -10.36767 -10.36492 -10.36329 -10.35420
 Alpha  occ. eigenvalues --  -10.35385 -10.34825 -10.34631 -10.33042 -10.32076
 Alpha  occ. eigenvalues --  -10.32060 -10.31856 -10.31629 -10.31526 -10.31249
 Alpha  occ. eigenvalues --  -10.29776 -10.28264 -10.27263 -10.27036 -10.24730
 Alpha  occ. eigenvalues --  -10.22139 -10.22049  -1.24402  -1.22374  -1.20731
 Alpha  occ. eigenvalues --   -1.16002  -1.15135  -1.13638  -1.12390  -1.09936
 Alpha  occ. eigenvalues --   -1.09067  -1.07791  -1.05134  -1.02939  -0.97951
 Alpha  occ. eigenvalues --   -0.97000  -0.96508  -0.95890  -0.94097  -0.93898
 Alpha  occ. eigenvalues --   -0.91690  -0.91260  -0.89817  -0.88057  -0.86398
 Alpha  occ. eigenvalues --   -0.85045  -0.83251  -0.82639  -0.80726  -0.79364
 Alpha  occ. eigenvalues --   -0.77546  -0.76286  -0.75328  -0.74829  -0.74586
 Alpha  occ. eigenvalues --   -0.73871  -0.73596  -0.72061  -0.71932  -0.71715
 Alpha  occ. eigenvalues --   -0.70023  -0.69118  -0.68425  -0.67392  -0.66017
 Alpha  occ. eigenvalues --   -0.65182  -0.64929  -0.63940  -0.63575  -0.62823
 Alpha  occ. eigenvalues --   -0.62685  -0.61679  -0.61348  -0.60882  -0.60542
 Alpha  occ. eigenvalues --   -0.59702  -0.59686  -0.59441  -0.59082  -0.58096
 Alpha  occ. eigenvalues --   -0.57462  -0.56898  -0.56275  -0.55906  -0.55490
 Alpha  occ. eigenvalues --   -0.55486  -0.54749  -0.54641  -0.54529  -0.54272
 Alpha  occ. eigenvalues --   -0.53238  -0.52979  -0.52706  -0.52230  -0.52046
 Alpha  occ. eigenvalues --   -0.51754  -0.51404  -0.51059  -0.50354  -0.50191
 Alpha  occ. eigenvalues --   -0.49923  -0.49813  -0.49477  -0.49312  -0.48558
 Alpha  occ. eigenvalues --   -0.48234  -0.47674  -0.46857  -0.46456  -0.46375
 Alpha  occ. eigenvalues --   -0.45882  -0.45695  -0.44754  -0.43587  -0.43151
 Alpha  occ. eigenvalues --   -0.42990  -0.42742  -0.42438  -0.41563  -0.41319
 Alpha  occ. eigenvalues --   -0.40154  -0.40000  -0.39681  -0.39194  -0.38030
 Alpha  occ. eigenvalues --   -0.37383  -0.36443  -0.35490  -0.35287  -0.34580
 Alpha  occ. eigenvalues --   -0.32668  -0.32370  -0.31370  -0.29726  -0.25198
 Alpha  occ. eigenvalues --   -0.24633  -0.22400
 Alpha virt. eigenvalues --   -0.15790  -0.14787  -0.14131  -0.11549  -0.10690
 Alpha virt. eigenvalues --   -0.10142  -0.07732  -0.06038  -0.05351  -0.05136
 Alpha virt. eigenvalues --   -0.04936  -0.03574  -0.03043  -0.02844  -0.02607

 Mulliken charges:
               1
     1  N   -0.766681
     2  H    0.424759
     3  H    0.422333
     4  H    0.405462
     5  C   -0.112881
     6  H    0.195561
     7  C    0.665522
     8  C   -0.289821
     9  H    0.197238
    10  H    0.215935
    11  O   -0.520087
    12  C   -0.387664
    13  H    0.176912
    14  H    0.200069
    15  C    0.600358
    16  O   -0.437905
    17  O   -0.553477
    18  N   -0.599754
    19  H    0.355665
    20  C   -0.060195
    21  H    0.237059
    22  C    0.622145
    23  C   -0.353948
    24  H    0.207056
    25  H    0.168143
    26  O   -0.599095
    27  C    0.031804
    28  C    0.048270
    29  H    0.220948
    30  C    0.066828
    31  C    0.322356
    32  C   -0.232108
    33  H    0.138145
    34  N   -0.683000
    35  H    0.351466
    36  C   -0.210289
    37  H    0.163477
    38  C   -0.171304
    39  H    0.163290
    40  C   -0.190005
    41  H    0.156224
    42  N   -0.581013
    43  H    0.434656
    44  C   -0.083272
    45  H    0.207312
    46  C    0.613429
    47  C    0.134509
    48  H    0.164408
    49  O   -0.575362
    50  C   -0.480432
    51  H    0.218769
    52  H    0.158018
    53  H    0.195693
    54  O   -0.679517
    55  H    0.479473
    56  N   -0.625507
    57  H    0.394653
    58  C   -0.065237
    59  H    0.159432
    60  C    0.589985
    61  C   -0.262719
    62  H    0.185145
    63  H    0.098735
    64  O   -0.547983
    65  C   -0.281347
    66  H    0.146017
    67  H    0.192494
    68  C   -0.163919
    69  H    0.165134
    70  H    0.142074
    71  N   -0.589555
    72  H    0.326086
    73  N   -0.727616
    74  H    0.329446
    75  H    0.339114
    76  N   -0.760983
    77  H    0.266492
    78  C    0.661924
    79  O   -0.634827
    80  H    0.434745
    81  H    0.432735
 Sum of Mulliken charges =   1.00000

 Dipole moment (field-independent basis, Debye):
    X=            -34.2104    Y=              7.0863    Z=              8.3842  Tot=             35.9286
 Quadrupole moment (field-independent basis, Debye-Ang):
   XX=           -194.5400   YY=           -213.6813   ZZ=           -196.9110
   XY=            -41.1970   XZ=             37.4452   YZ=             29.8344

 Normal termination of Gaussian 16 at Sun May 15 01:27:11 2022.
