 Gaussian 16, Revision C.01,
 Gaussian 16:  ES64L-G16RevC.01  3-Jul-2019

 ----------------------------------------------------------------------
 # B3LYP/6-31G* empiricaldispersion=gd3 guess=read geom=check nosymm in
 tegral(ultrafinegrid)
 ----------------------------------------------------------------------

 ------------------------------------------------------
 Candidate Structure: Conf:684 Charge calc in gas phase
 ------------------------------------------------------
 Structure from the checkpoint file:  "conf-684.chk"
 Charge =  1 Multiplicity = 1

                          Input orientation:
 ---------------------------------------------------------------------
 Center     Atomic      Atomic             Coordinates (Angstroms)
 Number     Number       Type             X           Y           Z
 ---------------------------------------------------------------------
      1          7           0       -1.745126    2.648188    3.341868
      2          1           0       -1.697277    3.561012    3.802417
      3          1           0       -0.952445    2.068065    3.640303
      4          1           0       -1.641683    2.727419    2.284278
      5          6           0       -3.049312    1.889382    3.620194
      6          1           0       -2.956902    1.460074    4.620330
      7          6           0       -2.891846    0.778954    2.556547
      8          6           0       -4.247497    2.821173    3.499492
      9          1           0       -4.217681    3.351591    2.540398
     10          1           0       -5.151084    2.201713    3.477728
     11          8           0       -1.915681    0.042894    2.662753
     12          6           0       -4.392356    3.832859    4.640121
     13          1           0       -3.544443    4.527843    4.712998
     14          1           0       -4.460278    3.334417    5.614972
     15          6           0       -5.649033    4.669235    4.443243
     16          8           0       -6.430608    4.519509    3.530963
     17          8           0       -5.771676    5.589732    5.413922
     18          7           0       -3.649327    0.897407    1.448192
     19          1           0       -4.496515    1.453770    1.440058
     20          6           0       -3.082274    0.572866    0.151699
     21          1           0       -2.961682   -0.510722    0.059442
     22          6           0       -1.710895    1.275993    0.036983
     23          6           0       -4.024504    1.109487   -0.965692
     24          1           0       -3.662483    0.706573   -1.918914
     25          1           0       -3.909393    2.199765   -1.015160
     26          8           0       -1.446777    2.330366    0.654000
     27          6           0       -5.457307    0.758743   -0.722606
     28          6           0       -6.468333    1.639906   -0.405339
     29          1           0       -6.448929    2.720634   -0.348586
     30          6           0       -6.034468   -0.561809   -0.699034
     31          6           0       -7.407385   -0.407647   -0.367148
     32          6           0       -5.528091   -1.853055   -0.929645
     33          1           0       -4.485324   -2.001452   -1.199230
     34          7           0       -7.638081    0.944381   -0.188815
     35          1           0       -8.538214    1.363090   -0.009397
     36          6           0       -7.747527   -2.761193   -0.494515
     37          1           0       -8.394893   -3.630213   -0.423858
     38          6           0       -8.277387   -1.497684   -0.262087
     39          1           0       -9.325857   -1.362777   -0.011963
     40          6           0       -6.387128   -2.938653   -0.825485
     41          1           0       -6.011551   -3.941595   -1.005181
     42          7           0       -0.858901    0.724756   -0.825075
     43          1           0       -1.048975   -0.180587   -1.250727
     44          6           0        0.488312    1.216128   -1.069579
     45          1           0        0.444043    2.286748   -1.290751
     46          6           0        1.029636    0.423279   -2.260886
     47          6           0        1.437462    1.002420    0.172718
     48          1           0        1.205521    1.803173    0.881472
     49          8           0        0.672634   -0.738872   -2.442722
     50          6           0        1.241144   -0.358650    0.839022
     51          1           0        0.253881   -0.451216    1.300459
     52          1           0        1.997563   -0.479805    1.620553
     53          1           0        1.358628   -1.167772    0.108356
     54          8           0        2.789177    1.205828   -0.216180
     55          1           0        3.170800    0.361116   -0.514299
     56          7           0        1.932100    1.087807   -3.029202
     57          1           0        2.232858    1.994223   -2.688055
     58          6           0        2.924051    0.368368   -3.842929
     59          1           0        2.633057   -0.683364   -3.831333
     60          6           0        4.222481    0.481862   -3.034565
     61          6           0        3.011857    0.893473   -5.276847
     62          1           0        3.225264    1.968942   -5.256657
     63          1           0        2.023990    0.766580   -5.737462
     64          8           0        4.625243   -0.346160   -2.249080
     65          6           0        4.088285    0.167064   -6.091806
     66          1           0        5.071474    0.320712   -5.631383
     67          1           0        3.893872   -0.914858   -6.092575
     68          6           0        4.163781    0.671213   -7.540821
     69          1           0        3.211437    0.499247   -8.056555
     70          1           0        4.325074    1.753884   -7.539908
     71          7           0        5.212595    0.033105   -8.339905
     72          1           0        4.981896   -0.917223   -8.607474
     73          7           0        6.895217    1.435956   -7.513376
     74          1           0        7.901497    1.500223   -7.397191
     75          1           0        6.551620    2.182682   -8.110540
     76          7           0        7.469067   -0.749080   -8.029859
     77          1           0        7.073606   -1.666521   -8.245461
     78          6           0        6.562182    0.154959   -7.976227
     79          8           0        4.791966    1.696349   -3.210560
     80          1           0       -6.594377    6.090626    5.249414
     81          1           0        5.566394    1.770092   -2.614716
 ---------------------------------------------------------------------

 SCF Done:  E(RB3LYP) =  -2054.00762493     A.U. after    1 cycles

 Alpha  occ. eigenvalues --  -19.30555 -19.28245 -19.25519 -19.25236 -19.25085
 Alpha  occ. eigenvalues --  -19.23609 -19.22571 -19.22003 -14.59108 -14.49013
 Alpha  occ. eigenvalues --  -14.48264 -14.46645 -14.46023 -14.39648 -14.38268
 Alpha  occ. eigenvalues --  -14.32678 -10.43681 -10.42809 -10.41606 -10.40607
 Alpha  occ. eigenvalues --  -10.40342 -10.38918 -10.35735 -10.34240 -10.33883
 Alpha  occ. eigenvalues --  -10.33766 -10.33691 -10.32133 -10.32086 -10.31252
 Alpha  occ. eigenvalues --  -10.30870 -10.30137 -10.27926 -10.27756 -10.26765
 Alpha  occ. eigenvalues --  -10.26636 -10.26613 -10.26514 -10.26111 -10.26070
 Alpha  occ. eigenvalues --  -10.25731 -10.24990  -1.21621  -1.18927  -1.18511
 Alpha  occ. eigenvalues --   -1.16032  -1.13892  -1.13170  -1.12865  -1.11089
 Alpha  occ. eigenvalues --   -1.10110  -1.06625  -1.06013  -1.04639  -1.02582
 Alpha  occ. eigenvalues --   -1.01732  -0.95151  -0.93144  -0.92088  -0.91119
 Alpha  occ. eigenvalues --   -0.88886  -0.88315  -0.87861  -0.86839  -0.84819
 Alpha  occ. eigenvalues --   -0.81942  -0.81505  -0.80783  -0.79683  -0.79231
 Alpha  occ. eigenvalues --   -0.76564  -0.74020  -0.73745  -0.73327  -0.72484
 Alpha  occ. eigenvalues --   -0.71752  -0.71000  -0.70373  -0.70037  -0.69005
 Alpha  occ. eigenvalues --   -0.67989  -0.67779  -0.66792  -0.65987  -0.64978
 Alpha  occ. eigenvalues --   -0.64189  -0.64175  -0.63039  -0.62205  -0.61561
 Alpha  occ. eigenvalues --   -0.61090  -0.60093  -0.59511  -0.59134  -0.58724
 Alpha  occ. eigenvalues --   -0.58591  -0.57526  -0.57231  -0.56828  -0.56706
 Alpha  occ. eigenvalues --   -0.56055  -0.55676  -0.55084  -0.54968  -0.54700
 Alpha  occ. eigenvalues --   -0.54231  -0.53791  -0.53715  -0.52907  -0.52731
 Alpha  occ. eigenvalues --   -0.52275  -0.52213  -0.51380  -0.51263  -0.51036
 Alpha  occ. eigenvalues --   -0.50802  -0.50241  -0.50111  -0.49555  -0.49445
 Alpha  occ. eigenvalues --   -0.49358  -0.49304  -0.49103  -0.48772  -0.48281
 Alpha  occ. eigenvalues --   -0.47602  -0.47457  -0.47051  -0.46441  -0.45978
 Alpha  occ. eigenvalues --   -0.45787  -0.44968  -0.43707  -0.43247  -0.42861
 Alpha  occ. eigenvalues --   -0.42277  -0.41836  -0.41587  -0.41290  -0.41105
 Alpha  occ. eigenvalues --   -0.40488  -0.40436  -0.40183  -0.39620  -0.39363
 Alpha  occ. eigenvalues --   -0.38901  -0.38396  -0.37592  -0.36129  -0.35678
 Alpha  occ. eigenvalues --   -0.34887  -0.34017  -0.30821  -0.30407  -0.29912
 Alpha  occ. eigenvalues --   -0.28972  -0.26999
 Alpha virt. eigenvalues --   -0.14127  -0.11046  -0.10736  -0.09784  -0.09199
 Alpha virt. eigenvalues --   -0.09016  -0.06164  -0.05498  -0.05045  -0.03501
 Alpha virt. eigenvalues --   -0.03005  -0.02687  -0.02213  -0.01717  -0.01273

 Mulliken charges:
               1
     1  N   -0.770482
     2  H    0.401941
     3  H    0.419781
     4  H    0.456994
     5  C   -0.094146
     6  H    0.219031
     7  C    0.592058
     8  C   -0.309454
     9  H    0.184834
    10  H    0.213030
    11  O   -0.498644
    12  C   -0.382796
    13  H    0.172061
    14  H    0.209021
    15  C    0.601503
    16  O   -0.449037
    17  O   -0.554470
    18  N   -0.586201
    19  H    0.358082
    20  C   -0.032811
    21  H    0.198272
    22  C    0.668827
    23  C   -0.400834
    24  H    0.185257
    25  H    0.167527
    26  O   -0.612011
    27  C    0.042481
    28  C   -0.014958
    29  H    0.166038
    30  C    0.099961
    31  C    0.309402
    32  C   -0.208522
    33  H    0.121042
    34  N   -0.683225
    35  H    0.343357
    36  C   -0.147828
    37  H    0.147681
    38  C   -0.157575
    39  H    0.142738
    40  C   -0.136773
    41  H    0.142855
    42  N   -0.604940
    43  H    0.370409
    44  C   -0.044556
    45  H    0.177936
    46  C    0.593247
    47  C    0.149226
    48  H    0.139373
    49  O   -0.521197
    50  C   -0.518685
    51  H    0.176651
    52  H    0.173921
    53  H    0.180344
    54  O   -0.647943
    55  H    0.421830
    56  N   -0.594801
    57  H    0.350774
    58  C   -0.041738
    59  H    0.211272
    60  C    0.578484
    61  C   -0.269390
    62  H    0.156995
    63  H    0.155556
    64  O   -0.459966
    65  C   -0.282005
    66  H    0.180486
    67  H    0.139482
    68  C   -0.139879
    69  H    0.149764
    70  H    0.154252
    71  N   -0.579437
    72  H    0.312542
    73  N   -0.739675
    74  H    0.339604
    75  H    0.323278
    76  N   -0.624017
    77  H    0.266285
    78  C    0.540794
    79  O   -0.558069
    80  H    0.432135
    81  H    0.427652
 Sum of Mulliken charges =   1.00000

 Dipole moment (field-independent basis, Debye):
    X=            -14.8196    Y=             14.0728    Z=              7.8771  Tot=             21.9023
 Quadrupole moment (field-independent basis, Debye-Ang):
   XX=           -158.8058   YY=           -190.6969   ZZ=           -164.5240
   XY=            -21.1653   XZ=            -40.3891   YZ=             33.9525

 Normal termination of Gaussian 16 at Sun May 15 01:27:24 2022.
