 Gaussian 16, Revision C.01,
 Gaussian 16:  ES64L-G16RevC.01  3-Jul-2019

 ----------------------------------------------------------------------
 # B3LYP/6-31G* empiricaldispersion=gd3 guess=read geom=check nosymm in
 tegral(ultrafinegrid)
 ----------------------------------------------------------------------

 ------------------------------------------------------
 Candidate Structure: Conf:304 Charge calc in gas phase
 ------------------------------------------------------
 Structure from the checkpoint file:  "conf-304.chk"
 Charge =  1 Multiplicity = 1

                          Input orientation:
 ---------------------------------------------------------------------
 Center     Atomic      Atomic             Coordinates (Angstroms)
 Number     Number       Type             X           Y           Z
 ---------------------------------------------------------------------
      1          7           0       -4.048740    0.156767   -1.288712
      2          1           0       -4.252155    1.166606   -1.205998
      3          1           0       -3.527810   -0.030184   -2.331345
      4          1           0       -4.950068   -0.327060   -1.324397
      5          6           0       -3.262665   -0.328076   -0.106239
      6          1           0       -3.898004   -0.236377    0.775286
      7          6           0       -2.027714    0.570781    0.045903
      8          6           0       -2.864897   -1.806187   -0.290752
      9          1           0       -3.737212   -2.435758   -0.086000
     10          1           0       -2.574601   -1.965388   -1.333567
     11          8           0       -1.219802    0.706592   -0.876584
     12          6           0       -1.688001   -2.244970    0.589497
     13          1           0       -0.769912   -1.722426    0.295018
     14          1           0       -1.482235   -3.311689    0.445415
     15          6           0       -1.909458   -1.996851    2.067242
     16          8           0       -2.895370   -1.502004    2.569608
     17          8           0       -0.826328   -2.368276    2.788928
     18          7           0       -1.865175    1.123244    1.264536
     19          1           0       -2.568079    0.967681    1.977575
     20          6           0       -0.931551    2.226663    1.496143
     21          1           0       -0.717078    2.641971    0.505309
     22          6           0        0.421290    1.709695    2.037190
     23          6           0       -1.551582    3.318443    2.408242
     24          1           0       -1.111212    4.275878    2.108147
     25          1           0       -1.218354    3.145375    3.435858
     26          8           0        0.968594    2.198013    3.012143
     27          6           0       -3.055612    3.353829    2.378050
     28          6           0       -3.862367    3.265013    3.487698
     29          1           0       -3.583084    3.234600    4.532182
     30          6           0       -3.943925    3.361471    1.237449
     31          6           0       -5.275357    3.270347    1.742468
     32          6           0       -3.758361    3.390620   -0.156091
     33          1           0       -2.766314    3.442731   -0.591812
     34          7           0       -5.189349    3.217445    3.114602
     35          1           0       -5.972094    3.242340    3.750926
     36          6           0       -6.182825    3.248021   -0.465127
     37          1           0       -7.032622    3.222198   -1.140784
     38          6           0       -6.397220    3.209906    0.908176
     39          1           0       -7.401055    3.147212    1.318598
     40          6           0       -4.874779    3.338259   -0.991231
     41          1           0       -4.736785    3.389533   -2.067605
     42          7           0        0.956077    0.683459    1.296926
     43          1           0        0.552074    0.551599    0.374903
     44          6           0        2.394192    0.389159    1.412403
     45          1           0        2.825440    1.201577    1.998419
     46          6           0        2.937798    0.473799   -0.004404
     47          6           0        2.668988   -0.949886    2.122306
     48          1           0        3.743513   -1.151593    2.042811
     49          8           0        2.777276   -0.633259   -0.772556
     50          6           0        2.244948   -0.923247    3.584816
     51          1           0        2.746056   -0.117115    4.128097
     52          1           0        2.477578   -1.879682    4.061851
     53          1           0        1.165079   -0.738236    3.649719
     54          8           0        2.044753   -2.032230    1.413141
     55          1           0        1.153876   -2.160475    1.781749
     56          7           0        3.415136    1.568152   -0.435703
     57          1           0        4.811393    3.008608   -0.092813
     58          6           0        3.860351    1.668066   -1.816776
     59          1           0        4.227913    0.711068   -2.210049
     60          6           0        5.041046    2.649567   -1.936272
     61          6           0        2.732554    2.183635   -2.740477
     62          1           0        3.196567    2.458892   -3.693290
     63          1           0        2.314565    3.101971   -2.303426
     64          8           0        5.580099    2.853046   -2.997276
     65          6           0        1.607109    1.163823   -2.941892
     66          1           0        2.013827    0.250327   -3.395669
     67          1           0        1.167027    0.882557   -1.981348
     68          6           0        0.490753    1.730398   -3.825608
     69          1           0        0.056485    2.595007   -3.314775
     70          1           0        0.883615    2.068847   -4.791812
     71          7           0       -0.562679    0.718949   -4.030768
     72          1           0       -0.241270   -0.229952   -3.889370
     73          7           0       -2.367614    2.153855   -3.619046
     74          1           0       -3.352781    2.216237   -3.838204
     75          1           0       -1.828121    2.899989   -4.035640
     76          7           0       -2.716988   -0.114673   -3.509486
     77          1           0       -2.280580   -1.026602   -3.629013
     78          6           0       -1.869409    0.875782   -3.720853
     79          8           0        5.423621    3.275043   -0.804466
     80          1           0       -1.003663   -2.177956    3.730912
     81          1           0        2.472530   -1.349635   -0.191524
 ---------------------------------------------------------------------

 SCF Done:  E(RB3LYP) =  -2054.03986886     A.U. after    1 cycles

 Alpha  occ. eigenvalues --  -19.32780 -19.27311 -19.27100 -19.26341 -19.25474
 Alpha  occ. eigenvalues --  -19.23985 -19.22522 -19.18222 -14.53290 -14.49337
 Alpha  occ. eigenvalues --  -14.48569 -14.47707 -14.47567 -14.46248 -14.42397
 Alpha  occ. eigenvalues --  -14.41014 -10.45327 -10.42469 -10.42297 -10.39314
 Alpha  occ. eigenvalues --  -10.38046 -10.37798 -10.36799 -10.34981 -10.34329
 Alpha  occ. eigenvalues --  -10.33528 -10.33456 -10.33118 -10.32900 -10.32866
 Alpha  occ. eigenvalues --  -10.32565 -10.30290 -10.29958 -10.29800 -10.29795
 Alpha  occ. eigenvalues --  -10.29584 -10.29503 -10.29487 -10.29069 -10.28236
 Alpha  occ. eigenvalues --  -10.27419 -10.27337  -1.23473  -1.17515  -1.17128
 Alpha  occ. eigenvalues --   -1.14732  -1.14652  -1.14299  -1.13093  -1.11157
 Alpha  occ. eigenvalues --   -1.08753  -1.08648  -1.06673  -1.05929  -1.02931
 Alpha  occ. eigenvalues --   -1.01591  -1.00148  -0.97525  -0.94928  -0.94093
 Alpha  occ. eigenvalues --   -0.91336  -0.89346  -0.88318  -0.87065  -0.85583
 Alpha  occ. eigenvalues --   -0.84488  -0.83651  -0.82893  -0.80511  -0.79198
 Alpha  occ. eigenvalues --   -0.76613  -0.75873  -0.73422  -0.73174  -0.73109
 Alpha  occ. eigenvalues --   -0.71760  -0.71313  -0.70160  -0.69735  -0.68974
 Alpha  occ. eigenvalues --   -0.68624  -0.68133  -0.67599  -0.67135  -0.66354
 Alpha  occ. eigenvalues --   -0.65932  -0.64961  -0.64496  -0.63522  -0.63049
 Alpha  occ. eigenvalues --   -0.62108  -0.61387  -0.61039  -0.60803  -0.60128
 Alpha  occ. eigenvalues --   -0.59554  -0.59411  -0.59074  -0.58677  -0.58291
 Alpha  occ. eigenvalues --   -0.57814  -0.57580  -0.57410  -0.56581  -0.56136
 Alpha  occ. eigenvalues --   -0.55841  -0.54779  -0.54293  -0.54048  -0.53994
 Alpha  occ. eigenvalues --   -0.53520  -0.53220  -0.52720  -0.52595  -0.51880
 Alpha  occ. eigenvalues --   -0.51829  -0.51468  -0.50975  -0.50540  -0.50193
 Alpha  occ. eigenvalues --   -0.49772  -0.49574  -0.49224  -0.48980  -0.48843
 Alpha  occ. eigenvalues --   -0.48528  -0.48115  -0.47599  -0.47504  -0.47235
 Alpha  occ. eigenvalues --   -0.46764  -0.46195  -0.45730  -0.45657  -0.44912
 Alpha  occ. eigenvalues --   -0.44538  -0.44163  -0.43762  -0.43139  -0.42381
 Alpha  occ. eigenvalues --   -0.42153  -0.41377  -0.40521  -0.40287  -0.39597
 Alpha  occ. eigenvalues --   -0.39344  -0.38540  -0.38072  -0.37620  -0.36597
 Alpha  occ. eigenvalues --   -0.35489  -0.35213  -0.34993  -0.34917  -0.33445
 Alpha  occ. eigenvalues --   -0.31669  -0.31255
 Alpha virt. eigenvalues --   -0.13301  -0.12256  -0.11507  -0.09884  -0.09311
 Alpha virt. eigenvalues --   -0.08474  -0.07066  -0.06583  -0.05587  -0.05216
 Alpha virt. eigenvalues --   -0.04345  -0.04168  -0.03642  -0.03075  -0.01721

 Mulliken charges:
               1
     1  N   -0.809081
     2  H    0.397208
     3  H    0.444361
     4  H    0.377745
     5  C   -0.077554
     6  H    0.207185
     7  C    0.611095
     8  C   -0.268410
     9  H    0.184948
    10  H    0.166595
    11  O   -0.551287
    12  C   -0.399402
    13  H    0.196633
    14  H    0.217040
    15  C    0.613014
    16  O   -0.466921
    17  O   -0.568081
    18  N   -0.577124
    19  H    0.363217
    20  C   -0.088349
    21  H    0.197620
    22  C    0.626442
    23  C   -0.377650
    24  H    0.189429
    25  H    0.191921
    26  O   -0.491830
    27  C    0.030963
    28  C    0.008958
    29  H    0.180278
    30  C    0.093952
    31  C    0.315384
    32  C   -0.242419
    33  H    0.149215
    34  N   -0.678358
    35  H    0.349300
    36  C   -0.152443
    37  H    0.152542
    38  C   -0.158765
    39  H    0.155406
    40  C   -0.202978
    41  H    0.129853
    42  N   -0.654142
    43  H    0.374082
    44  C   -0.037339
    45  H    0.208954
    46  C    0.486574
    47  C    0.109070
    48  H    0.175103
    49  O   -0.626757
    50  C   -0.481152
    51  H    0.189202
    52  H    0.175530
    53  H    0.138914
    54  O   -0.669844
    55  H    0.432630
    56  N   -0.486277
    57  H    0.425926
    58  C   -0.085603
    59  H    0.185630
    60  C    0.600985
    61  C   -0.273067
    62  H    0.188845
    63  H    0.144597
    64  O   -0.455128
    65  C   -0.304755
    66  H    0.157636
    67  H    0.168007
    68  C   -0.138644
    69  H    0.159182
    70  H    0.181991
    71  N   -0.580120
    72  H    0.337915
    73  N   -0.751956
    74  H    0.356052
    75  H    0.358619
    76  N   -0.795421
    77  H    0.305611
    78  C    0.726613
    79  O   -0.570932
    80  H    0.435183
    81  H    0.448632
 Sum of Mulliken charges =   1.00000

 Dipole moment (field-independent basis, Debye):
    X=            -19.0960    Y=             -0.3999    Z=              1.3739  Tot=             19.1495
 Quadrupole moment (field-independent basis, Debye-Ang):
   XX=           -195.1297   YY=           -227.7230   ZZ=           -195.5177
   XY=            -41.0234   XZ=             11.6021   YZ=              0.2589

 Normal termination of Gaussian 16 at Sun May 15 01:27:49 2022.
