 Gaussian 16, Revision C.01,
 Gaussian 16:  ES64L-G16RevC.01  3-Jul-2019

 ----------------------------------------------------------------------
 # B3LYP/6-31G* empiricaldispersion=gd3 guess=read geom=check nosymm in
 tegral(ultrafinegrid)
 ----------------------------------------------------------------------

 ------------------------------------------------------
 Candidate Structure: Conf:662 Charge calc in gas phase
 ------------------------------------------------------
 Structure from the checkpoint file:  "conf-662.chk"
 Charge =  1 Multiplicity = 1

                          Input orientation:
 ---------------------------------------------------------------------
 Center     Atomic      Atomic             Coordinates (Angstroms)
 Number     Number       Type             X           Y           Z
 ---------------------------------------------------------------------
      1          7           0       -3.439499   -2.587089    4.204141
      2          1           0       -4.364605   -2.980527    4.004452
      3          1           0       -2.759588   -2.961452    3.484450
      4          1           0       -3.166522   -2.854921    5.154054
      5          6           0       -3.370553   -1.091804    3.947266
      6          1           0       -4.358008   -0.655339    4.091415
      7          6           0       -2.894497   -1.034879    2.478024
      8          6           0       -2.330467   -0.482372    4.910202
      9          1           0       -2.713523   -0.580530    5.934407
     10          1           0       -1.411082   -1.076935    4.838037
     11          8           0       -2.249256   -2.007551    2.053326
     12          6           0       -1.939023    0.983537    4.638204
     13          1           0       -1.448519    1.059141    3.656698
     14          1           0       -1.213591    1.297395    5.391875
     15          6           0       -3.109928    1.938013    4.632526
     16          8           0       -4.144798    1.757927    4.001900
     17          8           0       -2.891835    3.030256    5.367366
     18          7           0       -3.184277    0.071978    1.809825
     19          1           0       -3.742808    0.787358    2.274820
     20          6           0       -2.573192    0.386999    0.525228
     21          1           0       -2.910781   -0.348357   -0.212910
     22          6           0       -1.041673    0.341040    0.677412
     23          6           0       -3.021008    1.806498    0.094541
     24          1           0       -2.561281    2.011746   -0.879534
     25          1           0       -2.597071    2.527057    0.804725
     26          8           0       -0.486832    0.702017    1.717734
     27          6           0       -4.509785    1.932086    0.027632
     28          6           0       -5.323700    2.612116    0.903388
     29          1           0       -5.060340    3.207518    1.766841
     30          6           0       -5.374971    1.291063   -0.931040
     31          6           0       -6.708540    1.631487   -0.580051
     32          6           0       -5.150817    0.471585   -2.051193
     33          1           0       -4.139992    0.207677   -2.353554
     34          7           0       -6.643785    2.429032    0.548020
     35          1           0       -7.430802    2.886814    0.981616
     36          6           0       -7.558668    0.372142   -2.414533
     37          1           0       -8.391537    0.007458   -3.008325
     38          6           0       -7.811247    1.182232   -1.313410
     39          1           0       -8.825085    1.457720   -1.036874
     40          6           0       -6.242512    0.019662   -2.781030
     41          1           0       -6.084748   -0.609220   -3.652189
     42          7           0       -0.385930   -0.064087   -0.424159
     43          1           0       -0.873102   -0.441248   -1.233977
     44          6           0        1.055839   -0.173603   -0.515729
     45          1           0        1.523573    0.771846   -0.219980
     46          6           0        1.363826   -0.513395   -1.985367
     47          6           0        1.601583   -1.283374    0.428922
     48          1           0        1.381889   -0.949316    1.448998
     49          8           0        0.482056   -0.975356   -2.710067
     50          6           0        0.992183   -2.658084    0.177645
     51          1           0       -0.084487   -2.642190    0.373198
     52          1           0        1.446041   -3.394668    0.850326
     53          1           0        1.161921   -2.986550   -0.852726
     54          8           0        3.028223   -1.290000    0.225513
     55          1           0        3.604509   -2.093980   -1.418439
     56          7           0        2.649194   -0.336567   -2.366953
     57          1           0        3.292384    0.063096   -1.694477
     58          6           0        3.204233   -0.916674   -3.586859
     59          1           0        2.352996   -1.336670   -4.129336
     60          6           0        4.135716   -2.117485   -3.296472
     61          6           0        3.909659    0.133453   -4.460000
     62          1           0        4.304641   -0.392450   -5.334771
     63          1           0        4.780927    0.523716   -3.916748
     64          8           0        4.799300   -2.604955   -4.177081
     65          6           0        3.000555    1.293364   -4.883911
     66          1           0        2.661152    1.848450   -3.998400
     67          1           0        3.587344    1.997782   -5.483643
     68          6           0        1.766282    0.856622   -5.696368
     69          1           0        2.070403    0.208968   -6.528072
     70          1           0        1.086159    0.264221   -5.074699
     71          7           0        0.994927    1.963311   -6.244610
     72          1           0        0.525034    2.523586   -5.541993
     73          7           0        0.737943    3.898614   -7.489662
     74          1           0        1.049073    4.379639   -8.327153
     75          1           0       -0.261728    3.721789   -7.523285
     76          7           0        2.519814    2.516253   -8.041268
     77          1           0        3.060479    1.709911   -7.730711
     78          6           0        1.502488    2.739148   -7.293129
     79          8           0        4.143837   -2.620141   -2.046535
     80          1           0       -3.668101    3.618404    5.281934
     81          1           0        3.441494   -1.820632    0.924933
 ---------------------------------------------------------------------

 SCF Done:  E(RB3LYP) =  -2054.02153606     A.U. after    1 cycles

 Alpha  occ. eigenvalues --  -19.32887 -19.27738 -19.27597 -19.26861 -19.24448
 Alpha  occ. eigenvalues --  -19.22798 -19.22006 -19.18644 -14.61716 -14.49930
 Alpha  occ. eigenvalues --  -14.46837 -14.46572 -14.45905 -14.39375 -14.37569
 Alpha  occ. eigenvalues --  -14.32220 -10.45893 -10.44078 -10.41717 -10.39908
 Alpha  occ. eigenvalues --  -10.39050 -10.37460 -10.36128 -10.35268 -10.34795
 Alpha  occ. eigenvalues --  -10.33986 -10.33137 -10.31679 -10.31098 -10.30968
 Alpha  occ. eigenvalues --  -10.30458 -10.30123 -10.27433 -10.27235 -10.27026
 Alpha  occ. eigenvalues --  -10.26744 -10.26733 -10.26671 -10.26152 -10.25829
 Alpha  occ. eigenvalues --  -10.25541 -10.24425  -1.24070  -1.20113  -1.15511
 Alpha  occ. eigenvalues --   -1.15377  -1.14938  -1.14677  -1.13815  -1.13319
 Alpha  occ. eigenvalues --   -1.07104  -1.07077  -1.06405  -1.03509  -1.02349
 Alpha  occ. eigenvalues --   -1.01361  -0.96136  -0.92792  -0.92189  -0.91269
 Alpha  occ. eigenvalues --   -0.88665  -0.88465  -0.87682  -0.86306  -0.85413
 Alpha  occ. eigenvalues --   -0.81875  -0.81557  -0.81267  -0.80323  -0.79191
 Alpha  occ. eigenvalues --   -0.76515  -0.75353  -0.75171  -0.73887  -0.73309
 Alpha  occ. eigenvalues --   -0.72008  -0.71603  -0.70382  -0.69587  -0.67911
 Alpha  occ. eigenvalues --   -0.67746  -0.67283  -0.67060  -0.66136  -0.65185
 Alpha  occ. eigenvalues --   -0.64625  -0.64476  -0.63276  -0.62263  -0.62045
 Alpha  occ. eigenvalues --   -0.61859  -0.60926  -0.60763  -0.60542  -0.60218
 Alpha  occ. eigenvalues --   -0.58874  -0.58644  -0.57850  -0.56998  -0.56762
 Alpha  occ. eigenvalues --   -0.56467  -0.55925  -0.55563  -0.54613  -0.54418
 Alpha  occ. eigenvalues --   -0.54164  -0.53605  -0.53064  -0.52757  -0.52477
 Alpha  occ. eigenvalues --   -0.52154  -0.51799  -0.51310  -0.51253  -0.50902
 Alpha  occ. eigenvalues --   -0.50536  -0.50406  -0.49741  -0.49593  -0.49343
 Alpha  occ. eigenvalues --   -0.49156  -0.48870  -0.48645  -0.48499  -0.48370
 Alpha  occ. eigenvalues --   -0.47587  -0.47137  -0.46391  -0.46352  -0.45803
 Alpha  occ. eigenvalues --   -0.45158  -0.44872  -0.44373  -0.44130  -0.43283
 Alpha  occ. eigenvalues --   -0.42845  -0.42018  -0.41630  -0.41470  -0.41315
 Alpha  occ. eigenvalues --   -0.40601  -0.40279  -0.39911  -0.39774  -0.39226
 Alpha  occ. eigenvalues --   -0.37265  -0.36640  -0.36456  -0.36199  -0.35520
 Alpha  occ. eigenvalues --   -0.35508  -0.31739  -0.30400  -0.29929  -0.29630
 Alpha  occ. eigenvalues --   -0.28873  -0.26718
 Alpha virt. eigenvalues --   -0.13789  -0.13007  -0.11691  -0.09614  -0.08911
 Alpha virt. eigenvalues --   -0.07836  -0.07413  -0.05438  -0.04893  -0.04615
 Alpha virt. eigenvalues --   -0.03938  -0.03439  -0.03356  -0.02430  -0.01627

 Mulliken charges:
               1
     1  N   -0.751140
     2  H    0.421704
     3  H    0.429495
     4  H    0.414455
     5  C   -0.120247
     6  H    0.234408
     7  C    0.653571
     8  C   -0.302873
     9  H    0.183227
    10  H    0.188916
    11  O   -0.553461
    12  C   -0.403910
    13  H    0.264925
    14  H    0.208299
    15  C    0.602988
    16  O   -0.495450
    17  O   -0.527993
    18  N   -0.609176
    19  H    0.398975
    20  C   -0.043432
    21  H    0.188005
    22  C    0.655923
    23  C   -0.400774
    24  H    0.183444
    25  H    0.167887
    26  O   -0.547846
    27  C    0.050952
    28  C   -0.000676
    29  H    0.156787
    30  C    0.091019
    31  C    0.309522
    32  C   -0.214182
    33  H    0.120744
    34  N   -0.688043
    35  H    0.339247
    36  C   -0.149481
    37  H    0.145935
    38  C   -0.159969
    39  H    0.140236
    40  C   -0.138712
    41  H    0.141867
    42  N   -0.626829
    43  H    0.367440
    44  C   -0.037078
    45  H    0.188232
    46  C    0.606687
    47  C    0.113118
    48  H    0.169802
    49  O   -0.531393
    50  C   -0.484716
    51  H    0.176300
    52  H    0.152414
    53  H    0.183875
    54  O   -0.647062
    55  H    0.447470
    56  N   -0.619039
    57  H    0.351737
    58  C   -0.096721
    59  H    0.224552
    60  C    0.597122
    61  C   -0.278705
    62  H    0.190650
    63  H    0.144700
    64  O   -0.437296
    65  C   -0.268231
    66  H    0.122732
    67  H    0.170587
    68  C   -0.176705
    69  H    0.163169
    70  H    0.165100
    71  N   -0.585805
    72  H    0.312759
    73  N   -0.753504
    74  H    0.338730
    75  H    0.317185
    76  N   -0.637898
    77  H    0.275952
    78  C    0.571462
    79  O   -0.610538
    80  H    0.430912
    81  H    0.423668
 Sum of Mulliken charges =   1.00000

 Dipole moment (field-independent basis, Debye):
    X=            -19.7817    Y=             -1.8075    Z=             22.5650  Tot=             30.0626
 Quadrupole moment (field-independent basis, Debye-Ang):
   XX=           -160.6280   YY=           -216.4620   ZZ=           -184.1645
   XY=              7.9274   XZ=            -34.9876   YZ=            -28.9248

 Normal termination of Gaussian 16 at Sun May 15 01:27:26 2022.
