 Gaussian 16, Revision C.01,
 Gaussian 16:  ES64L-G16RevC.01  3-Jul-2019

 ----------------------------------------------------------------------
 # B3LYP/6-31G* empiricaldispersion=gd3 guess=read geom=check nosymm in
 tegral(ultrafinegrid)
 ----------------------------------------------------------------------

 ------------------------------------------------------
 Candidate Structure: Conf:883 Charge calc in gas phase
 ------------------------------------------------------
 Structure from the checkpoint file:  "conf-883.chk"
 Charge =  1 Multiplicity = 1

                          Input orientation:
 ---------------------------------------------------------------------
 Center     Atomic      Atomic             Coordinates (Angstroms)
 Number     Number       Type             X           Y           Z
 ---------------------------------------------------------------------
      1          7           0       -3.847478    3.984258    2.707834
      2          1           0       -3.579368    4.411600    1.131002
      3          1           0       -4.696196    3.420747    2.776856
      4          1           0       -3.952059    4.735443    3.389796
      5          6           0       -2.701114    3.123723    3.086037
      6          1           0       -1.794254    3.667513    2.803639
      7          6           0       -2.794490    1.839322    2.242039
      8          6           0       -2.600688    2.826345    4.597394
      9          1           0       -1.716188    2.204627    4.772896
     10          1           0       -2.408362    3.784567    5.098273
     11          8           0       -3.774017    1.095521    2.315151
     12          6           0       -3.828297    2.166071    5.242510
     13          1           0       -4.014435    1.192530    4.784758
     14          1           0       -4.725354    2.775330    5.110175
     15          6           0       -3.649229    1.974140    6.732611
     16          8           0       -4.396204    2.384568    7.588390
     17          8           0       -2.526996    1.262847    7.011995
     18          7           0       -1.748119    1.612492    1.411987
     19          1           0       -0.900006    2.160870    1.504102
     20          6           0       -1.541128    0.356868    0.716803
     21          1           0       -2.038207   -0.435473    1.282900
     22          6           0       -0.012134    0.156110    0.641327
     23          6           0       -2.014779    0.319889   -0.772546
     24          1           0       -2.093711   -0.736314   -1.064489
     25          1           0       -1.200477    0.717002   -1.383402
     26          8           0        0.775909    1.054533    0.919217
     27          6           0       -3.262329    1.061485   -1.159640
     28          6           0       -4.493737    1.132068   -0.553608
     29          1           0       -4.825350    0.695794    0.374049
     30          6           0       -3.361670    1.848825   -2.368277
     31          6           0       -4.669016    2.402840   -2.411309
     32          6           0       -2.469768    2.129698   -3.422288
     33          1           0       -1.488350    1.661651   -3.460090
     34          7           0       -5.327791    1.955017   -1.283567
     35          1           0       -6.304468    2.104289   -1.083072
     36          6           0       -4.178561    3.529084   -4.453996
     37          1           0       -4.474068    4.177926   -5.272153
     38          6           0       -5.089476    3.247461   -3.443415
     39          1           0       -6.093181    3.661686   -3.459405
     40          6           0       -2.884454    2.971628   -4.446968
     41          1           0       -2.208534    3.189043   -5.268773
     42          7           0        0.367265   -1.023596    0.090275
     43          1           0       -0.350030   -1.628439   -0.287094
     44          6           0        1.684472   -1.159187   -0.531033
     45          1           0        2.450807   -0.919388    0.206651
     46          6           0        1.846348   -0.158107   -1.671367
     47          6           0        1.883404   -2.588589   -1.043794
     48          1           0        2.831983   -2.611067   -1.595941
     49          8           0        0.826044   -0.134110   -2.575780
     50          6           0        1.903654   -3.638971    0.059048
     51          1           0        2.745610   -3.465704    0.736325
     52          1           0        2.027975   -4.639007   -0.371040
     53          1           0        0.979905   -3.620854    0.643309
     54          8           0        0.789931   -2.786834   -1.962766
     55          1           0        0.658910   -3.738937   -2.087568
     56          7           0        2.847311    0.638913   -1.676492
     57          1           0        4.879219    0.684600   -1.584315
     58          6           0        2.991999    1.686557   -2.670159
     59          1           0        2.498068    1.451998   -3.619685
     60          6           0        4.487590    1.883084   -3.004706
     61          6           0        2.437413    3.033904   -2.143093
     62          1           0        2.744050    3.813169   -2.847273
     63          1           0        2.915911    3.243594   -1.178287
     64          8           0        4.819253    2.651053   -3.874626
     65          6           0        0.916477    3.015984   -1.998729
     66          1           0        0.452924    3.076641   -2.990922
     67          1           0        0.587318    2.088104   -1.537875
     68          6           0        0.416225    4.157301   -1.115283
     69          1           0        0.861656    4.032962   -0.122599
     70          1           0        0.709254    5.136238   -1.516878
     71          7           0       -1.045747    4.071674   -0.987860
     72          1           0       -1.534658    3.530146   -1.696543
     73          7           0       -1.184295    5.283882    0.995724
     74          1           0       -1.782331    5.885814    1.541792
     75          1           0       -0.260584    5.655508    0.837157
     76          7           0       -3.096511    4.352617    0.082819
     77          1           0       -3.480300    3.724766   -0.615821
     78          6           0       -1.783499    4.570712    0.000916
     79          8           0        5.387275    1.190060   -2.294510
     80          1           0       -2.487566    1.175382    7.981409
     81          1           0        0.388601   -1.009883   -2.576439
 ---------------------------------------------------------------------

 SCF Done:  E(RB3LYP) =  -2054.03916190     A.U. after    1 cycles

 Alpha  occ. eigenvalues --  -19.28789 -19.28214 -19.27172 -19.25202 -19.24152
 Alpha  occ. eigenvalues --  -19.23202 -19.21434 -19.18732 -14.50585 -14.50016
 Alpha  occ. eigenvalues --  -14.48222 -14.47832 -14.47490 -14.47443 -14.47301
 Alpha  occ. eigenvalues --  -14.42342 -10.45654 -10.40797 -10.40321 -10.39793
 Alpha  occ. eigenvalues --  -10.38887 -10.37468 -10.36259 -10.35104 -10.34883
 Alpha  occ. eigenvalues --  -10.34813 -10.34618 -10.32054 -10.31633 -10.31272
 Alpha  occ. eigenvalues --  -10.30858 -10.30222 -10.29282 -10.28860 -10.28854
 Alpha  occ. eigenvalues --  -10.28849 -10.28809 -10.28680 -10.28637 -10.28322
 Alpha  occ. eigenvalues --  -10.28080 -10.28029  -1.18031  -1.18010  -1.16142
 Alpha  occ. eigenvalues --   -1.15549  -1.14958  -1.14853  -1.14499  -1.09057
 Alpha  occ. eigenvalues --   -1.08206  -1.07159  -1.04706  -1.04400  -1.04052
 Alpha  occ. eigenvalues --   -1.03355  -1.01378  -1.01116  -0.94028  -0.91852
 Alpha  occ. eigenvalues --   -0.90567  -0.89560  -0.89503  -0.86863  -0.85124
 Alpha  occ. eigenvalues --   -0.83609  -0.82746  -0.82245  -0.81152  -0.78187
 Alpha  occ. eigenvalues --   -0.77691  -0.76239  -0.74186  -0.72911  -0.72198
 Alpha  occ. eigenvalues --   -0.71968  -0.71083  -0.70061  -0.69694  -0.69045
 Alpha  occ. eigenvalues --   -0.68722  -0.68680  -0.66789  -0.66694  -0.65966
 Alpha  occ. eigenvalues --   -0.65339  -0.64607  -0.63865  -0.63387  -0.62757
 Alpha  occ. eigenvalues --   -0.61813  -0.61215  -0.60850  -0.59942  -0.59628
 Alpha  occ. eigenvalues --   -0.59366  -0.58898  -0.58072  -0.57986  -0.57765
 Alpha  occ. eigenvalues --   -0.57153  -0.56543  -0.56390  -0.56087  -0.55888
 Alpha  occ. eigenvalues --   -0.55776  -0.54656  -0.54337  -0.53748  -0.53685
 Alpha  occ. eigenvalues --   -0.53134  -0.52988  -0.52659  -0.52291  -0.51933
 Alpha  occ. eigenvalues --   -0.51521  -0.51152  -0.50601  -0.50158  -0.49895
 Alpha  occ. eigenvalues --   -0.49536  -0.49299  -0.49037  -0.48845  -0.48672
 Alpha  occ. eigenvalues --   -0.48541  -0.48360  -0.47536  -0.46816  -0.46706
 Alpha  occ. eigenvalues --   -0.46251  -0.45835  -0.45363  -0.45156  -0.44648
 Alpha  occ. eigenvalues --   -0.44474  -0.43652  -0.43462  -0.43169  -0.42736
 Alpha  occ. eigenvalues --   -0.41700  -0.40352  -0.40188  -0.39358  -0.39183
 Alpha  occ. eigenvalues --   -0.38243  -0.38189  -0.37818  -0.37674  -0.36947
 Alpha  occ. eigenvalues --   -0.36816  -0.36560  -0.35408  -0.34777  -0.32542
 Alpha  occ. eigenvalues --   -0.32297  -0.30466
 Alpha virt. eigenvalues --   -0.11530  -0.10698  -0.10316  -0.09712  -0.08933
 Alpha virt. eigenvalues --   -0.07817  -0.06985  -0.06688  -0.05933  -0.04824
 Alpha virt. eigenvalues --   -0.04339  -0.03830  -0.02278  -0.01436  -0.01288

 Mulliken charges:
               1
     1  N   -0.784461
     2  H    0.416185
     3  H    0.357053
     4  H    0.340949
     5  C   -0.082157
     6  H    0.164296
     7  C    0.635240
     8  C   -0.291927
     9  H    0.187774
    10  H    0.156886
    11  O   -0.534806
    12  C   -0.345891
    13  H    0.210874
    14  H    0.159935
    15  C    0.566366
    16  O   -0.440829
    17  O   -0.564621
    18  N   -0.611709
    19  H    0.357848
    20  C   -0.036412
    21  H    0.195160
    22  C    0.613228
    23  C   -0.410575
    24  H    0.160625
    25  H    0.180087
    26  O   -0.521779
    27  C    0.073577
    28  C   -0.014469
    29  H    0.206208
    30  C    0.030131
    31  C    0.287470
    32  C   -0.275653
    33  H    0.160649
    34  N   -0.680417
    35  H    0.345114
    36  C   -0.151081
    37  H    0.155293
    38  C   -0.163028
    39  H    0.151145
    40  C   -0.132772
    41  H    0.150574
    42  N   -0.602736
    43  H    0.343591
    44  C   -0.051644
    45  H    0.206519
    46  C    0.539936
    47  C    0.108810
    48  H    0.176132
    49  O   -0.630945
    50  C   -0.483057
    51  H    0.184353
    52  H    0.170971
    53  H    0.169428
    54  O   -0.667310
    55  H    0.426324
    56  N   -0.479238
    57  H    0.421704
    58  C   -0.091745
    59  H    0.180809
    60  C    0.603644
    61  C   -0.269328
    62  H    0.190122
    63  H    0.156864
    64  O   -0.454106
    65  C   -0.320520
    66  H    0.162502
    67  H    0.182644
    68  C   -0.146242
    69  H    0.178253
    70  H    0.182495
    71  N   -0.629781
    72  H    0.384975
    73  N   -0.763035
    74  H    0.370456
    75  H    0.376377
    76  N   -0.808098
    77  H    0.386600
    78  C    0.771983
    79  O   -0.566152
    80  H    0.421192
    81  H    0.447170
 Sum of Mulliken charges =   1.00000

 Dipole moment (field-independent basis, Debye):
    X=            -11.3651    Y=              8.4590    Z=              2.6746  Tot=             14.4178
 Quadrupole moment (field-independent basis, Debye-Ang):
   XX=           -225.5513   YY=           -143.3065   ZZ=           -233.5830
   XY=            -55.0156   XZ=             27.0663   YZ=             20.9739

 Normal termination of Gaussian 16 at Sun May 15 01:27:37 2022.
