 Gaussian 16, Revision C.01,
 Gaussian 16:  ES64L-G16RevC.01  3-Jul-2019

 ----------------------------------------------------------------------
 # B3LYP/6-31G* empiricaldispersion=gd3 guess=read geom=check nosymm in
 tegral(ultrafinegrid)
 ----------------------------------------------------------------------

 ------------------------------------------------------
 Candidate Structure: Conf:472 Charge calc in gas phase
 ------------------------------------------------------
 Structure from the checkpoint file:  "conf-472.chk"
 Charge =  1 Multiplicity = 1

                          Input orientation:
 ---------------------------------------------------------------------
 Center     Atomic      Atomic             Coordinates (Angstroms)
 Number     Number       Type             X           Y           Z
 ---------------------------------------------------------------------
      1          7           0       -3.254300    1.605474    4.793930
      2          1           0       -4.233196    1.382682    4.996367
      3          1           0       -2.691206    0.702642    4.821915
      4          1           0       -2.920017    2.280160    5.487525
      5          6           0       -3.033788    2.050236    3.358560
      6          1           0       -3.968276    2.429263    2.947893
      7          6           0       -2.585225    0.732023    2.680487
      8          6           0       -1.940538    3.143361    3.351880
      9          1           0       -2.358398    4.033550    3.839591
     10          1           0       -1.104486    2.783706    3.965848
     11          8           0       -2.155181   -0.164562    3.421459
     12          6           0       -1.351004    3.522816    1.986076
     13          1           0       -0.794985    2.661341    1.591291
     14          1           0       -0.623585    4.328746    2.113572
     15          6           0       -2.360389    3.914190    0.932006
     16          8           0       -3.496058    3.461826    0.867710
     17          8           0       -1.839967    4.738870    0.029549
     18          7           0       -2.685366    0.688824    1.355063
     19          1           0       -3.160479    1.459155    0.885797
     20          6           0       -1.956103   -0.247395    0.511769
     21          1           0       -2.415284   -1.241563    0.566702
     22          6           0       -0.477684   -0.297377    0.940249
     23          6           0       -1.976972    0.284867   -0.950424
     24          1           0       -1.464541   -0.434188   -1.599359
     25          1           0       -1.336798    1.173143   -0.975330
     26          8           0        0.044789    0.608218    1.587174
     27          6           0       -3.338131    0.666919   -1.454590
     28          6           0       -4.521302   -0.030867   -1.360913
     29          1           0       -4.729789   -0.991138   -0.908119
     30          6           0       -3.638658    1.888809   -2.156563
     31          6           0       -5.024218    1.867847   -2.465988
     32          6           0       -2.874941    3.014886   -2.511519
     33          1           0       -1.817264    3.085077   -2.272644
     34          7           0       -5.532313    0.683627   -1.969902
     35          1           0       -6.493042    0.385283   -2.042233
     36          6           0       -4.879569    4.021991   -3.474754
     37          1           0       -5.338647    4.858294   -3.993939
     38          6           0       -5.658561    2.924177   -3.130307
     39          1           0       -6.718926    2.888316   -3.364460
     40          6           0       -3.502156    4.071824   -3.163254
     41          1           0       -2.910421    4.939664   -3.437727
     42          7           0        0.211931   -1.353278    0.431334
     43          1           0       -0.270543   -1.935878   -0.244525
     44          6           0        1.645475   -1.262139    0.166539
     45          1           0        2.107289   -0.692041    0.976354
     46          6           0        1.815558   -0.467835   -1.157224
     47          6           0        2.297930   -2.650269    0.132458
     48          1           0        3.356562   -2.498057   -0.104232
     49          8           0        1.119744   -1.059844   -2.213357
     50          6           0        2.167074   -3.390814    1.457190
     51          1           0        2.652643   -2.831945    2.263214
     52          1           0        2.649672   -4.371941    1.389782
     53          1           0        1.113363   -3.525813    1.728086
     54          8           0        1.722452   -3.398095   -0.959381
     55          1           0        1.307060   -4.202235   -0.615499
     56          7           0        1.346997    0.900751   -1.045008
     57          1           0        1.457577    1.198995   -0.077408
     58          6           0        2.223921    1.696222   -1.912044
     59          1           0        1.763594    1.779108   -2.902949
     60          6           0        3.487809    0.831076   -2.047442
     61          6           0        2.456203    3.107440   -1.354880
     62          1           0        2.812561    3.013330   -0.318277
     63          1           0        1.477615    3.597905   -1.307354
     64          8           0        4.542094    1.099668   -2.560863
     65          6           0        3.457563    3.975401   -2.135991
     66          1           0        3.580465    4.923042   -1.591850
     67          1           0        4.436342    3.486876   -2.145608
     68          6           0        3.076333    4.294867   -3.588502
     69          1           0        3.905557    4.826615   -4.066770
     70          1           0        2.930608    3.377506   -4.164321
     71          7           0        1.881542    5.164503   -3.757554
     72          1           0        2.006781    6.059381   -3.282199
     73          7           0        0.347446    3.440575   -4.170794
     74          1           0       -0.637097    3.196481   -4.180223
     75          1           0        0.775167    3.365898   -5.086862
     76          7           0       -0.354085    5.190335   -2.827139
     77          1           0       -0.001772    6.002284   -2.317002
     78          6           0        0.582240    4.649327   -3.525576
     79          8           0        3.229410   -0.395536   -1.481109
     80          1           0       -2.463150    4.811739   -0.725346
     81          1           0        1.422016   -1.985058   -2.293784
 ---------------------------------------------------------------------

 SCF Done:  E(RB3LYP) =  -2054.01803142     A.U. after    1 cycles

 Alpha  occ. eigenvalues --  -19.29417 -19.26114 -19.26030 -19.25067 -19.24629
 Alpha  occ. eigenvalues --  -19.23313 -19.22573 -19.20796 -14.59697 -14.48428
 Alpha  occ. eigenvalues --  -14.46172 -14.45993 -14.41530 -14.41069 -14.41054
 Alpha  occ. eigenvalues --  -14.35928 -10.42923 -10.42658 -10.40625 -10.39813
 Alpha  occ. eigenvalues --  -10.39634 -10.38297 -10.35131 -10.34734 -10.34090
 Alpha  occ. eigenvalues --  -10.33568 -10.32477 -10.31157 -10.30237 -10.29842
 Alpha  occ. eigenvalues --  -10.29375 -10.28770 -10.28633 -10.27125 -10.26627
 Alpha  occ. eigenvalues --  -10.26559 -10.26170 -10.25939 -10.25532 -10.25463
 Alpha  occ. eigenvalues --  -10.25337 -10.24881  -1.20871  -1.18818  -1.18601
 Alpha  occ. eigenvalues --   -1.14557  -1.13268  -1.12697  -1.11920  -1.11534
 Alpha  occ. eigenvalues --   -1.08130  -1.05894  -1.05533  -1.03904  -1.02980
 Alpha  occ. eigenvalues --   -0.99036  -0.94935  -0.94098  -0.91258  -0.91203
 Alpha  occ. eigenvalues --   -0.90240  -0.87886  -0.86689  -0.85989  -0.84554
 Alpha  occ. eigenvalues --   -0.81751  -0.80826  -0.79757  -0.79000  -0.78272
 Alpha  occ. eigenvalues --   -0.75880  -0.74205  -0.73486  -0.73058  -0.72539
 Alpha  occ. eigenvalues --   -0.71310  -0.69907  -0.69615  -0.68919  -0.68815
 Alpha  occ. eigenvalues --   -0.68032  -0.66740  -0.66562  -0.65415  -0.64824
 Alpha  occ. eigenvalues --   -0.63637  -0.62788  -0.62352  -0.61911  -0.61455
 Alpha  occ. eigenvalues --   -0.60890  -0.60667  -0.59910  -0.59126  -0.58968
 Alpha  occ. eigenvalues --   -0.58054  -0.57728  -0.56427  -0.55829  -0.55719
 Alpha  occ. eigenvalues --   -0.55252  -0.54533  -0.54401  -0.54245  -0.53983
 Alpha  occ. eigenvalues --   -0.53482  -0.52936  -0.52737  -0.52595  -0.52063
 Alpha  occ. eigenvalues --   -0.51376  -0.51329  -0.50794  -0.50565  -0.50547
 Alpha  occ. eigenvalues --   -0.50454  -0.50229  -0.50089  -0.49897  -0.49180
 Alpha  occ. eigenvalues --   -0.48535  -0.48287  -0.48056  -0.47733  -0.47195
 Alpha  occ. eigenvalues --   -0.46954  -0.46467  -0.46355  -0.45649  -0.45346
 Alpha  occ. eigenvalues --   -0.44991  -0.44722  -0.44492  -0.42709  -0.42556
 Alpha  occ. eigenvalues --   -0.42387  -0.42191  -0.41083  -0.40814  -0.40734
 Alpha  occ. eigenvalues --   -0.40686  -0.40470  -0.39410  -0.38905  -0.38117
 Alpha  occ. eigenvalues --   -0.37829  -0.37343  -0.36495  -0.35977  -0.34932
 Alpha  occ. eigenvalues --   -0.34393  -0.33977  -0.32409  -0.31575  -0.29746
 Alpha  occ. eigenvalues --   -0.29544  -0.28081
 Alpha virt. eigenvalues --   -0.11813  -0.10900  -0.09739  -0.09210  -0.08503
 Alpha virt. eigenvalues --   -0.06253  -0.05876  -0.04877  -0.03359  -0.02931
 Alpha virt. eigenvalues --   -0.02636  -0.02094  -0.00871  -0.00667  -0.00105

 Mulliken charges:
               1
     1  N   -0.756628
     2  H    0.414892
     3  H    0.430211
     4  H    0.411111
     5  C   -0.118590
     6  H    0.237786
     7  C    0.658154
     8  C   -0.294186
     9  H    0.180125
    10  H    0.182156
    11  O   -0.547181
    12  C   -0.399253
    13  H    0.249400
    14  H    0.200375
    15  C    0.607376
    16  O   -0.495521
    17  O   -0.542530
    18  N   -0.626678
    19  H    0.404224
    20  C   -0.053981
    21  H    0.174712
    22  C    0.674261
    23  C   -0.402719
    24  H    0.199760
    25  H    0.193725
    26  O   -0.547405
    27  C    0.029393
    28  C    0.002019
    29  H    0.152754
    30  C    0.105994
    31  C    0.317073
    32  C   -0.285995
    33  H    0.168653
    34  N   -0.688736
    35  H    0.338631
    36  C   -0.147420
    37  H    0.142455
    38  C   -0.155356
    39  H    0.139054
    40  C   -0.175637
    41  H    0.166989
    42  N   -0.587575
    43  H    0.338695
    44  C   -0.060624
    45  H    0.180368
    46  C    0.617505
    47  C    0.126235
    48  H    0.186841
    49  O   -0.623218
    50  C   -0.498215
    51  H    0.175282
    52  H    0.176028
    53  H    0.161725
    54  O   -0.660990
    55  H    0.415656
    56  N   -0.610621
    57  H    0.332235
    58  C   -0.070080
    59  H    0.222677
    60  C    0.621055
    61  C   -0.308504
    62  H    0.134492
    63  H    0.171881
    64  O   -0.447149
    65  C   -0.274513
    66  H    0.131893
    67  H    0.187885
    68  C   -0.162975
    69  H    0.168659
    70  H    0.167662
    71  N   -0.578354
    72  H    0.311771
    73  N   -0.739873
    74  H    0.348997
    75  H    0.339875
    76  N   -0.658904
    77  H    0.272490
    78  C    0.561092
    79  O   -0.488771
    80  H    0.442219
    81  H    0.433691
 Sum of Mulliken charges =   1.00000

 Dipole moment (field-independent basis, Debye):
    X=            -13.1422    Y=              6.0899    Z=             12.0143  Tot=             18.8188
 Quadrupole moment (field-independent basis, Debye-Ang):
   XX=           -179.6642   YY=           -182.7442   ZZ=           -162.7480
   XY=            -10.7435   XZ=            -32.5916   YZ=             18.7398

 Normal termination of Gaussian 16 at Sun May 15 01:27:38 2022.
