 Gaussian 16, Revision C.01,
 Gaussian 16:  ES64L-G16RevC.01  3-Jul-2019

 ----------------------------------------------------------------------
 # B3LYP/6-31G* empiricaldispersion=gd3 guess=read geom=check nosymm in
 tegral(ultrafinegrid)
 ----------------------------------------------------------------------

 ------------------------------------------------------
 Candidate Structure: Conf:549 Charge calc in gas phase
 ------------------------------------------------------
 Structure from the checkpoint file:  "conf-549.chk"
 Charge =  1 Multiplicity = 1

                          Input orientation:
 ---------------------------------------------------------------------
 Center     Atomic      Atomic             Coordinates (Angstroms)
 Number     Number       Type             X           Y           Z
 ---------------------------------------------------------------------
      1          7           0       -5.386696    0.929341    3.252150
      2          1           0       -6.086704    1.659395    3.097657
      3          1           0       -5.439039    0.219534    2.464212
      4          1           0       -5.584698    0.475343    4.146112
      5          6           0       -3.960550    1.439202    3.151273
      6          1           0       -3.994305    2.532179    3.151509
      7          6           0       -3.469882    0.902276    1.777370
      8          6           0       -3.115105    0.909993    4.312764
      9          1           0       -3.154223   -0.186239    4.307699
     10          1           0       -2.072581    1.179452    4.125392
     11          8           0       -4.170365    0.067103    1.189435
     12          6           0       -3.536168    1.469099    5.679566
     13          1           0       -4.571140    1.226314    5.938207
     14          1           0       -3.434818    2.560768    5.678081
     15          6           0       -2.683673    0.911385    6.808636
     16          8           0       -3.113981    0.337772    7.776774
     17          8           0       -1.371404    1.140345    6.579179
     18          7           0       -2.310810    1.389298    1.358298
     19          1           0       -1.736174    1.989076    1.949142
     20          6           0       -1.573643    0.944017    0.180981
     21          1           0       -1.917841   -0.056327   -0.095577
     22          6           0       -0.082842    0.963967    0.611074
     23          6           0       -1.722586    1.933055   -1.000009
     24          1           0       -0.756761    1.957861   -1.512137
     25          1           0       -1.846418    2.939680   -0.578671
     26          8           0        0.264147    1.709617    1.530469
     27          6           0       -2.796231    1.667396   -2.010910
     28          6           0       -3.859784    0.805984   -1.981257
     29          1           0       -4.213983    0.174333   -1.181631
     30          6           0       -2.817401    2.304757   -3.305411
     31          6           0       -3.910047    1.762118   -4.026692
     32          6           0       -1.983369    3.255111   -3.922951
     33          1           0       -1.147388    3.695236   -3.387405
     34          7           0       -4.537792    0.859902   -3.188728
     35          1           0       -5.347403    0.310943   -3.428078
     36          6           0       -3.320374    3.041018   -5.947002
     37          1           0       -3.492444    3.335057   -6.977665
     38          6           0       -4.174718    2.119763   -5.353531
     39          1           0       -5.009716    1.691058   -5.899618
     40          6           0       -2.236451    3.604839   -5.240870
     41          1           0       -1.581970    4.312919   -5.738863
     42          7           0        0.747404    0.206967   -0.134072
     43          1           0        0.310057   -0.344250   -0.877957
     44          6           0        2.183301    0.507544   -0.259278
     45          1           0        2.342848    1.434280    0.295163
     46          6           0        2.404108    0.790331   -1.750716
     47          6           0        3.073310   -0.591649    0.350701
     48          1           0        4.117942   -0.285104    0.231378
     49          8           0        2.854076   -0.196538   -2.529693
     50          6           0        2.760912   -0.829545    1.821227
     51          1           0        2.881484    0.092926    2.398251
     52          1           0        3.428013   -1.595105    2.224177
     53          1           0        1.725755   -1.163099    1.940460
     54          8           0        2.997095   -1.820833   -0.408078
     55          1           0        2.131542   -2.253169   -0.302906
     56          7           0        1.954431    1.874669   -2.262393
     57          1           0        1.397136    3.652869   -2.450833
     58          6           0        1.667449    1.832238   -3.707647
     59          1           0        2.530650    1.483660   -4.285432
     60          6           0        1.276848    3.228431   -4.196947
     61          6           0        0.462262    0.860169   -3.911062
     62          1           0       -0.474459    1.412034   -3.820506
     63          1           0        0.491369    0.168677   -3.082242
     64          8           0        1.008038    3.450071   -5.351362
     65          6           0        0.462427    0.039751   -5.197659
     66          1           0        0.434928    0.703582   -6.067671
     67          1           0        1.412627   -0.506291   -5.231480
     68          6           0       -0.734633   -0.954410   -5.328983
     69          1           0       -1.524501   -0.472941   -5.910586
     70          1           0       -0.408769   -1.834310   -5.892836
     71          7           0       -1.439238   -1.443485   -4.129142
     72          1           0       -2.157271   -0.800436   -3.813632
     73          7           0       -1.660228   -2.185028   -1.924483
     74          1           0       -1.448068   -3.034907   -1.408999
     75          1           0       -2.655133   -2.143550   -2.121670
     76          7           0        0.281683   -2.745751   -3.032750
     77          1           0        0.833994   -2.609380   -3.876658
     78          6           0       -0.854291   -2.149925   -3.097759
     79          8           0        1.155878    4.171535   -3.248800
     80          1           0       -0.873498    0.778748    7.334917
     81          1           0        3.065554   -1.048857   -1.946795
 ---------------------------------------------------------------------

 SCF Done:  E(RB3LYP) =  -2053.97418678     A.U. after    1 cycles

 Alpha  occ. eigenvalues --  -19.31158 -19.28712 -19.26842 -19.26814 -19.25532
 Alpha  occ. eigenvalues --  -19.24071 -19.23922 -19.17919 -14.62655 -14.51115
 Alpha  occ. eigenvalues --  -14.47889 -14.45883 -14.42816 -14.42804 -14.40351
 Alpha  occ. eigenvalues --  -14.36195 -10.45478 -10.44108 -10.43121 -10.40785
 Alpha  occ. eigenvalues --  -10.37517 -10.36492 -10.36369 -10.35971 -10.35646
 Alpha  occ. eigenvalues --  -10.34801 -10.34795 -10.34065 -10.29953 -10.29600
 Alpha  occ. eigenvalues --  -10.29580 -10.29221 -10.29183 -10.27245 -10.26829
 Alpha  occ. eigenvalues --  -10.25742 -10.25523 -10.25372 -10.25012 -10.24968
 Alpha  occ. eigenvalues --  -10.24766 -10.24089  -1.22094  -1.21118  -1.16483
 Alpha  occ. eigenvalues --   -1.16114  -1.15472  -1.15268  -1.13314  -1.12940
 Alpha  occ. eigenvalues --   -1.07960  -1.06647  -1.05705  -1.05165  -1.04399
 Alpha  occ. eigenvalues --   -0.98963  -0.97275  -0.96213  -0.91969  -0.91789
 Alpha  occ. eigenvalues --   -0.90667  -0.89273  -0.88360  -0.85868  -0.85416
 Alpha  occ. eigenvalues --   -0.82059  -0.80712  -0.80326  -0.79655  -0.79140
 Alpha  occ. eigenvalues --   -0.77330  -0.76497  -0.75207  -0.74446  -0.73868
 Alpha  occ. eigenvalues --   -0.73046  -0.72028  -0.69886  -0.69353  -0.68805
 Alpha  occ. eigenvalues --   -0.67918  -0.66912  -0.66346  -0.66037  -0.64772
 Alpha  occ. eigenvalues --   -0.64412  -0.64242  -0.63831  -0.62096  -0.62023
 Alpha  occ. eigenvalues --   -0.61772  -0.61168  -0.60844  -0.60003  -0.59415
 Alpha  occ. eigenvalues --   -0.59144  -0.59000  -0.58191  -0.58004  -0.57226
 Alpha  occ. eigenvalues --   -0.57046  -0.56560  -0.55499  -0.55414  -0.54761
 Alpha  occ. eigenvalues --   -0.54202  -0.53802  -0.53520  -0.53184  -0.52843
 Alpha  occ. eigenvalues --   -0.52441  -0.52374  -0.51895  -0.51533  -0.51137
 Alpha  occ. eigenvalues --   -0.50843  -0.50510  -0.50394  -0.49908  -0.49701
 Alpha  occ. eigenvalues --   -0.49162  -0.48923  -0.48697  -0.47964  -0.47895
 Alpha  occ. eigenvalues --   -0.47659  -0.47154  -0.46991  -0.46195  -0.45901
 Alpha  occ. eigenvalues --   -0.45752  -0.45141  -0.43537  -0.43431  -0.43230
 Alpha  occ. eigenvalues --   -0.42862  -0.42122  -0.41928  -0.41616  -0.40905
 Alpha  occ. eigenvalues --   -0.40619  -0.40182  -0.39832  -0.39190  -0.39021
 Alpha  occ. eigenvalues --   -0.37663  -0.37279  -0.36328  -0.36026  -0.34453
 Alpha  occ. eigenvalues --   -0.34371  -0.34207  -0.33488  -0.31575  -0.30267
 Alpha  occ. eigenvalues --   -0.29338  -0.27818
 Alpha virt. eigenvalues --   -0.14232  -0.13410  -0.10754  -0.10599  -0.08604
 Alpha virt. eigenvalues --   -0.08394  -0.07430  -0.06390  -0.04736  -0.04479
 Alpha virt. eigenvalues --   -0.04341  -0.03565  -0.03271  -0.02665  -0.02591

 Mulliken charges:
               1
     1  N   -0.753716
     2  H    0.424560
     3  H    0.431246
     4  H    0.419315
     5  C   -0.113844
     6  H    0.223649
     7  C    0.653834
     8  C   -0.319980
     9  H    0.189709
    10  H    0.231506
    11  O   -0.538125
    12  C   -0.364609
    13  H    0.167478
    14  H    0.203944
    15  C    0.580581
    16  O   -0.419966
    17  O   -0.556852
    18  N   -0.584145
    19  H    0.370706
    20  C   -0.095104
    21  H    0.209884
    22  C    0.615875
    23  C   -0.367550
    24  H    0.189992
    25  H    0.171360
    26  O   -0.533380
    27  C    0.073676
    28  C   -0.053213
    29  H    0.168877
    30  C    0.061446
    31  C    0.304800
    32  C   -0.241007
    33  H    0.160830
    34  N   -0.701007
    35  H    0.331875
    36  C   -0.153597
    37  H    0.145094
    38  C   -0.168448
    39  H    0.134626
    40  C   -0.132379
    41  H    0.167402
    42  N   -0.615887
    43  H    0.378122
    44  C   -0.064444
    45  H    0.213760
    46  C    0.511522
    47  C    0.105882
    48  H    0.183195
    49  O   -0.612747
    50  C   -0.465751
    51  H    0.175594
    52  H    0.183776
    53  H    0.145893
    54  O   -0.637082
    55  H    0.418862
    56  N   -0.517055
    57  H    0.427817
    58  C   -0.062736
    59  H    0.193857
    60  C    0.592949
    61  C   -0.291809
    62  H    0.175915
    63  H    0.136560
    64  O   -0.465986
    65  C   -0.284959
    66  H    0.184868
    67  H    0.149200
    68  C   -0.162841
    69  H    0.170388
    70  H    0.169652
    71  N   -0.605102
    72  H    0.342429
    73  N   -0.769800
    74  H    0.335497
    75  H    0.318493
    76  N   -0.672669
    77  H    0.294853
    78  C    0.570019
    79  O   -0.577368
    80  H    0.435192
    81  H    0.456597
 Sum of Mulliken charges =   1.00000

 Dipole moment (field-independent basis, Debye):
    X=            -19.2353    Y=              0.5817    Z=             13.1912  Tot=             23.3312
 Quadrupole moment (field-independent basis, Debye-Ang):
   XX=           -120.8588   YY=           -254.5635   ZZ=           -191.0125
   XY=            -22.4046   XZ=            -33.5555   YZ=             36.5877

 Normal termination of Gaussian 16 at Sun May 15 01:27:36 2022.
