 Gaussian 16, Revision C.01,
 Gaussian 16:  ES64L-G16RevC.01  3-Jul-2019

 ----------------------------------------------------------------------
 # B3LYP/6-31G* empiricaldispersion=gd3 guess=read geom=check nosymm in
 tegral(ultrafinegrid)
 ----------------------------------------------------------------------

 ------------------------------------------------------
 Candidate Structure: Conf:234 Charge calc in gas phase
 ------------------------------------------------------
 Structure from the checkpoint file:  "conf-234.chk"
 Charge =  1 Multiplicity = 1

                          Input orientation:
 ---------------------------------------------------------------------
 Center     Atomic      Atomic             Coordinates (Angstroms)
 Number     Number       Type             X           Y           Z
 ---------------------------------------------------------------------
      1          7           0       -6.034813    1.032176    2.745299
      2          1           0       -6.681468    1.822782    2.671006
      3          1           0       -5.955454    0.535917    1.813112
      4          1           0       -6.405031    0.377922    3.441967
      5          6           0       -4.596850    1.443215    3.025500
      6          1           0       -4.576316    2.536919    3.055799
      7          6           0       -3.839929    0.934080    1.763799
      8          6           0       -4.093824    0.847185    4.343367
      9          1           0       -4.156303   -0.247954    4.286509
     10          1           0       -3.031272    1.084386    4.447002
     11          8           0       -4.486287    0.313323    0.911111
     12          6           0       -4.842318    1.378271    5.577454
     13          1           0       -5.914853    1.162454    5.547473
     14          1           0       -4.719171    2.466984    5.643956
     15          6           0       -4.326817    0.764043    6.872841
     16          8           0       -5.020022    0.234998    7.703361
     17          8           0       -2.983158    0.896468    6.963623
     18          7           0       -2.535864    1.202017    1.688167
     19          1           0       -2.068650    1.746595    2.403650
     20          6           0       -1.747726    0.822517    0.512065
     21          1           0       -2.086763   -0.163459    0.182204
     22          6           0       -0.296979    0.760431    0.883395
     23          6           0       -1.962856    1.816536   -0.703627
     24          1           0       -1.518547    2.787276   -0.454867
     25          1           0       -3.050336    1.950519   -0.758611
     26          8           0        0.062341    1.403340    1.964578
     27          6           0       -1.418253    1.245364   -1.963354
     28          6           0       -0.365753    1.707168   -2.738026
     29          1           0        0.214107    2.615417   -2.636578
     30          6           0       -1.832684   -0.007252   -2.541741
     31          6           0       -0.975046   -0.249030   -3.647796
     32          6           0       -2.828067   -0.951572   -2.220760
     33          1           0       -3.531767   -0.770632   -1.410155
     34          7           0       -0.117715    0.830710   -3.754242
     35          1           0        0.602056    0.928120   -4.473671
     36          6           0       -2.032574   -2.336188   -4.064226
     37          1           0       -2.116067   -3.259690   -4.629756
     38          6           0       -1.050140   -1.416969   -4.413650
     39          1           0       -0.330296   -1.603901   -5.207213
     40          6           0       -2.918011   -2.105305   -2.989753
     41          1           0       -3.680668   -2.845061   -2.761788
     42          7           0        0.545659    0.173136    0.084161
     43          1           0        0.247571   -0.393491   -0.744437
     44          6           0        1.992408    0.436021   -0.070374
     45          1           0        2.156162    1.520331   -0.036125
     46          6           0        2.251803   -0.120489   -1.508284
     47          6           0        2.828934   -0.214851    1.036099
     48          1           0        2.588188   -1.282108    1.076736
     49          8           0        1.387282   -0.853891   -1.991280
     50          6           0        4.326691   -0.003940    0.926601
     51          1           0        4.692941   -0.609781    0.090580
     52          1           0        4.807649   -0.356419    1.845459
     53          1           0        4.565509    1.060188    0.809709
     54          8           0        2.332891    0.451039    2.254839
     55          1           0        1.024788    1.081418    2.139299
     56          7           0        3.319844    0.371354   -2.150253
     57          1           0        4.003912    0.828624   -1.557230
     58          6           0        3.936856   -0.475164   -3.183249
     59          1           0        3.127842   -0.774626   -3.854289
     60          6           0        4.491752   -1.806381   -2.506467
     61          6           0        4.989952    0.353149   -3.931122
     62          1           0        5.774455    0.664873   -3.225793
     63          1           0        4.506556    1.277379   -4.280691
     64          8           0        5.009725   -2.598242   -3.312089
     65          6           0        5.662899   -0.362019   -5.113001
     66          1           0        6.269263    0.369604   -5.666816
     67          1           0        6.331324   -1.135402   -4.730830
     68          6           0        4.673519   -1.052639   -6.057538
     69          1           0        5.204983   -1.453392   -6.929203
     70          1           0        4.238640   -1.898858   -5.518338
     71          7           0        3.605729   -0.145926   -6.495131
     72          1           0        3.856630    0.833464   -6.475011
     73          7           0        1.443160    0.748430   -6.403289
     74          1           0        0.523810    0.467573   -6.736336
     75          1           0        1.805102    1.469161   -7.023742
     76          7           0        1.675939   -1.531752   -6.134542
     77          1           0        2.329481   -2.306932   -6.042863
     78          6           0        2.268984   -0.412866   -6.341717
     79          8           0        4.294513   -1.905107   -1.264149
     80          1           0       -2.707994    0.507114    7.816678
     81          1           0        2.517205   -0.104844    3.027132
 ---------------------------------------------------------------------

 SCF Done:  E(RB3LYP) =  -2053.92993636     A.U. after    1 cycles

 Alpha  occ. eigenvalues --  -19.33564 -19.32373 -19.30691 -19.30034 -19.26618
 Alpha  occ. eigenvalues --  -19.20097 -19.09417 -19.08596 -14.63506 -14.54012
 Alpha  occ. eigenvalues --  -14.51417 -14.43671 -14.42321 -14.40742 -14.40027
 Alpha  occ. eigenvalues --  -14.33135 -10.47533 -10.46218 -10.45220 -10.44811
 Alpha  occ. eigenvalues --  -10.38725 -10.38038 -10.37083 -10.36011 -10.35781
 Alpha  occ. eigenvalues --  -10.35494 -10.33267 -10.31850 -10.29662 -10.27520
 Alpha  occ. eigenvalues --  -10.27467 -10.26261 -10.25143 -10.25011 -10.24961
 Alpha  occ. eigenvalues --  -10.24901 -10.24788 -10.24173 -10.23680 -10.23184
 Alpha  occ. eigenvalues --  -10.23127 -10.21945  -1.24672  -1.23159  -1.23104
 Alpha  occ. eigenvalues --   -1.17496  -1.16106  -1.14428  -1.12751  -1.10502
 Alpha  occ. eigenvalues --   -1.08024  -1.04238  -1.02773  -1.02538  -0.99083
 Alpha  occ. eigenvalues --   -0.98684  -0.94136  -0.94046  -0.93799  -0.90792
 Alpha  occ. eigenvalues --   -0.89899  -0.89126  -0.89050  -0.86215  -0.83103
 Alpha  occ. eigenvalues --   -0.82302  -0.81738  -0.80115  -0.79343  -0.78107
 Alpha  occ. eigenvalues --   -0.77518  -0.77005  -0.76055  -0.75499  -0.74864
 Alpha  occ. eigenvalues --   -0.74177  -0.73480  -0.71171  -0.70392  -0.69011
 Alpha  occ. eigenvalues --   -0.68243  -0.67543  -0.66067  -0.65519  -0.64994
 Alpha  occ. eigenvalues --   -0.64472  -0.63878  -0.63444  -0.62773  -0.62361
 Alpha  occ. eigenvalues --   -0.61824  -0.61308  -0.60954  -0.60389  -0.59969
 Alpha  occ. eigenvalues --   -0.59734  -0.59269  -0.58973  -0.58327  -0.57302
 Alpha  occ. eigenvalues --   -0.56710  -0.56009  -0.55660  -0.55302  -0.54880
 Alpha  occ. eigenvalues --   -0.54585  -0.53721  -0.53443  -0.53338  -0.52547
 Alpha  occ. eigenvalues --   -0.52297  -0.52192  -0.51588  -0.51031  -0.50706
 Alpha  occ. eigenvalues --   -0.50246  -0.49792  -0.49659  -0.48981  -0.48675
 Alpha  occ. eigenvalues --   -0.48473  -0.48330  -0.47883  -0.47495  -0.47136
 Alpha  occ. eigenvalues --   -0.46218  -0.45579  -0.45214  -0.44927  -0.44460
 Alpha  occ. eigenvalues --   -0.44360  -0.43965  -0.43260  -0.42672  -0.42054
 Alpha  occ. eigenvalues --   -0.41548  -0.41310  -0.40950  -0.40104  -0.39526
 Alpha  occ. eigenvalues --   -0.39323  -0.39214  -0.38696  -0.38318  -0.37892
 Alpha  occ. eigenvalues --   -0.35994  -0.35050  -0.33556  -0.33378  -0.32138
 Alpha  occ. eigenvalues --   -0.30962  -0.28436  -0.27273  -0.26921  -0.24766
 Alpha  occ. eigenvalues --   -0.24034  -0.22415
 Alpha virt. eigenvalues --   -0.16336  -0.15759  -0.14379  -0.11920  -0.09686
 Alpha virt. eigenvalues --   -0.08648  -0.07790  -0.06189  -0.06055  -0.04810
 Alpha virt. eigenvalues --   -0.04707  -0.04143  -0.03534  -0.02662  -0.02023

 Mulliken charges:
               1
     1  N   -0.758339
     2  H    0.425507
     3  H    0.442988
     4  H    0.422234
     5  C   -0.113546
     6  H    0.225702
     7  C    0.661402
     8  C   -0.315868
     9  H    0.195535
    10  H    0.215366
    11  O   -0.518464
    12  C   -0.365356
    13  H    0.172476
    14  H    0.202536
    15  C    0.585115
    16  O   -0.414115
    17  O   -0.563295
    18  N   -0.613326
    19  H    0.373351
    20  C   -0.066666
    21  H    0.235554
    22  C    0.614331
    23  C   -0.361681
    24  H    0.158969
    25  H    0.181745
    26  O   -0.611929
    27  C    0.027834
    28  C   -0.004647
    29  H    0.149550
    30  C    0.066635
    31  C    0.291170
    32  C   -0.247888
    33  H    0.121443
    34  N   -0.675921
    35  H    0.393632
    36  C   -0.165685
    37  H    0.141816
    38  C   -0.147677
    39  H    0.219733
    40  C   -0.135288
    41  H    0.124109
    42  N   -0.581004
    43  H    0.436952
    44  C   -0.135618
    45  H    0.187291
    46  C    0.672515
    47  C    0.144869
    48  H    0.197498
    49  O   -0.529315
    50  C   -0.501151
    51  H    0.267120
    52  H    0.154421
    53  H    0.136259
    54  O   -0.684636
    55  H    0.486158
    56  N   -0.590404
    57  H    0.328767
    58  C   -0.101301
    59  H    0.189963
    60  C    0.605548
    61  C   -0.284398
    62  H    0.133304
    63  H    0.112065
    64  O   -0.561198
    65  C   -0.280513
    66  H    0.122211
    67  H    0.198111
    68  C   -0.154727
    69  H    0.155296
    70  H    0.199305
    71  N   -0.593831
    72  H    0.316124
    73  N   -0.789052
    74  H    0.346440
    75  H    0.322262
    76  N   -0.646159
    77  H    0.304393
    78  C    0.586709
    79  O   -0.610119
    80  H    0.437074
    81  H    0.433729
 Sum of Mulliken charges =   1.00000

 Dipole moment (field-independent basis, Debye):
    X=            -22.0482    Y=             15.6186    Z=             16.9954  Tot=             31.9204
 Quadrupole moment (field-independent basis, Debye-Ang):
   XX=           -141.2012   YY=           -242.2484   ZZ=           -159.5201
   XY=              3.9658   XZ=            -57.0002   YZ=            -10.4382

 Normal termination of Gaussian 16 at Sun May 15 01:26:33 2022.
