 Gaussian 16, Revision C.01,
 Gaussian 16:  ES64L-G16RevC.01  3-Jul-2019

 ----------------------------------------------------------------------
 # B3LYP/6-31G* empiricaldispersion=gd3 guess=read geom=check nosymm in
 tegral(ultrafinegrid)
 ----------------------------------------------------------------------

 ------------------------------------------------------
 Candidate Structure: Conf:315 Charge calc in gas phase
 ------------------------------------------------------
 Structure from the checkpoint file:  "conf-315.chk"
 Charge =  1 Multiplicity = 1

                          Input orientation:
 ---------------------------------------------------------------------
 Center     Atomic      Atomic             Coordinates (Angstroms)
 Number     Number       Type             X           Y           Z
 ---------------------------------------------------------------------
      1          7           0       -5.797409    1.008627    3.538358
      2          1           0       -6.153139    0.708021    2.613211
      3          1           0       -5.638993    0.152719    4.079799
      4          1           0       -6.440359    1.646198    4.059052
      5          6           0       -4.520327    1.770401    3.289110
      6          1           0       -4.855363    2.767313    2.985972
      7          6           0       -3.886323    1.084679    2.055278
      8          6           0       -3.649510    1.873525    4.551414
      9          1           0       -3.098869    0.938053    4.702215
     10          1           0       -2.902251    2.652262    4.363690
     11          8           0       -4.596658    0.345082    1.373583
     12          6           0       -4.396538    2.210497    5.868719
     13          1           0       -3.666318    2.484566    6.632484
     14          1           0       -4.925501    1.323294    6.238557
     15          6           0       -5.443858    3.301274    5.730443
     16          8           0       -6.430658    3.197379    5.008808
     17          8           0       -5.190928    4.372155    6.469536
     18          7           0       -2.605866    1.374515    1.780468
     19          1           0       -2.051134    1.961876    2.389120
     20          6           0       -1.961469    0.845213    0.574239
     21          1           0       -2.299691   -0.189469    0.461794
     22          6           0       -0.460783    0.828212    0.795182
     23          6           0       -2.383909    1.630413   -0.702132
     24          1           0       -1.933694    2.629179   -0.666768
     25          1           0       -3.469100    1.766300   -0.620897
     26          8           0       -0.027340    1.390480    1.895012
     27          6           0       -2.013885    0.933763   -1.976214
     28          6           0       -2.243678   -0.389656   -2.298492
     29          1           0       -2.692742   -1.183747   -1.716240
     30          6           0       -1.418811    1.545496   -3.137783
     31          6           0       -1.325289    0.535808   -4.131160
     32          6           0       -0.983707    2.846754   -3.446382
     33          1           0       -1.046883    3.645158   -2.710418
     34          7           0       -1.840218   -0.624056   -3.589089
     35          1           0       -1.782589   -1.535293   -4.018504
     36          6           0       -0.418779    2.085816   -5.695671
     37          1           0       -0.028440    2.306074   -6.683963
     38          6           0       -0.829119    0.790304   -5.412795
     39          1           0       -0.782827    0.006715   -6.163511
     40          6           0       -0.486979    3.101942   -4.717371
     41          1           0       -0.151710    4.102961   -4.972386
     42          7           0        0.326164    0.286213   -0.079839
     43          1           0       -0.028314   -0.160551   -0.963508
     44          6           0        1.801923    0.322501   -0.158671
     45          1           0        2.144973    1.355335   -0.028788
     46          6           0        2.049683   -0.171063   -1.630583
     47          6           0        2.450325   -0.572469    0.918437
     48          1           0        2.052192   -1.587053    0.812910
     49          8           0        1.085071   -0.714588   -2.202315
     50          6           0        3.966109   -0.577124    0.947355
     51          1           0        4.434816   -0.970644    0.033166
     52          1           0        4.302646   -1.199261    1.785657
     53          1           0        4.351778    0.441451    1.083926
     54          8           0        1.955860   -0.071581    2.219375
     55          1           0        0.900154    0.987259    2.125133
     56          7           0        3.251632    0.062355   -2.116370
     57          1           0        4.067012    0.260719   -1.496309
     58          6           0        3.851139   -0.631316   -3.268040
     59          1           0        3.200632   -1.456539   -3.567834
     60          6           0        5.235553   -1.177946   -2.725710
     61          6           0        4.103259    0.318394   -4.439584
     62          1           0        4.597267   -0.270944   -5.219074
     63          1           0        4.824628    1.083906   -4.116300
     64          8           0        5.828520   -1.960681   -3.466230
     65          6           0        2.850738    1.000019   -4.987415
     66          1           0        2.116718    0.242804   -5.293520
     67          1           0        2.361474    1.586359   -4.197452
     68          6           0        3.158800    1.936023   -6.163820
     69          1           0        2.263537    2.497606   -6.443400
     70          1           0        3.911655    2.669920   -5.848580
     71          7           0        3.673312    1.247623   -7.349159
     72          1           0        4.664559    1.326746   -7.522363
     73          7           0        1.538048    0.811487   -8.195881
     74          1           0        1.074954    0.467195   -9.031196
     75          1           0        1.352710    0.205617   -7.401915
     76          7           0        3.322288    0.777428   -9.674520
     77          1           0        4.307625    1.029495   -9.773946
     78          6           0        2.914603    0.943929   -8.468562
     79          8           0        5.566564   -0.682409   -1.593891
     80          1           0       -5.917682    5.018662    6.356670
     81          1           0        2.718902    0.058731    2.805656
 ---------------------------------------------------------------------

 SCF Done:  E(RB3LYP) =  -2053.92475983     A.U. after    1 cycles

 Alpha  occ. eigenvalues --  -19.36602 -19.34485 -19.31795 -19.30567 -19.29740
 Alpha  occ. eigenvalues --  -19.20350 -19.09747 -19.08305 -14.62341 -14.53822
 Alpha  occ. eigenvalues --  -14.52508 -14.46404 -14.41468 -14.37850 -14.37131
 Alpha  occ. eigenvalues --  -14.30672 -10.49928 -10.47555 -10.47211 -10.44283
 Alpha  occ. eigenvalues --  -10.39996 -10.39372 -10.38077 -10.37207 -10.36992
 Alpha  occ. eigenvalues --  -10.36156 -10.32517 -10.31287 -10.30558 -10.29620
 Alpha  occ. eigenvalues --  -10.28046 -10.27218 -10.26614 -10.26388 -10.26289
 Alpha  occ. eigenvalues --  -10.25957 -10.25465 -10.25273 -10.25035 -10.24337
 Alpha  occ. eigenvalues --  -10.21641 -10.21031  -1.27968  -1.25234  -1.22338
 Alpha  occ. eigenvalues --   -1.19109  -1.16753  -1.16522  -1.12679  -1.10333
 Alpha  occ. eigenvalues --   -1.08697  -1.06445  -1.02748  -1.00064  -0.99223
 Alpha  occ. eigenvalues --   -0.98525  -0.94970  -0.93814  -0.91743  -0.91395
 Alpha  occ. eigenvalues --   -0.91302  -0.90020  -0.87509  -0.86729  -0.84038
 Alpha  occ. eigenvalues --   -0.83448  -0.82250  -0.81241  -0.80958  -0.79048
 Alpha  occ. eigenvalues --   -0.78233  -0.77034  -0.76708  -0.76326  -0.76042
 Alpha  occ. eigenvalues --   -0.74980  -0.74000  -0.71739  -0.70545  -0.70065
 Alpha  occ. eigenvalues --   -0.68780  -0.68419  -0.67363  -0.66675  -0.65714
 Alpha  occ. eigenvalues --   -0.65042  -0.64618  -0.64312  -0.63474  -0.63163
 Alpha  occ. eigenvalues --   -0.62748  -0.62447  -0.61994  -0.61670  -0.60881
 Alpha  occ. eigenvalues --   -0.60818  -0.59685  -0.59251  -0.58450  -0.58170
 Alpha  occ. eigenvalues --   -0.57400  -0.57027  -0.56415  -0.55923  -0.55746
 Alpha  occ. eigenvalues --   -0.55083  -0.54882  -0.54839  -0.54519  -0.53604
 Alpha  occ. eigenvalues --   -0.53250  -0.52676  -0.52388  -0.51693  -0.50852
 Alpha  occ. eigenvalues --   -0.50372  -0.50305  -0.49955  -0.49536  -0.49193
 Alpha  occ. eigenvalues --   -0.49038  -0.48810  -0.48592  -0.47777  -0.47397
 Alpha  occ. eigenvalues --   -0.47048  -0.46715  -0.45885  -0.45669  -0.45505
 Alpha  occ. eigenvalues --   -0.44417  -0.43974  -0.43965  -0.43449  -0.43032
 Alpha  occ. eigenvalues --   -0.42642  -0.41700  -0.41595  -0.41109  -0.40865
 Alpha  occ. eigenvalues --   -0.40561  -0.39192  -0.38400  -0.37536  -0.36940
 Alpha  occ. eigenvalues --   -0.36118  -0.35595  -0.34994  -0.32441  -0.29948
 Alpha  occ. eigenvalues --   -0.29356  -0.28583  -0.28390  -0.24950  -0.24708
 Alpha  occ. eigenvalues --   -0.24469  -0.22180
 Alpha virt. eigenvalues --   -0.17134  -0.16708  -0.15698  -0.12640  -0.09273
 Alpha virt. eigenvalues --   -0.08806  -0.07050  -0.06723  -0.06287  -0.05084
 Alpha virt. eigenvalues --   -0.04917  -0.04642  -0.04511  -0.04345  -0.03157

 Mulliken charges:
               1
     1  N   -0.750725
     2  H    0.431564
     3  H    0.407817
     4  H    0.442635
     5  C   -0.130099
     6  H    0.245126
     7  C    0.660179
     8  C   -0.321187
     9  H    0.200519
    10  H    0.202842
    11  O   -0.520841
    12  C   -0.381930
    13  H    0.232627
    14  H    0.196914
    15  C    0.616332
    16  O   -0.490592
    17  O   -0.515640
    18  N   -0.625697
    19  H    0.371487
    20  C   -0.065700
    21  H    0.226386
    22  C    0.643523
    23  C   -0.338924
    24  H    0.166154
    25  H    0.190658
    26  O   -0.616935
    27  C    0.005724
    28  C   -0.000528
    29  H    0.156589
    30  C    0.096620
    31  C    0.338870
    32  C   -0.211484
    33  H    0.114756
    34  N   -0.672830
    35  H    0.347379
    36  C   -0.152499
    37  H    0.184244
    38  C   -0.168406
    39  H    0.138451
    40  C   -0.139622
    41  H    0.140434
    42  N   -0.591949
    43  H    0.439298
    44  C   -0.118482
    45  H    0.194249
    46  C    0.623830
    47  C    0.159452
    48  H    0.181418
    49  O   -0.567212
    50  C   -0.546233
    51  H    0.275182
    52  H    0.168546
    53  H    0.160018
    54  O   -0.695121
    55  H    0.478699
    56  N   -0.581251
    57  H    0.361770
    58  C   -0.103401
    59  H    0.158007
    60  C    0.593080
    61  C   -0.257954
    62  H    0.178743
    63  H    0.130020
    64  O   -0.543731
    65  C   -0.246240
    66  H    0.127314
    67  H    0.126360
    68  C   -0.150263
    69  H    0.162569
    70  H    0.141292
    71  N   -0.591142
    72  H    0.323363
    73  N   -0.755567
    74  H    0.335083
    75  H    0.322049
    76  N   -0.640473
    77  H    0.265573
    78  C    0.564827
    79  O   -0.622285
    80  H    0.447450
    81  H    0.438924
 Sum of Mulliken charges =   1.00000

 Dipole moment (field-independent basis, Debye):
    X=            -30.5712    Y=             12.5222    Z=             28.4126  Tot=             43.5738
 Quadrupole moment (field-independent basis, Debye-Ang):
   XX=           -193.9235   YY=           -211.8666   ZZ=           -188.3674
   XY=             -6.8879   XZ=            -50.7210   YZ=             33.8763

 Normal termination of Gaussian 16 at Sun May 15 01:27:28 2022.
