 Gaussian 16, Revision C.01,
 Gaussian 16:  ES64L-G16RevC.01  3-Jul-2019

 ----------------------------------------------------------------------
 # B3LYP/6-31G* empiricaldispersion=gd3 guess=read geom=check nosymm in
 tegral(ultrafinegrid)
 ----------------------------------------------------------------------

 ------------------------------------------------------
 Candidate Structure: Conf:879 Charge calc in gas phase
 ------------------------------------------------------
 Structure from the checkpoint file:  "conf-879.chk"
 Charge =  1 Multiplicity = 1

                          Input orientation:
 ---------------------------------------------------------------------
 Center     Atomic      Atomic             Coordinates (Angstroms)
 Number     Number       Type             X           Y           Z
 ---------------------------------------------------------------------
      1          7           0       -3.453442    3.130737    3.787317
      2          1           0       -4.476099    3.194921    3.807443
      3          1           0       -3.187270    2.113258    3.876643
      4          1           0       -3.072258    3.685041    4.559859
      5          6           0       -2.856802    3.506421    2.439371
      6          1           0       -3.537243    4.206189    1.947379
      7          6           0       -2.765311    2.135362    1.727520
      8          6           0       -1.464501    4.126182    2.664197
      9          1           0       -1.549448    4.876653    3.463463
     10          1           0       -0.763079    3.351392    2.990935
     11          8           0       -2.738966    1.126843    2.440640
     12          6           0       -0.887396    4.809828    1.418113
     13          1           0       -1.518005    5.640033    1.086706
     14          1           0       -0.770336    4.072133    0.618960
     15          6           0        0.520215    5.312540    1.747331
     16          8           0        1.378792    4.531097    2.142222
     17          8           0        0.650518    6.609552    1.586086
     18          7           0       -2.706178    2.118975    0.386834
     19          1           0       -2.583832    3.007042   -0.086184
     20          6           0       -2.124795    0.947808   -0.279629
     21          1           0       -2.667576    0.068351    0.075410
     22          6           0       -0.638763    0.834709    0.149171
     23          6           0       -2.307704    1.089693   -1.810063
     24          1           0       -1.738171    1.964853   -2.147791
     25          1           0       -3.368553    1.310905   -1.987126
     26          8           0       -0.052725    1.795530    0.650376
     27          6           0       -1.871245   -0.114625   -2.596055
     28          6           0       -2.400432   -1.386062   -2.518004
     29          1           0       -3.222861   -1.763198   -1.924081
     30          6           0       -0.830086   -0.157259   -3.591784
     31          6           0       -0.773234   -1.488529   -4.078550
     32          6           0        0.064297    0.795280   -4.107094
     33          1           0        0.056696    1.816902   -3.740912
     34          7           0       -1.731385   -2.216345   -3.396427
     35          1           0       -1.977349   -3.175888   -3.588396
     36          6           0        1.011893   -0.929118   -5.546899
     37          1           0        1.733870   -1.203273   -6.310516
     38          6           0        0.143060   -1.893133   -5.055280
     39          1           0        0.171512   -2.917494   -5.415885
     40          6           0        0.971559    0.402852   -5.079535
     41          1           0        1.661324    1.131130   -5.497191
     42          7           0       -0.084137   -0.384509   -0.036248
     43          1           0       -0.533004   -0.990206   -0.718831
     44          6           0        1.331932   -0.635741    0.210887
     45          1           0        1.665513    0.082479    0.963861
     46          6           0        2.140764   -0.366559   -1.074449
     47          6           0        1.544357   -2.051904    0.783962
     48          1           0        2.623102   -2.195307    0.891513
     49          8           0        1.781166   -1.177634   -2.139615
     50          6           0        0.854731   -2.247740    2.128152
     51          1           0        1.249301   -1.548462    2.872650
     52          1           0        1.024862   -3.266459    2.489467
     53          1           0       -0.225004   -2.073062    2.043293
     54          8           0        1.125445   -3.044757   -0.173382
     55          1           0        0.211138   -3.304087    0.017821
     56          7           0        2.047650    1.008219   -1.507711
     57          1           0        1.857915    1.599736   -0.703642
     58          6           0        3.364226    1.309912   -2.080090
     59          1           0        3.351072    1.040348   -3.144720
     60          6           0        4.309478    0.322640   -1.375096
     61          6           0        3.823469    2.762950   -1.930694
     62          1           0        3.168612    3.403708   -2.534850
     63          1           0        4.830097    2.827277   -2.359041
     64          8           0        5.510117    0.340017   -1.340773
     65          6           0        3.851719    3.266343   -0.480481
     66          1           0        2.843358    3.240155   -0.042492
     67          1           0        4.491157    2.616252    0.129228
     68          6           0        4.348265    4.711876   -0.389949
     69          1           0        5.414184    4.758573   -0.650681
     70          1           0        3.798971    5.319013   -1.124395
     71          7           0        4.123891    5.234786    0.962805
     72          1           0        3.563098    4.621888    1.546502
     73          7           0        4.127524    7.466797    0.246745
     74          1           0        4.084790    8.428207    0.552148
     75          1           0        4.819584    7.255897   -0.454051
     76          7           0        3.191145    6.967512    2.290313
     77          1           0        3.087310    6.189830    2.943354
     78          6           0        3.817518    6.548630    1.211776
     79          8           0        3.547071   -0.613014   -0.735261
     80          1           0        1.634218    6.907151    1.832594
     81          1           0        1.821966   -2.107372   -1.835371
 ---------------------------------------------------------------------

 SCF Done:  E(RB3LYP) =  -2054.01089767     A.U. after    1 cycles

 Alpha  occ. eigenvalues --  -19.28095 -19.25691 -19.25250 -19.24805 -19.22941
 Alpha  occ. eigenvalues --  -19.22658 -19.21524 -19.20265 -14.61516 -14.50904
 Alpha  occ. eigenvalues --  -14.46309 -14.46111 -14.42459 -14.42414 -14.40734
 Alpha  occ. eigenvalues --  -14.35544 -10.44815 -10.41903 -10.40287 -10.40142
 Alpha  occ. eigenvalues --  -10.39854 -10.37796 -10.36479 -10.35605 -10.34082
 Alpha  occ. eigenvalues --  -10.33259 -10.32066 -10.30731 -10.30669 -10.30592
 Alpha  occ. eigenvalues --  -10.30141 -10.30119 -10.29119 -10.27272 -10.27069
 Alpha  occ. eigenvalues --  -10.27029 -10.26906 -10.25703 -10.25538 -10.25394
 Alpha  occ. eigenvalues --  -10.25070 -10.24644  -1.20646  -1.18455  -1.16947
 Alpha  occ. eigenvalues --   -1.15440  -1.14563  -1.12363  -1.11261  -1.08316
 Alpha  occ. eigenvalues --   -1.07696  -1.07393  -1.05831  -1.05712  -1.02996
 Alpha  occ. eigenvalues --   -0.98987  -0.96604  -0.95111  -0.91857  -0.91462
 Alpha  occ. eigenvalues --   -0.90429  -0.87922  -0.87016  -0.86618  -0.84734
 Alpha  occ. eigenvalues --   -0.82162  -0.80539  -0.79864  -0.79178  -0.78538
 Alpha  occ. eigenvalues --   -0.76604  -0.75246  -0.74206  -0.73472  -0.72941
 Alpha  occ. eigenvalues --   -0.71423  -0.71106  -0.69508  -0.68793  -0.68682
 Alpha  occ. eigenvalues --   -0.68046  -0.67591  -0.66748  -0.66103  -0.65413
 Alpha  occ. eigenvalues --   -0.64500  -0.64140  -0.62943  -0.62389  -0.61819
 Alpha  occ. eigenvalues --   -0.61330  -0.60646  -0.59584  -0.59081  -0.58494
 Alpha  occ. eigenvalues --   -0.57897  -0.56942  -0.56111  -0.56002  -0.55839
 Alpha  occ. eigenvalues --   -0.55695  -0.55157  -0.54887  -0.54641  -0.54576
 Alpha  occ. eigenvalues --   -0.54039  -0.53618  -0.53432  -0.53069  -0.52683
 Alpha  occ. eigenvalues --   -0.52556  -0.51833  -0.51457  -0.51347  -0.50538
 Alpha  occ. eigenvalues --   -0.50344  -0.50127  -0.49922  -0.49327  -0.48862
 Alpha  occ. eigenvalues --   -0.48800  -0.48496  -0.48052  -0.47587  -0.47362
 Alpha  occ. eigenvalues --   -0.47024  -0.46615  -0.46243  -0.46062  -0.45557
 Alpha  occ. eigenvalues --   -0.45318  -0.44254  -0.43317  -0.42717  -0.42605
 Alpha  occ. eigenvalues --   -0.42501  -0.42337  -0.41906  -0.41679  -0.41141
 Alpha  occ. eigenvalues --   -0.40559  -0.39964  -0.38886  -0.38648  -0.37997
 Alpha  occ. eigenvalues --   -0.37062  -0.36807  -0.35893  -0.35762  -0.34788
 Alpha  occ. eigenvalues --   -0.34610  -0.34205  -0.33573  -0.31307  -0.29350
 Alpha  occ. eigenvalues --   -0.29312  -0.27880
 Alpha virt. eigenvalues --   -0.13977  -0.12059  -0.09353  -0.08468  -0.07914
 Alpha virt. eigenvalues --   -0.07052  -0.05997  -0.05812  -0.04308  -0.03407
 Alpha virt. eigenvalues --   -0.03191  -0.03027  -0.02643  -0.01534  -0.00672

 Mulliken charges:
               1
     1  N   -0.748316
     2  H    0.419436
     3  H    0.432350
     4  H    0.417440
     5  C   -0.127251
     6  H    0.210850
     7  C    0.669336
     8  C   -0.299515
     9  H    0.170443
    10  H    0.226437
    11  O   -0.530512
    12  C   -0.355996
    13  H    0.172543
    14  H    0.193572
    15  C    0.579482
    16  O   -0.503623
    17  O   -0.581668
    18  N   -0.583403
    19  H    0.353290
    20  C   -0.081877
    21  H    0.195955
    22  C    0.656578
    23  C   -0.370212
    24  H    0.167340
    25  H    0.178999
    26  O   -0.544531
    27  C    0.018361
    28  C   -0.029600
    29  H    0.154457
    30  C    0.113721
    31  C    0.315572
    32  C   -0.161806
    33  H    0.118583
    34  N   -0.687149
    35  H    0.338821
    36  C   -0.139881
    37  H    0.141659
    38  C   -0.160115
    39  H    0.136952
    40  C   -0.142355
    41  H    0.128769
    42  N   -0.603004
    43  H    0.357158
    44  C   -0.050739
    45  H    0.180389
    46  C    0.610532
    47  C    0.109114
    48  H    0.194277
    49  O   -0.604425
    50  C   -0.486435
    51  H    0.168438
    52  H    0.180659
    53  H    0.148652
    54  O   -0.642435
    55  H    0.402176
    56  N   -0.601321
    57  H    0.345381
    58  C   -0.078450
    59  H    0.199243
    60  C    0.626399
    61  C   -0.286361
    62  H    0.151184
    63  H    0.180840
    64  O   -0.454079
    65  C   -0.341342
    66  H    0.159156
    67  H    0.179324
    68  C   -0.127961
    69  H    0.167560
    70  H    0.153318
    71  N   -0.596848
    72  H    0.358791
    73  N   -0.736176
    74  H    0.360226
    75  H    0.347189
    76  N   -0.755604
    77  H    0.300646
    78  C    0.631820
    79  O   -0.488522
    80  H    0.450475
    81  H    0.427621
 Sum of Mulliken charges =   1.00000

 Dipole moment (field-independent basis, Debye):
    X=            -13.8590    Y=             10.6584    Z=              6.9701  Tot=             18.8217
 Quadrupole moment (field-independent basis, Debye-Ang):
   XX=           -191.7967   YY=           -167.8133   ZZ=           -188.0638
   XY=            -12.6137   XZ=            -46.4588   YZ=             27.7733

 Normal termination of Gaussian 16 at Sun May 15 01:27:35 2022.
