 Gaussian 16, Revision C.01,
 Gaussian 16:  ES64L-G16RevC.01  3-Jul-2019

 ----------------------------------------------------------------------
 # B3LYP/6-31G* empiricaldispersion=gd3bj guess=read geom=check nosymm
 integral(ultrafinegrid)
 ----------------------------------------------------------------------

 ------------------------------------------------------
 Candidate Structure: Conf:102 Charge calc in gas phase
 ------------------------------------------------------
 Structure from the checkpoint file:  "conf-102.chk"
 Charge =  1 Multiplicity = 1

                          Input orientation:
 ---------------------------------------------------------------------
 Center     Atomic      Atomic             Coordinates (Angstroms)
 Number     Number       Type             X           Y           Z
 ---------------------------------------------------------------------
      1          7           0       -1.707416   -3.299743    2.748398
      2          1           0       -2.632618   -2.909964    2.916922
      3          1           0       -1.771031   -3.825461    1.876138
      4          6           0       -0.744995   -2.221184    2.528289
      5          1           0       -1.021441   -1.366124    3.153194
      6          6           0       -0.692673   -1.828511    1.040048
      7          6           0        0.670794   -2.673180    2.990254
      8          1           0        1.388932   -1.861782    2.840918
      9          1           0        0.601722   -2.874228    4.062484
     10          8           0       -0.690912   -2.713118    0.188219
     11          6           0        1.118112   -3.911359    2.278432
     12          6           0        0.666537   -5.152161    2.525995
     13          1           0       -0.069077   -5.530134    3.218226
     14          6           0        2.089191   -3.961935    1.176175
     15          6           0        2.213089   -5.282192    0.743747
     16          6           0        2.846940   -2.979958    0.545823
     17          1           0        2.756954   -1.939722    0.831387
     18          7           0        1.287166   -6.113339    1.561164
     19          1           0        1.778660   -6.875209    2.045426
     20          6           0        3.805252   -4.698695   -0.888171
     21          1           0        4.477885   -4.968147   -1.695770
     22          6           0        3.042868   -5.702796   -0.273629
     23          1           0        3.110215   -6.739584   -0.588836
     24          6           0        3.708747   -3.360985   -0.488140
     25          1           0        4.301807   -2.595775   -0.988281
     26          7           0       -0.686457   -0.491545    0.792937
     27          1           0       -0.541739    0.096701    1.603218
     28          6           0       -0.447028    0.168986   -0.504423
     29          1           0       -0.831061    1.190298   -0.379559
     30          6           0        1.080222    0.230194   -0.680223
     31          6           0       -1.156770   -0.457015   -1.713622
     32          1           0       -0.690702   -1.427472   -1.899202
     33          8           0        1.718541   -0.642080   -1.257516
     34          6           0       -0.915677    0.448363   -2.938873
     35          1           0       -1.427054    1.410111   -2.784182
     36          1           0        0.155528    0.671194   -3.016727
     37          6           0       -2.649157   -0.655938   -1.432268
     38          1           0       -3.138356    0.297037   -1.192555
     39          1           0       -3.152049   -1.075721   -2.307421
     40          1           0       -2.811392   -1.346415   -0.601715
     41          6           0       -1.372683   -0.172115   -4.261507
     42          1           0       -1.117316    0.479657   -5.103368
     43          1           0       -2.454930   -0.332858   -4.288475
     44          1           0       -0.883889   -1.139263   -4.426040
     45          7           0        1.670183    1.307873   -0.079910
     46          1           0        1.076267    1.923940    0.460041
     47          6           0        3.077369    1.305923    0.267563
     48          1           0        3.550327    0.521642   -0.334236
     49          6           0        3.226560    0.833353    1.709366
     50          6           0        3.770608    2.643972   -0.036964
     51          1           0        3.414737    3.417266    0.655939
     52          1           0        4.838747    2.516076    0.155254
     53          8           0        2.338593    0.310083    2.357623
     54          6           0        3.549326    3.116939   -1.479576
     55          1           0        4.139571    4.028707   -1.632275
     56          1           0        2.498771    3.393919   -1.628316
     57          6           0        3.918115    2.081750   -2.555125
     58          1           0        3.225965    1.237230   -2.512277
     59          1           0        3.786958    2.530999   -3.546216
     60          7           0        5.277811    1.583565   -2.426800
     61          1           0        5.996333    2.101902   -2.913686
     62          7           0        6.994262    0.104981   -2.028515
     63          1           0        7.236702   -0.820262   -1.697163
     64          1           0        7.509406    0.839136   -1.556565
     65          7           0        4.835967   -0.717263   -1.863637
     66          1           0        3.862476   -0.539747   -2.106013
     67          6           0        5.616401    0.283362   -2.095571
     68          8           0        4.469916    1.014634    2.181198
     69          1           0        0.567026   -6.549608    0.969933
     70          1           0        4.489916    0.658706    3.090274
 ---------------------------------------------------------------------

 SCF Done:  E(RB3LYP) =  -1582.24660732     A.U. after    1 cycles

 Alpha  occ. eigenvalues --  -19.29969 -19.24569 -19.21322 -19.21065 -14.60458
 Alpha  occ. eigenvalues --  -14.46294 -14.45879 -14.42621 -14.41392 -14.41102
 Alpha  occ. eigenvalues --  -14.35413 -10.42348 -10.38223 -10.38041 -10.36015
 Alpha  occ. eigenvalues --  -10.35632 -10.35603 -10.33960 -10.32885 -10.32828
 Alpha  occ. eigenvalues --  -10.32602 -10.31970 -10.31908 -10.30063 -10.30055
 Alpha  occ. eigenvalues --  -10.29936 -10.29907 -10.28529 -10.27820 -10.26799
 Alpha  occ. eigenvalues --  -10.26229 -10.25116 -10.24168 -10.23640  -1.21029
 Alpha  occ. eigenvalues --   -1.15711  -1.13576  -1.12764  -1.11848  -1.04911
 Alpha  occ. eigenvalues --   -1.02960  -1.01976  -0.99168  -0.97685  -0.96073
 Alpha  occ. eigenvalues --   -0.93766  -0.91051  -0.89610  -0.88282  -0.86338
 Alpha  occ. eigenvalues --   -0.86024  -0.84323  -0.83433  -0.81370  -0.78308
 Alpha  occ. eigenvalues --   -0.76510  -0.75656  -0.74271  -0.72759  -0.72377
 Alpha  occ. eigenvalues --   -0.71948  -0.70598  -0.69083  -0.68390  -0.68009
 Alpha  occ. eigenvalues --   -0.67297  -0.66297  -0.65291  -0.63243  -0.62508
 Alpha  occ. eigenvalues --   -0.62230  -0.61512  -0.61197  -0.59957  -0.59074
 Alpha  occ. eigenvalues --   -0.58983  -0.58829  -0.58617  -0.57435  -0.56969
 Alpha  occ. eigenvalues --   -0.55661  -0.55204  -0.54665  -0.54142  -0.53852
 Alpha  occ. eigenvalues --   -0.53568  -0.53467  -0.52630  -0.52105  -0.51900
 Alpha  occ. eigenvalues --   -0.51412  -0.50838  -0.50134  -0.49679  -0.49028
 Alpha  occ. eigenvalues --   -0.48916  -0.48178  -0.47920  -0.47833  -0.47395
 Alpha  occ. eigenvalues --   -0.47019  -0.46473  -0.46155  -0.45881  -0.45297
 Alpha  occ. eigenvalues --   -0.44376  -0.44254  -0.43411  -0.42697  -0.42612
 Alpha  occ. eigenvalues --   -0.42389  -0.41795  -0.41680  -0.40362  -0.39713
 Alpha  occ. eigenvalues --   -0.39368  -0.38191  -0.37461  -0.36627  -0.35837
 Alpha  occ. eigenvalues --   -0.35543  -0.34577  -0.33636  -0.33212  -0.33003
 Alpha  occ. eigenvalues --   -0.32730  -0.29991
 Alpha virt. eigenvalues --   -0.15589  -0.12204  -0.09546  -0.09444  -0.08703
 Alpha virt. eigenvalues --   -0.07229  -0.06271  -0.03968  -0.03189  -0.02342
 Alpha virt. eigenvalues --   -0.01870  -0.01496  -0.00698  -0.00110   0.00647

 Mulliken charges:
               1
     1  N   -0.719493
     2  H    0.322592
     3  H    0.319498
     4  C   -0.082217
     5  H    0.152239
     6  C    0.629844
     7  C   -0.361121
     8  H    0.206256
     9  H    0.187293
    10  O   -0.530910
    11  C    0.173740
    12  C   -0.110925
    13  H    0.221958
    14  C    0.165401
    15  C    0.154713
    16  C   -0.193148
    17  H    0.165615
    18  N   -0.728166
    19  H    0.418056
    20  C   -0.151499
    21  H    0.172518
    22  C   -0.156309
    23  H    0.165869
    24  C   -0.130783
    25  H    0.232439
    26  N   -0.615092
    27  H    0.337550
    28  C   -0.058561
    29  H    0.146765
    30  C    0.647352
    31  C   -0.075916
    32  H    0.184503
    33  O   -0.524028
    34  C   -0.270673
    35  H    0.128515
    36  H    0.142833
    37  C   -0.460908
    38  H    0.136547
    39  H    0.162528
    40  H    0.151915
    41  C   -0.451459
    42  H    0.153436
    43  H    0.154804
    44  H    0.153351
    45  N   -0.582112
    46  H    0.326822
    47  C   -0.103294
    48  H    0.231615
    49  C    0.604358
    50  C   -0.272100
    51  H    0.145294
    52  H    0.177536
    53  O   -0.496213
    54  C   -0.253293
    55  H    0.151206
    56  H    0.145266
    57  C   -0.167788
    58  H    0.173812
    59  H    0.164319
    60  N   -0.604644
    61  H    0.333754
    62  N   -0.740322
    63  H    0.338378
    64  H    0.324434
    65  N   -0.688977
    66  H    0.321461
    67  C    0.601280
    68  O   -0.545100
    69  H    0.423959
    70  H    0.423431
 Sum of Mulliken charges =   1.00000

 Dipole moment (field-independent basis, Debye):
    X=              9.1783    Y=            -11.9044    Z=              6.0998  Tot=             16.2223
 Quadrupole moment (field-independent basis, Debye-Ang):
   XX=           -141.4522   YY=            -65.5216   ZZ=           -175.6677
   XY=             -7.5634   XZ=              3.1097   YZ=            -32.8575

 Normal termination of Gaussian 16 at Thu Jun 23 13:11:13 2022.
