 Gaussian 16, Revision C.01,
 Gaussian 16:  ES64L-G16RevC.01  3-Jul-2019

 ----------------------------------------------------------------------
 # B3LYP/6-31G* empiricaldispersion=gd3bj guess=read geom=check nosymm
 integral(ultrafinegrid)
 ----------------------------------------------------------------------

 ------------------------------------------------------
 Candidate Structure: Conf:779 Charge calc in gas phase
 ------------------------------------------------------
 Structure from the checkpoint file:  "conf-779.chk"
 Charge =  1 Multiplicity = 1

                          Input orientation:
 ---------------------------------------------------------------------
 Center     Atomic      Atomic             Coordinates (Angstroms)
 Number     Number       Type             X           Y           Z
 ---------------------------------------------------------------------
      1          7           0       -1.680355   -2.274051    2.875988
      2          1           0       -2.406004   -2.733654    2.330055
      3          1           0       -0.868308   -2.884663    2.840205
      4          6           0       -1.369772   -0.977550    2.301147
      5          1           0       -2.332024   -0.475827    2.133629
      6          6           0       -0.654716   -1.004536    0.940715
      7          6           0       -0.607115   -0.077423    3.306568
      8          1           0       -0.135239    0.722687    2.724394
      9          1           0       -1.377162    0.406969    3.915587
     10          8           0        0.246361   -1.801183    0.685221
     11          6           0        0.394935   -0.631333    4.293981
     12          6           0        0.539093   -0.062914    5.530002
     13          1           0       -0.001453    0.764778    5.968346
     14          6           0        1.344137   -1.732816    4.246240
     15          6           0        2.010821   -1.765179    5.506477
     16          6           0        1.709803   -2.698923    3.285547
     17          1           0        1.270718   -2.693528    2.290317
     18          7           0        1.569766   -0.675858    6.250047
     19          1           0        3.242803    0.360621    5.368549
     20          6           0        3.260476   -3.702934    4.887519
     21          1           0        3.975532   -4.484165    5.124045
     22          6           0        2.953267   -2.738255    5.848370
     23          1           0        3.414712   -2.754473    6.831474
     24          6           0        2.657608   -3.665451    3.616879
     25          1           0        2.927458   -4.413474    2.878385
     26          7           0       -1.065077   -0.087152    0.016415
     27          1           0       -1.931661    0.405275    0.184952
     28          6           0       -0.564268   -0.086247   -1.369667
     29          1           0       -0.934516    0.854117   -1.795208
     30          6           0        0.975664    0.025356   -1.359807
     31          6           0       -1.059547   -1.260703   -2.257962
     32          1           0       -0.252157   -1.998482   -2.291946
     33          8           0        1.720242   -0.654326   -2.037062
     34          6           0       -1.343582   -0.772195   -3.694073
     35          1           0       -1.672349   -1.640377   -4.278198
     36          1           0       -2.205624   -0.088008   -3.661932
     37          6           0       -2.314136   -1.937608   -1.692983
     38          1           0       -3.142856   -1.227887   -1.572418
     39          1           0       -2.651924   -2.716658   -2.383440
     40          1           0       -2.124885   -2.417138   -0.728343
     41          6           0       -0.182391   -0.096319   -4.428017
     42          1           0       -0.478840    0.150489   -5.452853
     43          1           0        0.695311   -0.746302   -4.467068
     44          1           0        0.125811    0.839512   -3.946808
     45          7           0        1.434523    1.062912   -0.561865
     46          1           0        0.791738    1.354220    0.165777
     47          6           0        2.841564    1.084799   -0.203280
     48          1           0        3.409577    0.774673   -1.080914
     49          6           0        3.167513    0.075490    0.877987
     50          6           0        3.216323    2.524571    0.224753
     51          1           0        3.175479    3.131527   -0.685071
     52          1           0        2.427686    2.909017    0.884129
     53          8           0        4.151806   -0.639013    0.889895
     54          6           0        4.574350    2.727440    0.919317
     55          1           0        4.930249    3.735009    0.690723
     56          1           0        5.318713    2.041836    0.489799
     57          6           0        4.567905    2.596398    2.464417
     58          1           0        5.192877    3.382364    2.901887
     59          1           0        3.553993    2.716629    2.861006
     60          7           0        5.080198    1.289819    2.900017
     61          1           0        5.690685    0.820610    2.243199
     62          7           0        4.772313   -0.834845    3.677163
     63          1           0        4.495692   -1.500376    4.394236
     64          1           0        4.825982   -1.168402    2.714471
     65          7           0        3.904512    0.966820    4.890945
     66          1           0        3.885707    1.962878    5.047249
     67          6           0        4.562947    0.478984    3.834504
     68          8           0        2.265225    0.119235    1.875796
     69          1           0        1.587386   -0.672602    7.262223
     70          1           0        2.389445   -0.656373    2.448253
 ---------------------------------------------------------------------

 SCF Done:  E(RB3LYP) =  -1582.30414663     A.U. after    1 cycles

 Alpha  occ. eigenvalues --  -19.31314 -19.26415 -19.21726 -19.20804 -14.51523
 Alpha  occ. eigenvalues --  -14.51331 -14.49932 -14.49782 -14.46435 -14.45142
 Alpha  occ. eigenvalues --  -14.40639 -10.47354 -10.43806 -10.38222 -10.37749
 Alpha  occ. eigenvalues --  -10.36531 -10.34093 -10.33913 -10.33092 -10.32554
 Alpha  occ. eigenvalues --  -10.32303 -10.31823 -10.31062 -10.30728 -10.30657
 Alpha  occ. eigenvalues --  -10.30325 -10.29975 -10.29797 -10.29263 -10.29203
 Alpha  occ. eigenvalues --  -10.26097 -10.24714 -10.24605 -10.22997  -1.22710
 Alpha  occ. eigenvalues --   -1.16213  -1.13921  -1.13714  -1.12709  -1.09490
 Alpha  occ. eigenvalues --   -1.05641  -1.04082  -1.03040  -1.01653  -0.98378
 Alpha  occ. eigenvalues --   -0.95382  -0.92190  -0.91110  -0.88613  -0.86833
 Alpha  occ. eigenvalues --   -0.85556  -0.84733  -0.82749  -0.81602  -0.79968
 Alpha  occ. eigenvalues --   -0.78697  -0.77856  -0.75453  -0.74537  -0.73195
 Alpha  occ. eigenvalues --   -0.73041  -0.71241  -0.70490  -0.69874  -0.69612
 Alpha  occ. eigenvalues --   -0.69199  -0.67053  -0.66731  -0.65409  -0.64713
 Alpha  occ. eigenvalues --   -0.64172  -0.63808  -0.62694  -0.61997  -0.61144
 Alpha  occ. eigenvalues --   -0.60461  -0.59990  -0.59747  -0.59165  -0.58110
 Alpha  occ. eigenvalues --   -0.58102  -0.57167  -0.55947  -0.55754  -0.55275
 Alpha  occ. eigenvalues --   -0.55134  -0.54686  -0.53497  -0.53269  -0.52972
 Alpha  occ. eigenvalues --   -0.52842  -0.52091  -0.51617  -0.51382  -0.50646
 Alpha  occ. eigenvalues --   -0.50515  -0.49077  -0.48945  -0.48331  -0.48148
 Alpha  occ. eigenvalues --   -0.47997  -0.47689  -0.47442  -0.47284  -0.46603
 Alpha  occ. eigenvalues --   -0.46427  -0.45853  -0.45207  -0.44704  -0.43941
 Alpha  occ. eigenvalues --   -0.43775  -0.43442  -0.42566  -0.42096  -0.40559
 Alpha  occ. eigenvalues --   -0.40293  -0.40199  -0.39501  -0.39127  -0.38619
 Alpha  occ. eigenvalues --   -0.36696  -0.36111  -0.34791  -0.34336  -0.33574
 Alpha  occ. eigenvalues --   -0.32657  -0.32050
 Alpha virt. eigenvalues --   -0.13183  -0.12516  -0.11644  -0.10183  -0.08283
 Alpha virt. eigenvalues --   -0.07504  -0.06266  -0.05942  -0.04124  -0.03468
 Alpha virt. eigenvalues --   -0.02657  -0.02204  -0.01424  -0.00613   0.00040

 Mulliken charges:
               1
     1  N   -0.701769
     2  H    0.317327
     3  H    0.325420
     4  C   -0.074165
     5  H    0.145700
     6  C    0.603985
     7  C   -0.348129
     8  H    0.152596
     9  H    0.171343
    10  O   -0.522015
    11  C    0.133006
    12  C   -0.036066
    13  H    0.171983
    14  C    0.021146
    15  C    0.250143
    16  C   -0.288869
    17  H    0.225135
    18  N   -0.683429
    19  H    0.417221
    20  C   -0.160805
    21  H    0.165486
    22  C   -0.221547
    23  H    0.158004
    24  C   -0.142157
    25  H    0.165916
    26  N   -0.634795
    27  H    0.339335
    28  C   -0.049518
    29  H    0.171413
    30  C    0.635186
    31  C   -0.075526
    32  H    0.179781
    33  O   -0.489756
    34  C   -0.265112
    35  H    0.149553
    36  H    0.125577
    37  C   -0.463663
    38  H    0.128523
    39  H    0.166514
    40  H    0.144138
    41  C   -0.452853
    42  H    0.152385
    43  H    0.176620
    44  H    0.129815
    45  N   -0.602113
    46  H    0.335870
    47  C   -0.056591
    48  H    0.219734
    49  C    0.631906
    50  C   -0.283022
    51  H    0.194467
    52  H    0.146315
    53  O   -0.498834
    54  C   -0.321626
    55  H    0.187667
    56  H    0.175982
    57  C   -0.149031
    58  H    0.192149
    59  H    0.171905
    60  N   -0.581412
    61  H    0.371589
    62  N   -0.773955
    63  H    0.379718
    64  H    0.399334
    65  N   -0.769995
    66  H    0.374489
    67  C    0.746179
    68  O   -0.600206
    69  H    0.355540
    70  H    0.440863
 Sum of Mulliken charges =   1.00000

 Dipole moment (field-independent basis, Debye):
    X=             11.1581    Y=              4.8902    Z=             17.6572  Tot=             21.4522
 Quadrupole moment (field-independent basis, Debye-Ang):
   XX=           -130.5640   YY=           -172.8160   ZZ=           -104.7925
   XY=             15.1802   XZ=             61.2653   YZ=              2.2110

 Normal termination of Gaussian 16 at Thu Jun 23 13:11:13 2022.
