 Gaussian 16, Revision C.01,
 Gaussian 16:  ES64L-G16RevC.01  3-Jul-2019

 ----------------------------------------------------------------------
 # B3LYP/6-31G* empiricaldispersion=gd3bj guess=read geom=check nosymm
 integral(ultrafinegrid)
 ----------------------------------------------------------------------

 ------------------------------------------------------
 Candidate Structure: Conf:197 Charge calc in gas phase
 ------------------------------------------------------
 Structure from the checkpoint file:  "conf-197.chk"
 Charge =  1 Multiplicity = 1

                          Input orientation:
 ---------------------------------------------------------------------
 Center     Atomic      Atomic             Coordinates (Angstroms)
 Number     Number       Type             X           Y           Z
 ---------------------------------------------------------------------
      1          7           0       -3.100474   -3.727199    2.377184
      2          1           0       -4.101541   -3.607937    2.244934
      3          1           0       -2.748610   -4.180029    1.531638
      4          6           0       -2.447150   -2.429534    2.479042
      5          1           0       -3.180221   -1.667062    2.766695
      6          6           0       -1.793027   -2.047170    1.126430
      7          6           0       -1.355181   -2.441588    3.606878
      8          1           0       -1.183428   -1.422699    3.971287
      9          1           0       -1.764104   -3.030720    4.431679
     10          8           0       -1.621628   -2.896386    0.264472
     11          6           0       -0.059405   -3.002081    3.115183
     12          6           0        1.019532   -2.258539    2.824288
     13          1           0        1.219477   -1.204709    2.929188
     14          6           0        0.204308   -4.388489    2.698072
     15          6           0        1.465879   -4.428287    2.094708
     16          6           0       -0.530375   -5.568071    2.810842
     17          1           0       -1.520663   -5.556246    3.251414
     18          7           0        2.001066   -3.058123    2.067213
     19          1           0        1.959140   -2.658818    1.087288
     20          6           0        1.299606   -6.751469    1.710890
     21          1           0        1.711005   -7.681213    1.332408
     22          6           0        2.044949   -5.571715    1.584795
     23          1           0        3.021421   -5.567574    1.111295
     24          6           0        0.035903   -6.744722    2.312102
     25          1           0       -0.517796   -7.674759    2.390491
     26          7           0       -1.379813   -0.750392    1.016503
     27          1           0       -1.619254   -0.123695    1.771529
     28          6           0       -0.616808   -0.171651   -0.095004
     29          1           0       -0.667920    0.910136    0.063972
     30          6           0        0.851205   -0.610557   -0.013858
     31          6           0       -1.173909   -0.472595   -1.507882
     32          1           0       -1.090484   -1.552288   -1.651002
     33          8           0        1.190714   -1.793846   -0.131666
     34          6           0       -0.311149    0.214494   -2.590743
     35          1           0        0.713607   -0.178875   -2.543336
     36          1           0       -0.697937   -0.109321   -3.564100
     37          6           0       -2.651152   -0.079845   -1.598325
     38          1           0       -2.812157    0.975521   -1.349383
     39          1           0       -3.017196   -0.239902   -2.617539
     40          1           0       -3.265274   -0.685656   -0.926740
     41          6           0       -0.266950    1.746512   -2.568850
     42          1           0        0.398549    2.107665   -3.359076
     43          1           0        0.122784    2.143670   -1.620805
     44          1           0       -1.259868    2.182538   -2.718816
     45          7           0        1.758541    0.380867    0.178522
     46          1           0        1.437149    1.340346    0.140197
     47          6           0        3.194552    0.166415   -0.029098
     48          1           0        3.286973   -0.827147   -0.476690
     49          6           0        3.858142    0.064016    1.346649
     50          6           0        3.746720    1.234077   -0.972522
     51          1           0        3.087947    1.239675   -1.845511
     52          1           0        3.668947    2.223845   -0.509952
     53          8           0        3.803911   -0.929623    2.049895
     54          6           0        5.188556    0.979304   -1.423773
     55          1           0        5.265064   -0.028977   -1.856119
     56          1           0        5.869895    1.009118   -0.564238
     57          6           0        5.671825    2.006611   -2.463499
     58          1           0        5.632571    3.010131   -2.033809
     59          1           0        6.719098    1.806839   -2.711658
     60          7           0        4.910875    2.005342   -3.713847
     61          1           0        4.989892    1.139438   -4.234370
     62          7           0        3.499859    3.771115   -3.116027
     63          1           0        2.621047    4.214143   -3.361906
     64          1           0        4.279468    4.409609   -3.238221
     65          7           0        2.633261    2.098760   -4.462508
     66          1           0        2.828438    1.162608   -4.821576
     67          6           0        3.640198    2.571644   -3.816990
     68          8           0        4.468405    1.191207    1.729688
     69          1           0        2.962930   -2.931769    2.401053
     70          1           0        4.841918    1.041125    2.620501
 ---------------------------------------------------------------------

 SCF Done:  E(RB3LYP) =  -1582.25802692     A.U. after    1 cycles

 Alpha  occ. eigenvalues --  -19.32689 -19.27255 -19.24955 -19.21937 -14.56200
 Alpha  occ. eigenvalues --  -14.49704 -14.47307 -14.43113 -14.41846 -14.40491
 Alpha  occ. eigenvalues --  -14.36495 -10.45223 -10.41751 -10.38872 -10.35944
 Alpha  occ. eigenvalues --  -10.35935 -10.35136 -10.34915 -10.34712 -10.33218
 Alpha  occ. eigenvalues --  -10.33165 -10.31604 -10.31312 -10.31063 -10.30650
 Alpha  occ. eigenvalues --  -10.30166 -10.29837 -10.29699 -10.29360 -10.28678
 Alpha  occ. eigenvalues --  -10.27903 -10.26463 -10.25516 -10.24871  -1.23776
 Alpha  occ. eigenvalues --   -1.16943  -1.14576  -1.13947  -1.13155  -1.05859
 Alpha  occ. eigenvalues --   -1.05509  -1.03392  -0.98662  -0.96919  -0.96753
 Alpha  occ. eigenvalues --   -0.93349  -0.92312  -0.91631  -0.89922  -0.86160
 Alpha  occ. eigenvalues --   -0.86054  -0.85058  -0.83674  -0.82138  -0.79790
 Alpha  occ. eigenvalues --   -0.77823  -0.76053  -0.74201  -0.73823  -0.72511
 Alpha  occ. eigenvalues --   -0.72282  -0.71848  -0.70222  -0.69196  -0.68939
 Alpha  occ. eigenvalues --   -0.68061  -0.67900  -0.65725  -0.64842  -0.63399
 Alpha  occ. eigenvalues --   -0.62557  -0.62182  -0.61724  -0.61402  -0.60790
 Alpha  occ. eigenvalues --   -0.60532  -0.59857  -0.59170  -0.57646  -0.56972
 Alpha  occ. eigenvalues --   -0.56061  -0.55653  -0.55186  -0.54943  -0.54708
 Alpha  occ. eigenvalues --   -0.54455  -0.54163  -0.53711  -0.53603  -0.53009
 Alpha  occ. eigenvalues --   -0.52517  -0.52125  -0.51605  -0.51225  -0.50571
 Alpha  occ. eigenvalues --   -0.50498  -0.49820  -0.48537  -0.48354  -0.48008
 Alpha  occ. eigenvalues --   -0.47729  -0.47564  -0.46653  -0.46524  -0.46276
 Alpha  occ. eigenvalues --   -0.46200  -0.45727  -0.45130  -0.44952  -0.44654
 Alpha  occ. eigenvalues --   -0.44150  -0.43924  -0.41699  -0.41432  -0.41395
 Alpha  occ. eigenvalues --   -0.41000  -0.40833  -0.39574  -0.38586  -0.36570
 Alpha  occ. eigenvalues --   -0.35906  -0.35095  -0.34469  -0.34293  -0.33525
 Alpha  occ. eigenvalues --   -0.33245  -0.30481
 Alpha virt. eigenvalues --   -0.14924  -0.13093  -0.11726  -0.10823  -0.07739
 Alpha virt. eigenvalues --   -0.07126  -0.05777  -0.04561  -0.03689  -0.02945
 Alpha virt. eigenvalues --   -0.02808  -0.01802  -0.00776  -0.00010   0.00129

 Mulliken charges:
               1
     1  N   -0.724963
     2  H    0.322065
     3  H    0.338483
     4  C   -0.095221
     5  H    0.160834
     6  C    0.618111
     7  C   -0.323964
     8  H    0.146649
     9  H    0.199276
    10  O   -0.501923
    11  C    0.142780
    12  C   -0.090871
    13  H    0.182128
    14  C    0.152773
    15  C    0.200094
    16  C   -0.201599
    17  H    0.195888
    18  N   -0.749080
    19  H    0.453080
    20  C   -0.137853
    21  H    0.170768
    22  C   -0.153690
    23  H    0.166344
    24  C   -0.121421
    25  H    0.169916
    26  N   -0.624434
    27  H    0.335148
    28  C   -0.030154
    29  H    0.143321
    30  C    0.645433
    31  C   -0.089206
    32  H    0.195835
    33  O   -0.557199
    34  C   -0.287953
    35  H    0.137065
    36  H    0.162308
    37  C   -0.461183
    38  H    0.143770
    39  H    0.168267
    40  H    0.155250
    41  C   -0.477328
    42  H    0.214361
    43  H    0.095350
    44  H    0.158103
    45  N   -0.602445
    46  H    0.357396
    47  C   -0.050722
    48  H    0.195825
    49  C    0.612521
    50  C   -0.297253
    51  H    0.191415
    52  H    0.171638
    53  O   -0.505200
    54  C   -0.278173
    55  H    0.138148
    56  H    0.154350
    57  C   -0.153636
    58  H    0.168200
    59  H    0.169155
    60  N   -0.572250
    61  H    0.317129
    62  N   -0.738789
    63  H    0.344952
    64  H    0.334269
    65  N   -0.629244
    66  H    0.270112
    67  C    0.544122
    68  O   -0.537329
    69  H    0.419039
    70  H    0.431409
 Sum of Mulliken charges =   1.00000

 Dipole moment (field-independent basis, Debye):
    X=              9.1686    Y=             -4.5394    Z=              6.5659  Tot=             12.1565
 Quadrupole moment (field-independent basis, Debye-Ang):
   XX=           -128.6482   YY=           -139.9064   ZZ=           -174.8482
   XY=              3.1745   XZ=             -8.1879   YZ=            -18.3748

 Normal termination of Gaussian 16 at Thu Jun 23 13:11:11 2022.
