 Gaussian 16, Revision C.01,
 Gaussian 16:  ES64L-G16RevC.01  3-Jul-2019

 ----------------------------------------------------------------------
 # B3LYP/6-31G* empiricaldispersion=gd3bj guess=read geom=check nosymm
 integral(ultrafinegrid)
 ----------------------------------------------------------------------

 ------------------------------------------------------
 Candidate Structure: Conf:472 Charge calc in gas phase
 ------------------------------------------------------
 Structure from the checkpoint file:  "conf-472.chk"
 Charge =  1 Multiplicity = 1

                          Input orientation:
 ---------------------------------------------------------------------
 Center     Atomic      Atomic             Coordinates (Angstroms)
 Number     Number       Type             X           Y           Z
 ---------------------------------------------------------------------
      1          7           0       -1.909100   -3.693855    1.854972
      2          1           0       -2.828296   -3.532046    1.443594
      3          1           0       -1.411650   -4.286098    1.185969
      4          6           0       -1.180153   -2.425073    1.931666
      5          1           0       -1.808032   -1.699937    2.463747
      6          6           0       -0.779878   -1.908393    0.539765
      7          6           0        0.139844   -2.614001    2.700357
      8          1           0        0.763078   -3.316488    2.129889
      9          1           0        0.699757   -1.674140    2.704770
     10          8           0       -0.204276   -2.661321   -0.237500
     11          6           0        0.007926   -3.110929    4.103751
     12          6           0       -0.962092   -3.885927    4.615589
     13          1           0       -1.832411   -4.330383    4.157497
     14          6           0        0.992970   -2.811933    5.158449
     15          6           0        0.590654   -3.426733    6.344309
     16          6           0        2.170315   -2.064521    5.151759
     17          1           0        2.518618   -1.576843    4.245866
     18          7           0       -0.678924   -4.149241    6.066258
     19          1           0       -1.446941   -3.813976    6.662860
     20          6           0        2.453521   -2.595438    7.521606
     21          1           0        3.034174   -2.499441    8.432715
     22          6           0        1.272860   -3.351595    7.540614
     23          1           0        0.930965   -3.841505    8.446882
     24          6           0        2.888455   -1.968010    6.348835
     25          1           0        3.806712   -1.390059    6.370796
     26          7           0       -1.013963   -0.594273    0.279989
     27          1           0       -1.661258   -0.096759    0.875624
     28          6           0       -0.687559   -0.003595   -1.027050
     29          1           0       -0.882480    1.070355   -0.911562
     30          6           0        0.830029   -0.159575   -1.286594
     31          6           0       -1.532061   -0.530279   -2.212686
     32          1           0       -1.060686   -1.453942   -2.561922
     33          8           0        1.298353   -0.364286   -2.396199
     34          6           0       -1.493564    0.502073   -3.358675
     35          1           0       -2.099790    1.373910   -3.068622
     36          1           0       -0.465272    0.851275   -3.482818
     37          6           0       -2.972007   -0.835076   -1.784903
     38          1           0       -3.457870    0.049684   -1.351531
     39          1           0       -3.567857   -1.145140   -2.647200
     40          1           0       -3.021278   -1.646696   -1.051507
     41          6           0       -1.983497   -0.050260   -4.699063
     42          1           0       -1.907302    0.711983   -5.481338
     43          1           0       -3.028814   -0.375405   -4.660124
     44          1           0       -1.374180   -0.906995   -5.008158
     45          7           0        1.613573    0.011560   -0.183711
     46          1           0        1.191691    0.063430    0.732260
     47          6           0        3.036690   -0.251071   -0.246691
     48          1           0        3.209017   -1.047571   -0.980351
     49          6           0        3.472280   -0.758156    1.113363
     50          6           0        3.820716    1.000561   -0.715276
     51          1           0        3.286443    1.333680   -1.611737
     52          1           0        3.710585    1.794109    0.035302
     53          8           0        2.790087   -0.712566    2.126180
     54          6           0        5.292354    0.767813   -1.062719
     55          1           0        5.391802   -0.128358   -1.686223
     56          1           0        5.884091    0.582592   -0.159580
     57          6           0        5.890603    1.966726   -1.817892
     58          1           0        5.305333    2.172037   -2.721766
     59          1           0        5.829536    2.870849   -1.200928
     60          7           0        7.277597    1.792875   -2.211837
     61          1           0        7.930993    1.776151   -1.436889
     62          7           0        8.999601    0.662301   -3.264293
     63          1           0        9.236246    0.115843   -4.085440
     64          1           0        9.552167    1.513031   -3.219077
     65          7           0        6.850721    0.288549   -4.055550
     66          1           0        5.864603    0.446996   -3.852188
     67          6           0        7.618931    0.889014   -3.222633
     68          8           0        4.711221   -1.265010    1.099133
     69          1           0       -0.587571   -5.158475    6.243957
     70          1           0        4.930231   -1.541669    2.008794
 ---------------------------------------------------------------------

 SCF Done:  E(RB3LYP) =  -1582.22417635     A.U. after    1 cycles

 Alpha  occ. eigenvalues --  -19.30362 -19.25310 -19.21613 -19.18934 -14.62716
 Alpha  occ. eigenvalues --  -14.46471 -14.43522 -14.43213 -14.39621 -14.37713
 Alpha  occ. eigenvalues --  -14.32378 -10.42872 -10.39040 -10.38373 -10.37632
 Alpha  occ. eigenvalues --  -10.36373 -10.36233 -10.35025 -10.34956 -10.34156
 Alpha  occ. eigenvalues --  -10.33446 -10.33093 -10.33017 -10.32388 -10.31879
 Alpha  occ. eigenvalues --  -10.31778 -10.31723 -10.27842 -10.26717 -10.25624
 Alpha  occ. eigenvalues --  -10.24943 -10.24556 -10.23495 -10.22299  -1.21596
 Alpha  occ. eigenvalues --   -1.18017  -1.13806  -1.12499  -1.11056  -1.02698
 Alpha  occ. eigenvalues --   -1.01712  -1.01145  -1.00443  -1.00250  -0.96267
 Alpha  occ. eigenvalues --   -0.93129  -0.89599  -0.88774  -0.88167  -0.87904
 Alpha  occ. eigenvalues --   -0.87297  -0.86361  -0.82337  -0.80568  -0.78135
 Alpha  occ. eigenvalues --   -0.77565  -0.76669  -0.74984  -0.74863  -0.74699
 Alpha  occ. eigenvalues --   -0.71545  -0.71014  -0.69465  -0.69049  -0.68209
 Alpha  occ. eigenvalues --   -0.67095  -0.65868  -0.64289  -0.63189  -0.62780
 Alpha  occ. eigenvalues --   -0.62211  -0.62143  -0.61390  -0.60446  -0.60024
 Alpha  occ. eigenvalues --   -0.59072  -0.58863  -0.57726  -0.57256  -0.56574
 Alpha  occ. eigenvalues --   -0.56400  -0.56099  -0.55673  -0.54720  -0.54180
 Alpha  occ. eigenvalues --   -0.53438  -0.52795  -0.52315  -0.52236  -0.51198
 Alpha  occ. eigenvalues --   -0.51099  -0.50750  -0.50216  -0.50135  -0.49335
 Alpha  occ. eigenvalues --   -0.48981  -0.48526  -0.48323  -0.47910  -0.47643
 Alpha  occ. eigenvalues --   -0.46801  -0.46707  -0.46289  -0.44495  -0.44137
 Alpha  occ. eigenvalues --   -0.43958  -0.43752  -0.43195  -0.42728  -0.42080
 Alpha  occ. eigenvalues --   -0.41665  -0.40886  -0.40455  -0.40164  -0.40121
 Alpha  occ. eigenvalues --   -0.38743  -0.38548  -0.38213  -0.37655  -0.37516
 Alpha  occ. eigenvalues --   -0.35985  -0.34156  -0.33231  -0.32174  -0.30150
 Alpha  occ. eigenvalues --   -0.29831  -0.26899
 Alpha virt. eigenvalues --   -0.18111  -0.15418  -0.11492  -0.10170  -0.09787
 Alpha virt. eigenvalues --   -0.08175  -0.05913  -0.05209  -0.04479  -0.03570
 Alpha virt. eigenvalues --   -0.02894  -0.01298   0.00195   0.00828   0.01027

 Mulliken charges:
               1
     1  N   -0.724818
     2  H    0.323619
     3  H    0.332774
     4  C   -0.081362
     5  H    0.139262
     6  C    0.619069
     7  C   -0.374821
     8  H    0.210554
     9  H    0.204634
    10  O   -0.514402
    11  C    0.173728
    12  C   -0.101669
    13  H    0.244492
    14  C    0.127642
    15  C    0.161866
    16  C   -0.203077
    17  H    0.210941
    18  N   -0.733802
    19  H    0.423954
    20  C   -0.137462
    21  H    0.184897
    22  C   -0.152640
    23  H    0.179569
    24  C   -0.124705
    25  H    0.177909
    26  N   -0.639715
    27  H    0.335962
    28  C   -0.053347
    29  H    0.168715
    30  C    0.638875
    31  C   -0.061969
    32  H    0.173331
    33  O   -0.512473
    34  C   -0.269370
    35  H    0.120391
    36  H    0.169280
    37  C   -0.463176
    38  H    0.130460
    39  H    0.171376
    40  H    0.123704
    41  C   -0.453911
    42  H    0.154956
    43  H    0.143754
    44  H    0.159911
    45  N   -0.619466
    46  H    0.339955
    47  C   -0.033116
    48  H    0.214645
    49  C    0.585809
    50  C   -0.271350
    51  H    0.184453
    52  H    0.140673
    53  O   -0.490518
    54  C   -0.271995
    55  H    0.166461
    56  H    0.139633
    57  C   -0.160302
    58  H    0.164485
    59  H    0.148221
    60  N   -0.582935
    61  H    0.317687
    62  N   -0.753196
    63  H    0.339033
    64  H    0.320692
    65  N   -0.640238
    66  H    0.275186
    67  C    0.572876
    68  O   -0.532909
    69  H    0.426030
    70  H    0.417273
 Sum of Mulliken charges =   1.00000

 Dipole moment (field-independent basis, Debye):
    X=              0.3365    Y=            -11.4516    Z=             28.0012  Tot=             30.2542
 Quadrupole moment (field-independent basis, Debye-Ang):
   XX=           -145.9927   YY=           -137.3001   ZZ=            -52.7950
   XY=             23.2454   XZ=             19.0711   YZ=            -99.8775

 Normal termination of Gaussian 16 at Thu Jun 23 13:11:06 2022.
