 Gaussian 16, Revision C.01,
 Gaussian 16:  ES64L-G16RevC.01  3-Jul-2019

 ----------------------------------------------------------------------
 # B3LYP/6-31G* empiricaldispersion=gd3bj guess=read geom=check nosymm
 integral(ultrafinegrid)
 ----------------------------------------------------------------------

 ------------------------------------------------------
 Candidate Structure: Conf:302 Charge calc in gas phase
 ------------------------------------------------------
 Structure from the checkpoint file:  "conf-302.chk"
 Charge =  1 Multiplicity = 1

                          Input orientation:
 ---------------------------------------------------------------------
 Center     Atomic      Atomic             Coordinates (Angstroms)
 Number     Number       Type             X           Y           Z
 ---------------------------------------------------------------------
      1          7           0       -2.330440   -3.527643    2.654242
      2          1           0       -3.135168   -3.179683    2.135681
      3          1           0       -1.854877   -4.190624    2.041087
      4          6           0       -1.409422   -2.441365    2.949639
      5          1           0       -1.979325   -1.625496    3.409883
      6          6           0       -0.661942   -1.939724    1.694617
      7          6           0       -0.356758   -2.957585    3.968102
      8          1           0       -0.871866   -3.218236    4.896879
      9          1           0        0.090633   -3.867869    3.559207
     10          8           0       -0.098985   -2.742440    0.961966
     11          6           0        0.693301   -1.917219    4.171680
     12          6           0        1.897307   -1.897725    3.582279
     13          1           0        2.369571   -2.593605    2.906511
     14          6           0        0.475839   -0.625694    4.840004
     15          6           0        1.576403    0.196851    4.585824
     16          6           0       -0.575354   -0.130959    5.611132
     17          1           0       -1.441840   -0.745192    5.834048
     18          7           0        2.516844   -0.562235    3.736983
     19          1           0        3.464753   -0.585575    4.128421
     20          6           0        0.644507    1.968596    5.836499
     21          1           0        0.694979    2.976819    6.233895
     22          6           0        1.705661    1.487527    5.057182
     23          1           0        2.566623    2.099735    4.820836
     24          6           0       -0.474562    1.172818    6.106831
     25          1           0       -1.277527    1.574479    6.716496
     26          7           0       -0.703001   -0.587916    1.490967
     27          1           0       -1.188253   -0.038915    2.186065
     28          6           0       -0.134118    0.153451    0.367149
     29          1           0       -0.678941    1.104193    0.340461
     30          6           0        1.352118    0.453856    0.612964
     31          6           0       -0.341055   -0.548434   -1.009589
     32          1           0        0.252740   -1.464571   -0.985056
     33          8           0        2.129381   -0.386120    1.082123
     34          6           0        0.165690    0.310456   -2.187853
     35          1           0        1.235541    0.519229   -2.067855
     36          1           0        0.090075   -0.311684   -3.087128
     37          6           0       -1.814285   -0.936820   -1.193662
     38          1           0       -2.487591   -0.086927   -1.033412
     39          1           0       -1.975446   -1.301829   -2.213305
     40          1           0       -2.104144   -1.737163   -0.510664
     41          6           0       -0.593609    1.617824   -2.442284
     42          1           0       -0.172146    2.146628   -3.303023
     43          1           0       -0.558864    2.309829   -1.589193
     44          1           0       -1.650448    1.434901   -2.657470
     45          7           0        1.782274    1.684934    0.251655
     46          1           0        1.118810    2.330277   -0.154369
     47          6           0        3.193550    2.015329    0.111482
     48          1           0        3.690261    1.194732   -0.424958
     49          6           0        3.895206    2.089770    1.465660
     50          6           0        3.369872    3.316686   -0.688627
     51          1           0        2.848547    4.131913   -0.167836
     52          1           0        4.429541    3.577832   -0.694971
     53          8           0        3.398188    1.857357    2.550983
     54          6           0        2.882551    3.218805   -2.138218
     55          1           0        1.796967    3.079648   -2.189468
     56          1           0        3.327653    2.334407   -2.616210
     57          6           0        3.237967    4.473062   -2.942593
     58          1           0        2.761478    4.422879   -3.934374
     59          1           0        2.826841    5.352728   -2.434878
     60          7           0        4.678080    4.646256   -3.022642
     61          1           0        5.155323    3.871098   -3.473367
     62          7           0        6.592893    5.808373   -3.589129
     63          1           0        6.984863    6.721308   -3.790917
     64          1           0        7.080638    5.341660   -2.832102
     65          7           0        4.594275    6.985300   -3.645817
     66          1           0        3.581993    6.867373   -3.660194
     67          6           0        5.210228    5.885440   -3.425919
     68          8           0        5.184278    2.423144    1.311272
     69          1           0        2.584540   -0.144677    2.771694
     70          1           0        5.596168    2.451384    2.195741
 ---------------------------------------------------------------------

 SCF Done:  E(RB3LYP) =  -1582.24925704     A.U. after    1 cycles

 Alpha  occ. eigenvalues --  -19.32490 -19.27332 -19.24809 -19.21484 -14.57914
 Alpha  occ. eigenvalues --  -14.49327 -14.47319 -14.42254 -14.41135 -14.39854
 Alpha  occ. eigenvalues --  -14.34753 -10.45295 -10.41654 -10.38567 -10.36678
 Alpha  occ. eigenvalues --  -10.36591 -10.35749 -10.35204 -10.34164 -10.33801
 Alpha  occ. eigenvalues --  -10.33261 -10.33152 -10.32633 -10.32065 -10.31741
 Alpha  occ. eigenvalues --  -10.31628 -10.30858 -10.30460 -10.30389 -10.29468
 Alpha  occ. eigenvalues --  -10.29175 -10.28090 -10.27576 -10.26415  -1.23791
 Alpha  occ. eigenvalues --   -1.16889  -1.14677  -1.14375  -1.13514  -1.05800
 Alpha  occ. eigenvalues --   -1.04092  -1.03448  -0.99268  -0.98506  -0.95852
 Alpha  occ. eigenvalues --   -0.94473  -0.92315  -0.90710  -0.90158  -0.87716
 Alpha  occ. eigenvalues --   -0.86987  -0.85772  -0.84828  -0.83594  -0.80962
 Alpha  occ. eigenvalues --   -0.77935  -0.76389  -0.75391  -0.74250  -0.73476
 Alpha  occ. eigenvalues --   -0.72977  -0.71841  -0.70730  -0.70470  -0.69837
 Alpha  occ. eigenvalues --   -0.68834  -0.66794  -0.65273  -0.65164  -0.63360
 Alpha  occ. eigenvalues --   -0.63335  -0.62387  -0.61884  -0.61599  -0.61062
 Alpha  occ. eigenvalues --   -0.60904  -0.60278  -0.59573  -0.57977  -0.57477
 Alpha  occ. eigenvalues --   -0.57425  -0.56869  -0.56379  -0.56290  -0.55627
 Alpha  occ. eigenvalues --   -0.55329  -0.54717  -0.54046  -0.53680  -0.53250
 Alpha  occ. eigenvalues --   -0.52817  -0.52174  -0.51687  -0.51266  -0.50908
 Alpha  occ. eigenvalues --   -0.50454  -0.50220  -0.49788  -0.49705  -0.48761
 Alpha  occ. eigenvalues --   -0.48343  -0.48067  -0.47809  -0.47440  -0.47275
 Alpha  occ. eigenvalues --   -0.46053  -0.45786  -0.45525  -0.45450  -0.44713
 Alpha  occ. eigenvalues --   -0.44624  -0.43205  -0.42974  -0.42406  -0.42363
 Alpha  occ. eigenvalues --   -0.42262  -0.41150  -0.39334  -0.38951  -0.38202
 Alpha  occ. eigenvalues --   -0.36463  -0.35663  -0.35520  -0.32793  -0.32790
 Alpha  occ. eigenvalues --   -0.31802  -0.29577
 Alpha virt. eigenvalues --   -0.16138  -0.13661  -0.12441  -0.11307  -0.08511
 Alpha virt. eigenvalues --   -0.07739  -0.06176  -0.05690  -0.04276  -0.03637
 Alpha virt. eigenvalues --   -0.02288  -0.01577  -0.01219  -0.00397   0.00130

 Mulliken charges:
               1
     1  N   -0.694253
     2  H    0.315297
     3  H    0.325484
     4  C   -0.075478
     5  H    0.134611
     6  C    0.621263
     7  C   -0.335360
     8  H    0.189551
     9  H    0.187202
    10  O   -0.523891
    11  C    0.124952
    12  C   -0.054441
    13  H    0.226500
    14  C    0.141364
    15  C    0.161038
    16  C   -0.218481
    17  H    0.173922
    18  N   -0.753878
    19  H    0.404783
    20  C   -0.148643
    21  H    0.174103
    22  C   -0.140039
    23  H    0.185651
    24  C   -0.118855
    25  H    0.174371
    26  N   -0.624349
    27  H    0.337802
    28  C   -0.043714
    29  H    0.147405
    30  C    0.639796
    31  C   -0.088820
    32  H    0.196723
    33  O   -0.570227
    34  C   -0.290304
    35  H    0.136236
    36  H    0.167434
    37  C   -0.463109
    38  H    0.142856
    39  H    0.167471
    40  H    0.162409
    41  C   -0.462868
    42  H    0.168834
    43  H    0.115314
    44  H    0.175748
    45  N   -0.589629
    46  H    0.354584
    47  C   -0.034572
    48  H    0.206184
    49  C    0.612694
    50  C   -0.312224
    51  H    0.156303
    52  H    0.210236
    53  O   -0.503234
    54  C   -0.302320
    55  H    0.148739
    56  H    0.150911
    57  C   -0.132722
    58  H    0.158482
    59  H    0.159664
    60  N   -0.607254
    61  H    0.324418
    62  N   -0.747151
    63  H    0.345105
    64  H    0.318529
    65  N   -0.630048
    66  H    0.279218
    67  C    0.575197
    68  O   -0.539072
    69  H    0.478757
    70  H    0.427795
 Sum of Mulliken charges =   1.00000

 Dipole moment (field-independent basis, Debye):
    X=              7.5782    Y=              3.3839    Z=             12.0983  Tot=             14.6714
 Quadrupole moment (field-independent basis, Debye-Ang):
   XX=           -139.7925   YY=           -204.2416   ZZ=           -135.3660
   XY=              7.2566   XZ=             22.7712   YZ=             12.5356

 Normal termination of Gaussian 16 at Thu Jun 23 13:11:09 2022.
