 Gaussian 16, Revision C.01,
 Gaussian 16:  ES64L-G16RevC.01  3-Jul-2019

 ----------------------------------------------------------------------
 # B3LYP/6-31G* empiricaldispersion=gd3bj guess=read geom=check nosymm
 integral(ultrafinegrid)
 ----------------------------------------------------------------------

 ------------------------------------------------------
 Candidate Structure: Conf:828 Charge calc in gas phase
 ------------------------------------------------------
 Structure from the checkpoint file:  "conf-828.chk"
 Charge =  1 Multiplicity = 1

                          Input orientation:
 ---------------------------------------------------------------------
 Center     Atomic      Atomic             Coordinates (Angstroms)
 Number     Number       Type             X           Y           Z
 ---------------------------------------------------------------------
      1          7           0       -2.313295   -4.324858    2.517073
      2          1           0       -1.577888   -4.803825    2.004094
      3          1           0       -2.665700   -4.905755    3.270566
      4          6           0       -1.855197   -3.035063    2.970185
      5          1           0       -2.727572   -2.391748    3.148369
      6          6           0       -0.991189   -2.449079    1.835256
      7          6           0       -1.016382   -3.012180    4.315693
      8          1           0       -1.189844   -2.060728    4.829321
      9          1           0       -1.399142   -3.805064    4.966721
     10          8           0       -0.356547   -3.184070    1.094392
     11          6           0        0.445257   -3.160598    4.054448
     12          6           0        1.300715   -2.127777    3.994299
     13          1           0        1.184775   -1.073692    4.183891
     14          6           0        1.140370   -4.372025    3.595261
     15          6           0        2.432124   -4.010356    3.200969
     16          6           0        0.756233   -5.707698    3.499130
     17          1           0       -0.239100   -6.022707    3.791602
     18          7           0        2.564088   -2.553951    3.362193
     19          1           0        2.572223   -2.064369    2.419077
     20          6           0        2.967015   -6.235138    2.615820
     21          1           0        3.664993   -6.973273    2.235581
     22          6           0        3.366036   -4.894993    2.702811
     23          1           0        4.356320   -4.580076    2.389880
     24          6           0        1.683511   -6.630795    3.008341
     25          1           0        1.403016   -7.675921    2.927810
     26          7           0       -0.924128   -1.084634    1.797072
     27          1           0       -1.595949   -0.579810    2.357968
     28          6           0       -0.205425   -0.299656    0.786224
     29          1           0       -0.594283    0.719406    0.897119
     30          6           0        1.299427   -0.273505    1.091575
     31          6           0       -0.472510   -0.727280   -0.683008
     32          1           0       -0.053858   -1.728929   -0.808493
     33          8           0        2.002847   -1.292592    1.083461
     34          6           0        0.217704    0.243446   -1.673558
     35          1           0       -0.400008    0.297688   -2.576821
     36          1           0        0.213137    1.264499   -1.261628
     37          6           0       -1.983205   -0.784616   -0.937654
     38          1           0       -2.446685    0.202756   -0.811560
     39          1           0       -2.172187   -1.109454   -1.965179
     40          1           0       -2.488303   -1.489882   -0.272803
     41          6           0        1.637226   -0.150268   -2.096955
     42          1           0        2.042811    0.577679   -2.807668
     43          1           0        1.631069   -1.129211   -2.587935
     44          1           0        2.330568   -0.220432   -1.254670
     45          7           0        1.831548    0.948983    1.310183
     46          1           0        1.224459    1.756672    1.294146
     47          6           0        3.263528    1.199938    1.354649
     48          1           0        3.737573    0.524985    0.628356
     49          6           0        3.857792    0.797936    2.706168
     50          6           0        3.567412    2.653105    0.962918
     51          1           0        3.066942    3.331351    1.668662
     52          1           0        4.638224    2.830357    1.074994
     53          8           0        3.304245    0.120121    3.551094
     54          6           0        3.156095    2.988109   -0.475142
     55          1           0        2.070377    2.906796   -0.609012
     56          1           0        3.599778    2.255076   -1.163159
     57          6           0        3.586370    4.401234   -0.878066
     58          1           0        3.165460    4.648098   -1.865527
     59          1           0        3.170568    5.121368   -0.164392
     60          7           0        5.033091    4.531427   -0.838928
     61          1           0        5.514479    3.887611   -1.459932
     62          7           0        7.005274    5.727171   -0.979809
     63          1           0        7.429447    6.645484   -0.911218
     64          1           0        7.436335    5.059847   -0.349112
     65          7           0        5.041888    6.953216   -0.818148
     66          1           0        4.029475    6.882174   -0.912181
     67          6           0        5.617520    5.811641   -0.869930
     68          8           0        5.117298    1.235714    2.832439
     69          1           0        3.390176   -2.238714    3.880962
     70          1           0        5.455229    0.934695    3.697890
 ---------------------------------------------------------------------

 SCF Done:  E(RB3LYP) =  -1582.24482414     A.U. after    3 cycles

 Alpha  occ. eigenvalues --  -19.32724 -19.27535 -19.25116 -19.22240 -14.56870
 Alpha  occ. eigenvalues --  -14.49917 -14.47683 -14.42195 -14.40752 -14.39805
 Alpha  occ. eigenvalues --  -14.34710 -10.45498 -10.42134 -10.39374 -10.36813
 Alpha  occ. eigenvalues --  -10.35816 -10.35445 -10.35133 -10.34103 -10.33557
 Alpha  occ. eigenvalues --  -10.33541 -10.32423 -10.32085 -10.31336 -10.31104
 Alpha  occ. eigenvalues --  -10.30891 -10.30775 -10.30630 -10.30404 -10.29408
 Alpha  occ. eigenvalues --  -10.28819 -10.27716 -10.26257 -10.26222  -1.23986
 Alpha  occ. eigenvalues --   -1.17203  -1.14836  -1.14399  -1.13722  -1.06274
 Alpha  occ. eigenvalues --   -1.04039  -1.03832  -0.99049  -0.97704  -0.95799
 Alpha  occ. eigenvalues --   -0.93925  -0.92357  -0.90620  -0.90116  -0.86920
 Alpha  occ. eigenvalues --   -0.86710  -0.85778  -0.84364  -0.83045  -0.80933
 Alpha  occ. eigenvalues --   -0.77950  -0.76892  -0.74896  -0.74018  -0.72688
 Alpha  occ. eigenvalues --   -0.72527  -0.71966  -0.70513  -0.70089  -0.69803
 Alpha  occ. eigenvalues --   -0.68951  -0.66531  -0.66114  -0.65084  -0.63387
 Alpha  occ. eigenvalues --   -0.63288  -0.62544  -0.61672  -0.61456  -0.61144
 Alpha  occ. eigenvalues --   -0.60837  -0.59822  -0.59662  -0.57814  -0.57633
 Alpha  occ. eigenvalues --   -0.57309  -0.56962  -0.55906  -0.55493  -0.55152
 Alpha  occ. eigenvalues --   -0.55054  -0.54953  -0.53828  -0.53385  -0.52883
 Alpha  occ. eigenvalues --   -0.52704  -0.52040  -0.51959  -0.51505  -0.51085
 Alpha  occ. eigenvalues --   -0.50341  -0.49967  -0.49647  -0.49233  -0.48738
 Alpha  occ. eigenvalues --   -0.48220  -0.48011  -0.47585  -0.47398  -0.47086
 Alpha  occ. eigenvalues --   -0.46002  -0.45800  -0.45459  -0.45026  -0.44780
 Alpha  occ. eigenvalues --   -0.44494  -0.43151  -0.42733  -0.42334  -0.41989
 Alpha  occ. eigenvalues --   -0.41766  -0.41331  -0.40003  -0.39180  -0.37377
 Alpha  occ. eigenvalues --   -0.36528  -0.35438  -0.34802  -0.32749  -0.32469
 Alpha  occ. eigenvalues --   -0.31754  -0.29536
 Alpha virt. eigenvalues --   -0.15475  -0.12752  -0.12643  -0.11534  -0.08459
 Alpha virt. eigenvalues --   -0.07803  -0.06461  -0.05256  -0.03857  -0.03561
 Alpha virt. eigenvalues --   -0.02190  -0.01498  -0.01187  -0.00545   0.00123

 Mulliken charges:
               1
     1  N   -0.715884
     2  H    0.336546
     3  H    0.308800
     4  C   -0.061825
     5  H    0.159231
     6  C    0.642309
     7  C   -0.359699
     8  H    0.160601
     9  H    0.177522
    10  O   -0.509884
    11  C    0.136792
    12  C   -0.086651
    13  H    0.201993
    14  C    0.180621
    15  C    0.201071
    16  C   -0.203062
    17  H    0.152059
    18  N   -0.752077
    19  H    0.466787
    20  C   -0.139237
    21  H    0.173666
    22  C   -0.150290
    23  H    0.166878
    24  C   -0.117537
    25  H    0.171879
    26  N   -0.628692
    27  H    0.339908
    28  C   -0.046780
    29  H    0.138917
    30  C    0.669995
    31  C   -0.082030
    32  H    0.198520
    33  O   -0.576788
    34  C   -0.286683
    35  H    0.165680
    36  H    0.119081
    37  C   -0.468911
    38  H    0.141054
    39  H    0.172801
    40  H    0.163152
    41  C   -0.460481
    42  H    0.154006
    43  H    0.168718
    44  H    0.146414
    45  N   -0.582455
    46  H    0.350576
    47  C   -0.052620
    48  H    0.211967
    49  C    0.607237
    50  C   -0.305887
    51  H    0.153708
    52  H    0.209629
    53  O   -0.499176
    54  C   -0.295112
    55  H    0.142335
    56  H    0.152786
    57  C   -0.133564
    58  H    0.158889
    59  H    0.159179
    60  N   -0.607119
    61  H    0.323634
    62  N   -0.747401
    63  H    0.345032
    64  H    0.318354
    65  N   -0.629724
    66  H    0.279482
    67  C    0.575014
    68  O   -0.536347
    69  H    0.403123
    70  H    0.429970
 Sum of Mulliken charges =   1.00000

 Dipole moment (field-independent basis, Debye):
    X=              9.2564    Y=             -7.3156    Z=             13.3457  Tot=             17.8131
 Quadrupole moment (field-independent basis, Debye-Ang):
   XX=           -138.0230   YY=           -163.9967   ZZ=           -147.8338
   XY=            -18.7993   XZ=             23.7059   YZ=            -31.7506

 Normal termination of Gaussian 16 at Thu Jun 23 13:11:36 2022.
