 Gaussian 16, Revision C.01,
 Gaussian 16:  ES64L-G16RevC.01  3-Jul-2019

 ----------------------------------------------------------------------
 # B3LYP/6-31G* empiricaldispersion=gd3bj guess=read geom=check nosymm
 integral(ultrafinegrid)
 ----------------------------------------------------------------------

 ------------------------------------------------------
 Candidate Structure: Conf:883 Charge calc in gas phase
 ------------------------------------------------------
 Structure from the checkpoint file:  "conf-883.chk"
 Charge =  1 Multiplicity = 1

                          Input orientation:
 ---------------------------------------------------------------------
 Center     Atomic      Atomic             Coordinates (Angstroms)
 Number     Number       Type             X           Y           Z
 ---------------------------------------------------------------------
      1          7           0       -0.125926    0.138252    3.084077
      2          1           0        0.784243   -0.227550    2.798594
      3          1           0       -0.009046    1.147327    3.168893
      4          6           0       -1.115830   -0.147100    2.047882
      5          1           0       -1.262891   -1.233785    2.025160
      6          6           0       -0.653872    0.341162    0.666251
      7          6           0       -2.455669    0.551609    2.381747
      8          1           0       -2.370760    1.600166    2.089967
      9          1           0       -3.258021    0.108700    1.780353
     10          8           0       -0.526065    1.557391    0.438483
     11          6           0       -2.786855    0.474798    3.836701
     12          6           0       -2.699983    1.501775    4.694605
     13          1           0       -2.325767    2.532035    4.620326
     14          6           0       -3.203920   -0.737490    4.557104
     15          6           0       -3.354622   -0.427646    5.909378
     16          6           0       -3.461441   -2.041954    4.141100
     17          1           0       -3.362361   -2.324694    3.098620
     18          7           0       -3.026133    1.010429    6.075205
     19          1           0       -2.215107    1.149500    6.692589
     20          6           0       -3.996269   -2.631653    6.448133
     21          1           0       -4.304650   -3.380261    7.169777
     22          6           0       -3.744495   -1.323111    6.883395
     23          1           0       -3.852570   -1.045916    7.927329
     24          6           0       -3.856152   -2.979921    5.100320
     25          1           0       -4.060444   -4.000568    4.793795
     26          7           0       -0.363793   -0.602008   -0.248921
     27          1           0       -0.319919   -1.566095    0.055521
     28          6           0        0.278564   -0.282984   -1.537233
     29          1           0       -0.126351    0.687639   -1.837912
     30          6           0        1.779128   -0.152756   -1.202354
     31          6           0       -0.008188   -1.333962   -2.620040
     32          1           0        0.674917   -2.174038   -2.441976
     33          8           0        2.571992   -1.077149   -1.312311
     34          6           0        0.280112   -0.760558   -4.024028
     35          1           0        0.093188   -1.564541   -4.746231
     36          1           0       -0.467868    0.017156   -4.237674
     37          6           0       -1.458367   -1.834267   -2.566452
     38          1           0       -2.167409   -1.003338   -2.665103
     39          1           0       -1.642461   -2.529467   -3.391462
     40          1           0       -1.692487   -2.362913   -1.636543
     41          6           0        1.683864   -0.196136   -4.263524
     42          1           0        1.798939    0.085167   -5.315354
     43          1           0        2.457757   -0.928155   -4.015946
     44          1           0        1.875768    0.703359   -3.667264
     45          7           0        2.112529    1.054901   -0.661232
     46          1           0        1.336752    1.658237   -0.404833
     47          6           0        3.355043    1.193157    0.073684
     48          1           0        4.199884    1.131622   -0.616676
     49          6           0        3.499694    0.055505    1.089194
     50          6           0        3.373653    2.553635    0.806017
     51          1           0        4.393606    2.758438    1.145956
     52          1           0        3.127712    3.321610    0.061665
     53          8           0        2.583027   -0.473899    1.687805
     54          6           0        2.391780    2.608111    1.986656
     55          1           0        2.824781    2.088696    2.850122
     56          1           0        1.481508    2.059435    1.733613
     57          6           0        1.987416    4.023166    2.413445
     58          1           0        2.869802    4.620761    2.668577
     59          1           0        1.472268    4.542443    1.599617
     60          7           0        1.101894    4.007601    3.571711
     61          1           0        1.534159    3.945009    4.481544
     62          7           0       -0.858545    3.878168    2.314376
     63          1           0       -1.863474    3.980977    2.351329
     64          1           0       -0.542091    3.186564    1.638654
     65          7           0       -1.029988    4.045468    4.616022
     66          1           0       -0.483583    4.316982    5.435398
     67          6           0       -0.270953    3.969135    3.560216
     68          8           0        4.788938   -0.237477    1.310438
     69          1           0       -3.804114    1.543329    6.485268
     70          1           0        4.816153   -0.946720    1.980782
 ---------------------------------------------------------------------

 SCF Done:  E(RB3LYP) =  -1582.25624376     A.U. after    2 cycles

 Alpha  occ. eigenvalues --  -19.28454 -19.23012 -19.22980 -19.19861 -14.61138
 Alpha  occ. eigenvalues --  -14.47222 -14.44503 -14.43726 -14.42471 -14.41645
 Alpha  occ. eigenvalues --  -14.37497 -10.40949 -10.39451 -10.37882 -10.37619
 Alpha  occ. eigenvalues --  -10.36609 -10.35501 -10.34580 -10.34058 -10.33999
 Alpha  occ. eigenvalues --  -10.33892 -10.32707 -10.32504 -10.32363 -10.32276
 Alpha  occ. eigenvalues --  -10.31795 -10.31346 -10.31207 -10.28643 -10.27584
 Alpha  occ. eigenvalues --  -10.26797 -10.25167 -10.24931 -10.23183  -1.19553
 Alpha  occ. eigenvalues --   -1.16566  -1.14594  -1.11928  -1.10326  -1.06692
 Alpha  occ. eigenvalues --   -1.03236  -1.01018  -1.00228  -0.99292  -0.97607
 Alpha  occ. eigenvalues --   -0.94990  -0.92935  -0.89485  -0.88718  -0.88526
 Alpha  occ. eigenvalues --   -0.87644  -0.85376  -0.83449  -0.81098  -0.79027
 Alpha  occ. eigenvalues --   -0.76928  -0.76233  -0.75611  -0.74176  -0.73487
 Alpha  occ. eigenvalues --   -0.71726  -0.70476  -0.70006  -0.69544  -0.69334
 Alpha  occ. eigenvalues --   -0.67777  -0.67366  -0.66075  -0.64776  -0.63873
 Alpha  occ. eigenvalues --   -0.62694  -0.61827  -0.61541  -0.60778  -0.60321
 Alpha  occ. eigenvalues --   -0.58722  -0.58354  -0.58301  -0.57805  -0.57383
 Alpha  occ. eigenvalues --   -0.57299  -0.56617  -0.55456  -0.55313  -0.55038
 Alpha  occ. eigenvalues --   -0.54560  -0.54167  -0.52777  -0.52422  -0.51970
 Alpha  occ. eigenvalues --   -0.51600  -0.51160  -0.50682  -0.50581  -0.49898
 Alpha  occ. eigenvalues --   -0.49584  -0.49334  -0.48675  -0.48588  -0.48263
 Alpha  occ. eigenvalues --   -0.47656  -0.47614  -0.47190  -0.46736  -0.46061
 Alpha  occ. eigenvalues --   -0.45643  -0.44343  -0.44120  -0.43605  -0.42948
 Alpha  occ. eigenvalues --   -0.42926  -0.42174  -0.40522  -0.40135  -0.39557
 Alpha  occ. eigenvalues --   -0.39309  -0.39257  -0.38329  -0.37406  -0.36947
 Alpha  occ. eigenvalues --   -0.36382  -0.35908  -0.34621  -0.34173  -0.33579
 Alpha  occ. eigenvalues --   -0.32716  -0.31018
 Alpha virt. eigenvalues --   -0.16733  -0.14544  -0.10200  -0.09731  -0.08640
 Alpha virt. eigenvalues --   -0.07897  -0.05507  -0.04128  -0.04044  -0.03168
 Alpha virt. eigenvalues --   -0.02942  -0.02807  -0.00761  -0.00479   0.00439

 Mulliken charges:
               1
     1  N   -0.753540
     2  H    0.364171
     3  H    0.318907
     4  C   -0.063782
     5  H    0.144022
     6  C    0.649268
     7  C   -0.392266
     8  H    0.183848
     9  H    0.180804
    10  O   -0.574917
    11  C    0.180811
    12  C   -0.129976
    13  H    0.283652
    14  C    0.175245
    15  C    0.161353
    16  C   -0.199453
    17  H    0.166663
    18  N   -0.736333
    19  H    0.424930
    20  C   -0.139644
    21  H    0.181986
    22  C   -0.151656
    23  H    0.176885
    24  C   -0.114349
    25  H    0.178733
    26  N   -0.596412
    27  H    0.350715
    28  C   -0.061935
    29  H    0.180634
    30  C    0.642771
    31  C   -0.113300
    32  H    0.163851
    33  O   -0.520860
    34  C   -0.256933
    35  H    0.150554
    36  H    0.134582
    37  C   -0.448094
    38  H    0.148835
    39  H    0.166305
    40  H    0.123106
    41  C   -0.465493
    42  H    0.156200
    43  H    0.174928
    44  H    0.141012
    45  N   -0.620696
    46  H    0.367092
    47  C   -0.019257
    48  H    0.200554
    49  C    0.626956
    50  C   -0.315047
    51  H    0.177670
    52  H    0.170903
    53  O   -0.506162
    54  C   -0.294112
    55  H    0.145263
    56  H    0.150436
    57  C   -0.151644
    58  H    0.166309
    59  H    0.184377
    60  N   -0.600738
    61  H    0.324233
    62  N   -0.787606
    63  H    0.339493
    64  H    0.382751
    65  N   -0.720527
    66  H    0.268007
    67  C    0.634914
    68  O   -0.553290
    69  H    0.423377
    70  H    0.420916
 Sum of Mulliken charges =   1.00000

 Dipole moment (field-independent basis, Debye):
    X=             -8.0009    Y=              1.3467    Z=             21.4849  Tot=             22.9659
 Quadrupole moment (field-independent basis, Debye-Ang):
   XX=           -145.9503   YY=           -177.7540   ZZ=            -50.4511
   XY=             21.5446   XZ=            -51.3528   YZ=              6.4873

 Normal termination of Gaussian 16 at Thu Jun 23 13:11:24 2022.
