 Gaussian 16, Revision C.01,
 Gaussian 16:  ES64L-G16RevC.01  3-Jul-2019

 ----------------------------------------------------------------------
 # B3LYP/6-31G* empiricaldispersion=gd3bj guess=read geom=check nosymm
 integral(ultrafinegrid)
 ----------------------------------------------------------------------

 ------------------------------------------------------
 Candidate Structure: Conf:950 Charge calc in gas phase
 ------------------------------------------------------
 Structure from the checkpoint file:  "conf-950.chk"
 Charge =  1 Multiplicity = 1

                          Input orientation:
 ---------------------------------------------------------------------
 Center     Atomic      Atomic             Coordinates (Angstroms)
 Number     Number       Type             X           Y           Z
 ---------------------------------------------------------------------
      1          7           0       -2.759065   -3.153238    2.906938
      2          1           0       -3.059953   -3.406881    3.845913
      3          1           0       -3.419198   -2.461842    2.557772
      4          6           0       -1.405243   -2.616090    2.934639
      5          1           0       -1.276998   -1.739929    3.600221
      6          6           0       -0.992633   -2.220760    1.498492
      7          6           0       -0.444844   -3.734238    3.407679
      8          1           0       -0.714050   -4.035630    4.426406
      9          1           0       -0.602687   -4.585945    2.743752
     10          8           0       -0.750381   -3.068181    0.653850
     11          6           0        0.977944   -3.276543    3.347986
     12          6           0        1.800923   -3.449870    2.303346
     13          1           0        1.634727   -3.908915    1.341574
     14          6           0        1.652866   -2.423900    4.338507
     15          6           0        2.906189   -2.063688    3.837576
     16          6           0        1.275415   -1.964388    5.600425
     17          1           0        0.309229   -2.222455    6.021463
     18          7           0        3.029358   -2.636270    2.482098
     19          1           0        3.902167   -3.157645    2.341815
     20          6           0        3.438863   -0.854502    5.797122
     21          1           0        4.129332   -0.259885    6.386293
     22          6           0        3.831618   -1.302936    4.526909
     23          1           0        4.795544   -1.048590    4.102290
     24          6           0        2.178913   -1.175835    6.318301
     25          1           0        1.905682   -0.816291    7.305061
     26          7           0       -0.935963   -0.868394    1.289720
     27          1           0       -1.088185   -0.284731    2.100763
     28          6           0       -0.349878   -0.189418    0.133432
     29          1           0       -0.751845    0.831710    0.151079
     30          6           0        1.166165   -0.112334    0.336511
     31          6           0       -0.738038   -0.800985   -1.240663
     32          1           0       -0.376319   -1.830892   -1.251581
     33          8           0        1.823715   -1.099961    0.694761
     34          6           0       -0.078660   -0.022258   -2.403281
     35          1           0       -0.753155   -0.066252   -3.265476
     36          1           0       -0.004727    1.046830   -2.152526
     37          6           0       -2.264619   -0.819710   -1.374768
     38          1           0       -2.678175    0.196984   -1.360073
     39          1           0       -2.546314   -1.280344   -2.326440
     40          1           0       -2.734934   -1.396651   -0.575114
     41          6           0        1.287197   -0.564525   -2.839839
     42          1           0        1.708275    0.042163   -3.648362
     43          1           0        1.186973   -1.590383   -3.210474
     44          1           0        2.016619   -0.587597   -2.024341
     45          7           0        1.765650    1.072588    0.118248
     46          1           0        1.222272    1.883528   -0.140792
     47          6           0        3.210314    1.193792    0.259236
     48          1           0        3.688343    0.475835   -0.414086
     49          6           0        3.646236    0.753864    1.655704
     50          6           0        3.701642    2.605661   -0.099068
     51          1           0        4.789318    2.617538    0.028978
     52          1           0        3.506218    2.754763   -1.169584
     53          8           0        4.617436    0.055249    1.864414
     54          6           0        3.103552    3.764763    0.704046
     55          1           0        3.233750    3.586060    1.777114
     56          1           0        2.020860    3.850272    0.534328
     57          6           0        3.753330    5.102119    0.321497
     58          1           0        3.637376    5.289883   -0.748676
     59          1           0        3.239296    5.917656    0.847906
     60          7           0        5.186960    5.115764    0.621425
     61          1           0        5.398618    5.401941    1.569855
     62          7           0        5.857217    5.267527   -1.617229
     63          1           0        6.608355    5.592115   -2.217102
     64          1           0        5.678879    4.277454   -1.752477
     65          7           0        7.163160    6.322750   -0.019617
     66          1           0        7.161110    6.638758    0.952131
     67          6           0        6.128848    5.619852   -0.290656
     68          8           0        2.845255    1.221888    2.632486
     69          1           0        2.970567   -1.878418    1.755382
     70          1           0        3.191330    0.882970    3.481730
 ---------------------------------------------------------------------

 SCF Done:  E(RB3LYP) =  -1582.23870811     A.U. after    1 cycles

 Alpha  occ. eigenvalues --  -19.31884 -19.26224 -19.25483 -19.21773 -14.58796
 Alpha  occ. eigenvalues --  -14.49561 -14.47512 -14.42323 -14.41976 -14.40465
 Alpha  occ. eigenvalues --  -14.34828 -10.44395 -10.41907 -10.39190 -10.37650
 Alpha  occ. eigenvalues --  -10.36289 -10.35978 -10.35252 -10.34395 -10.34313
 Alpha  occ. eigenvalues --  -10.34171 -10.33883 -10.33663 -10.32950 -10.32835
 Alpha  occ. eigenvalues --  -10.32589 -10.30897 -10.30473 -10.30414 -10.28857
 Alpha  occ. eigenvalues --  -10.28754 -10.27588 -10.26215 -10.25934  -1.22936
 Alpha  occ. eigenvalues --   -1.17360  -1.15259  -1.13885  -1.13799  -1.05958
 Alpha  occ. eigenvalues --   -1.04123  -1.03735  -0.99955  -0.99367  -0.95732
 Alpha  occ. eigenvalues --   -0.95118  -0.92164  -0.90889  -0.90011  -0.88642
 Alpha  occ. eigenvalues --   -0.87790  -0.85487  -0.84881  -0.83353  -0.80699
 Alpha  occ. eigenvalues --   -0.77804  -0.76968  -0.75890  -0.74118  -0.73606
 Alpha  occ. eigenvalues --   -0.73054  -0.72155  -0.71228  -0.70169  -0.69314
 Alpha  occ. eigenvalues --   -0.69191  -0.67567  -0.66991  -0.65994  -0.64075
 Alpha  occ. eigenvalues --   -0.63115  -0.62612  -0.61672  -0.61239  -0.60956
 Alpha  occ. eigenvalues --   -0.60804  -0.60022  -0.59317  -0.58182  -0.58081
 Alpha  occ. eigenvalues --   -0.57391  -0.57315  -0.57030  -0.56808  -0.55784
 Alpha  occ. eigenvalues --   -0.54686  -0.54359  -0.53919  -0.53478  -0.52837
 Alpha  occ. eigenvalues --   -0.52306  -0.51832  -0.51801  -0.51564  -0.51086
 Alpha  occ. eigenvalues --   -0.50833  -0.50500  -0.50443  -0.49867  -0.49206
 Alpha  occ. eigenvalues --   -0.48720  -0.48400  -0.48001  -0.47409  -0.47047
 Alpha  occ. eigenvalues --   -0.46631  -0.45985  -0.45693  -0.44751  -0.44354
 Alpha  occ. eigenvalues --   -0.43824  -0.43150  -0.42643  -0.42365  -0.42183
 Alpha  occ. eigenvalues --   -0.41546  -0.41004  -0.40104  -0.39393  -0.38279
 Alpha  occ. eigenvalues --   -0.36682  -0.36234  -0.34988  -0.33729  -0.33279
 Alpha  occ. eigenvalues --   -0.32049  -0.29327
 Alpha virt. eigenvalues --   -0.16876  -0.14774  -0.12315  -0.11103  -0.09170
 Alpha virt. eigenvalues --   -0.08196  -0.06691  -0.05641  -0.03890  -0.03347
 Alpha virt. eigenvalues --   -0.02850  -0.01986  -0.01283  -0.00535  -0.00235

 Mulliken charges:
               1
     1  N   -0.699747
     2  H    0.315736
     3  H    0.316902
     4  C   -0.059163
     5  H    0.107454
     6  C    0.644431
     7  C   -0.349152
     8  H    0.164591
     9  H    0.216760
    10  O   -0.508020
    11  C    0.131039
    12  C   -0.056435
    13  H    0.238570
    14  C    0.150095
    15  C    0.178699
    16  C   -0.206080
    17  H    0.169601
    18  N   -0.745005
    19  H    0.414198
    20  C   -0.155964
    21  H    0.180708
    22  C   -0.207047
    23  H    0.204860
    24  C   -0.115132
    25  H    0.177887
    26  N   -0.615726
    27  H    0.335899
    28  C   -0.060773
    29  H    0.147961
    30  C    0.673332
    31  C   -0.081803
    32  H    0.194930
    33  O   -0.590541
    34  C   -0.279320
    35  H    0.166590
    36  H    0.112581
    37  C   -0.459806
    38  H    0.141256
    39  H    0.170197
    40  H    0.163231
    41  C   -0.462741
    42  H    0.158224
    43  H    0.167344
    44  H    0.143414
    45  N   -0.597273
    46  H    0.353877
    47  C   -0.003953
    48  H    0.198052
    49  C    0.595315
    50  C   -0.334136
    51  H    0.195056
    52  H    0.165949
    53  O   -0.491678
    54  C   -0.267404
    55  H    0.156449
    56  H    0.126424
    57  C   -0.154747
    58  H    0.189819
    59  H    0.157313
    60  N   -0.595593
    61  H    0.314836
    62  N   -0.736490
    63  H    0.347673
    64  H    0.316040
    65  N   -0.614015
    66  H    0.268656
    67  C    0.546355
    68  O   -0.562242
    69  H    0.467193
    70  H    0.424487
 Sum of Mulliken charges =   1.00000

 Dipole moment (field-independent basis, Debye):
    X=              6.5253    Y=             -2.5292    Z=             13.8060  Tot=             15.4784
 Quadrupole moment (field-independent basis, Debye-Ang):
   XX=           -177.7653   YY=           -185.2639   ZZ=           -119.1068
   XY=            -22.0277   XZ=             22.2206   YZ=            -16.1076

 Normal termination of Gaussian 16 at Thu Jun 23 13:11:10 2022.
