 Gaussian 16, Revision C.01,
 Gaussian 16:  ES64L-G16RevC.01  3-Jul-2019

 ----------------------------------------------------------------------
 # B3LYP/6-31G* empiricaldispersion=gd3bj guess=read geom=check nosymm
 integral(ultrafinegrid)
 ----------------------------------------------------------------------

 ------------------------------------------------------
 Candidate Structure: Conf:549 Charge calc in gas phase
 ------------------------------------------------------
 Structure from the checkpoint file:  "conf-549.chk"
 Charge =  1 Multiplicity = 1

                          Input orientation:
 ---------------------------------------------------------------------
 Center     Atomic      Atomic             Coordinates (Angstroms)
 Number     Number       Type             X           Y           Z
 ---------------------------------------------------------------------
      1          7           0       -2.907475   -2.611930    3.099060
      2          1           0       -3.173236   -2.675954    4.079703
      3          1           0       -3.520828   -1.925062    2.665996
      4          6           0       -1.512273   -2.219127    2.976728
      5          1           0       -1.257729   -1.275701    3.496949
      6          6           0       -1.138878   -2.088217    1.483465
      7          6           0       -0.634052   -3.354478    3.568585
      8          1           0       -0.788187   -3.406576    4.652321
      9          1           0       -0.990303   -4.285297    3.123289
     10          8           0       -1.147939   -3.056041    0.740087
     11          6           0        0.807773   -3.139997    3.239084
     12          6           0        1.437341   -3.680597    2.184059
     13          1           0        1.078690   -4.339001    1.408100
     14          6           0        1.710973   -2.170950    3.876975
     15          6           0        2.904151   -2.133126    3.148220
     16          6           0        1.577907   -1.346587    4.993153
     17          1           0        0.666583   -1.347325    5.582056
     18          7           0        2.754662   -3.034222    1.992991
     19          1           0        3.528923   -3.697842    1.881304
     20          6           0        3.836348   -0.518622    4.596197
     21          1           0        4.657770    0.122625    4.897171
     22          6           0        3.982673   -1.332477    3.464541
     23          1           0        4.894461   -1.318392    2.876622
     24          6           0        2.653027   -0.523875    5.341989
     25          1           0        2.570138    0.121732    6.210033
     26          7           0       -0.764023   -0.821740    1.123654
     27          1           0       -0.790810   -0.123861    1.854458
     28          6           0       -0.158153   -0.379753   -0.139282
     29          1           0       -0.436861    0.676514   -0.247463
     30          6           0        1.366761   -0.457420    0.029170
     31          6           0       -0.634870   -1.107340   -1.414356
     32          1           0       -0.381362   -2.163739   -1.305516
     33          8           0        1.976207   -1.542964   -0.001268
     34          6           0        0.122469   -0.536764   -2.629048
     35          1           0       -0.045820    0.544888   -2.718722
     36          1           0        1.200166   -0.669055   -2.468331
     37          6           0       -2.153835   -0.971288   -1.554458
     38          1           0       -2.445927    0.078887   -1.683535
     39          1           0       -2.505616   -1.524429   -2.428443
     40          1           0       -2.675426   -1.376024   -0.684307
     41          6           0       -0.237798   -1.210266   -3.955951
     42          1           0        0.421532   -0.847533   -4.749974
     43          1           0       -1.268320   -0.995029   -4.254673
     44          1           0       -0.127971   -2.299522   -3.889180
     45          7           0        1.987942    0.719220    0.219220
     46          1           0        1.426272    1.557837    0.293232
     47          6           0        3.419832    0.883817    0.393031
     48          1           0        3.863540   -0.113881    0.376976
     49          6           0        3.673479    1.538373    1.744529
     50          6           0        4.031995    1.740064   -0.739916
     51          1           0        3.610284    2.753014   -0.671515
     52          1           0        5.106876    1.835045   -0.554025
     53          8           0        2.825771    2.075468    2.418538
     54          6           0        3.751515    1.158123   -2.125724
     55          1           0        2.679957    0.965972   -2.224266
     56          1           0        4.256913    0.190254   -2.239818
     57          6           0        4.165114    2.102182   -3.269733
     58          1           0        3.861654    3.130016   -3.036979
     59          1           0        5.252930    2.124943   -3.387126
     60          7           0        3.582640    1.745117   -4.552519
     61          1           0        3.985370    0.921570   -4.984535
     62          7           0        1.773433    1.179730   -5.888164
     63          1           0        0.811239    1.421009   -6.099287
     64          1           0        2.372161    1.306926   -6.698096
     65          7           0        1.347431    2.466948   -4.007743
     66          1           0        1.778148    2.841617   -3.163898
     67          6           0        2.205494    1.854476   -4.744534
     68          8           0        4.981349    1.487624    2.073794
     69          1           0        2.651745   -2.438427    1.105541
     70          1           0        5.088665    2.002041    2.896827
 ---------------------------------------------------------------------

 SCF Done:  E(RB3LYP) =  -1582.24721472     A.U. after    3 cycles

 Alpha  occ. eigenvalues --  -19.31722 -19.26024 -19.25522 -19.21386 -14.58218
 Alpha  occ. eigenvalues --  -14.49750 -14.47365 -14.42837 -14.41578 -14.41035
 Alpha  occ. eigenvalues --  -14.35806 -10.44019 -10.42218 -10.38872 -10.37422
 Alpha  occ. eigenvalues --  -10.36261 -10.36131 -10.35285 -10.34501 -10.34222
 Alpha  occ. eigenvalues --  -10.33878 -10.33711 -10.33606 -10.32635 -10.32572
 Alpha  occ. eigenvalues --  -10.32213 -10.31000 -10.30781 -10.30595 -10.28287
 Alpha  occ. eigenvalues --  -10.27292 -10.25269 -10.24611 -10.23519  -1.22620
 Alpha  occ. eigenvalues --   -1.17220  -1.14911  -1.13770  -1.13553  -1.06267
 Alpha  occ. eigenvalues --   -1.05072  -1.03350  -0.99633  -0.99039  -0.96385
 Alpha  occ. eigenvalues --   -0.94953  -0.92022  -0.91259  -0.89715  -0.88379
 Alpha  occ. eigenvalues --   -0.87559  -0.85487  -0.84782  -0.82504  -0.78885
 Alpha  occ. eigenvalues --   -0.77473  -0.76745  -0.75882  -0.74000  -0.73799
 Alpha  occ. eigenvalues --   -0.72774  -0.71581  -0.71236  -0.70560  -0.69529
 Alpha  occ. eigenvalues --   -0.68107  -0.67360  -0.65473  -0.64539  -0.62940
 Alpha  occ. eigenvalues --   -0.62840  -0.62519  -0.61646  -0.61295  -0.61157
 Alpha  occ. eigenvalues --   -0.60679  -0.59901  -0.59394  -0.59088  -0.58219
 Alpha  occ. eigenvalues --   -0.57639  -0.57227  -0.56935  -0.56813  -0.55823
 Alpha  occ. eigenvalues --   -0.54655  -0.54207  -0.54033  -0.53353  -0.52637
 Alpha  occ. eigenvalues --   -0.52254  -0.51411  -0.51265  -0.51128  -0.50825
 Alpha  occ. eigenvalues --   -0.50404  -0.50278  -0.49702  -0.49203  -0.48682
 Alpha  occ. eigenvalues --   -0.48298  -0.48098  -0.47250  -0.47114  -0.46668
 Alpha  occ. eigenvalues --   -0.45801  -0.45215  -0.44841  -0.44294  -0.43772
 Alpha  occ. eigenvalues --   -0.43468  -0.43023  -0.42776  -0.41053  -0.40837
 Alpha  occ. eigenvalues --   -0.40098  -0.39776  -0.39512  -0.39160  -0.38805
 Alpha  occ. eigenvalues --   -0.36340  -0.35754  -0.34633  -0.33627  -0.33420
 Alpha  occ. eigenvalues --   -0.33042  -0.30059
 Alpha virt. eigenvalues --   -0.16637  -0.14368  -0.11913  -0.10994  -0.09052
 Alpha virt. eigenvalues --   -0.07730  -0.06932  -0.05313  -0.05032  -0.03151
 Alpha virt. eigenvalues --   -0.02298  -0.01718  -0.01106  -0.00998  -0.00112

 Mulliken charges:
               1
     1  N   -0.699823
     2  H    0.315807
     3  H    0.319262
     4  C   -0.053238
     5  H    0.110634
     6  C    0.629793
     7  C   -0.350041
     8  H    0.168191
     9  H    0.214716
    10  O   -0.505521
    11  C    0.125704
    12  C   -0.067079
    13  H    0.236464
    14  C    0.153078
    15  C    0.177076
    16  C   -0.206497
    17  H    0.169218
    18  N   -0.752194
    19  H    0.406886
    20  C   -0.141174
    21  H    0.162783
    22  C   -0.171719
    23  H    0.176074
    24  C   -0.109592
    25  H    0.176332
    26  N   -0.623959
    27  H    0.336705
    28  C   -0.041749
    29  H    0.152960
    30  C    0.652832
    31  C   -0.079343
    32  H    0.180146
    33  O   -0.596589
    34  C   -0.290764
    35  H    0.160642
    36  H    0.137647
    37  C   -0.462672
    38  H    0.141596
    39  H    0.172853
    40  H    0.158478
    41  C   -0.468740
    42  H    0.175554
    43  H    0.154816
    44  H    0.143603
    45  N   -0.560620
    46  H    0.357057
    47  C   -0.066841
    48  H    0.180303
    49  C    0.603560
    50  C   -0.283130
    51  H    0.153839
    52  H    0.182485
    53  O   -0.457129
    54  C   -0.286979
    55  H    0.174633
    56  H    0.145542
    57  C   -0.165452
    58  H    0.164764
    59  H    0.165458
    60  N   -0.577429
    61  H    0.326066
    62  N   -0.753231
    63  H    0.345988
    64  H    0.330664
    65  N   -0.644319
    66  H    0.265824
    67  C    0.587268
    68  O   -0.569859
    69  H    0.465582
    70  H    0.426801
 Sum of Mulliken charges =   1.00000

 Dipole moment (field-independent basis, Debye):
    X=             13.5049    Y=             -3.3840    Z=              8.9831  Tot=             16.5689
 Quadrupole moment (field-independent basis, Debye-Ang):
   XX=           -129.1021   YY=           -182.4802   ZZ=           -123.0162
   XY=             -9.0161   XZ=              4.0567   YZ=            -17.3756

 Normal termination of Gaussian 16 at Thu Jun 23 13:11:41 2022.
