 Gaussian 16, Revision C.01,
 Gaussian 16:  ES64L-G16RevC.01  3-Jul-2019

 ----------------------------------------------------------------------
 # B3LYP/6-31G* empiricaldispersion=gd3bj guess=read geom=check nosymm
 integral(ultrafinegrid)
 ----------------------------------------------------------------------

 ------------------------------------------------------
 Candidate Structure: Conf:448 Charge calc in gas phase
 ------------------------------------------------------
 Structure from the checkpoint file:  "conf-448.chk"
 Charge =  1 Multiplicity = 1

                          Input orientation:
 ---------------------------------------------------------------------
 Center     Atomic      Atomic             Coordinates (Angstroms)
 Number     Number       Type             X           Y           Z
 ---------------------------------------------------------------------
      1          7           0       -3.340651   -1.947872    1.354271
      2          1           0       -3.819826   -2.706731    0.871703
      3          1           0       -3.916198   -1.684552    2.150890
      4          6           0       -2.004380   -2.357701    1.776013
      5          1           0       -1.591940   -1.521085    2.355894
      6          6           0       -1.121888   -2.500549    0.517891
      7          6           0       -1.918005   -3.638957    2.647643
      8          1           0       -2.697000   -3.587770    3.416531
      9          1           0       -2.112904   -4.515469    2.024775
     10          8           0       -0.400792   -3.471296    0.313155
     11          6           0       -0.571405   -3.747151    3.294626
     12          6           0        0.484876   -4.421181    2.818297
     13          1           0        0.611525   -4.990969    1.912603
     14          6           0       -0.148302   -2.989814    4.483239
     15          6           0        1.217678   -3.204049    4.685067
     16          6           0       -0.832627   -2.154650    5.364945
     17          1           0       -1.894443   -1.965296    5.245801
     18          7           0        1.698374   -4.091143    3.606626
     19          1           0        2.183052   -4.922978    3.962593
     20          6           0        1.248265   -1.811616    6.591406
     21          1           0        1.775373   -1.348558    7.418584
     22          6           0        1.951511   -2.644804    5.710424
     23          1           0        3.013129   -2.831265    5.837951
     24          6           0       -0.119357   -1.572448    6.417463
     25          1           0       -0.636937   -0.924034    7.116878
     26          7           0       -1.177467   -1.427022   -0.314691
     27          1           0       -2.006144   -0.850119   -0.215362
     28          6           0       -0.476296   -1.452432   -1.604006
     29          1           0       -0.616692   -0.448854   -2.026222
     30          6           0        1.038851   -1.605717   -1.342303
     31          6           0       -0.995911   -2.488759   -2.628517
     32          1           0       -0.523682   -3.447159   -2.391961
     33          8           0        1.779875   -2.296521   -2.021734
     34          6           0       -0.554971   -2.063644   -4.044605
     35          1           0       -1.138613   -1.180701   -4.345802
     36          1           0        0.494469   -1.758084   -4.011750
     37          6           0       -2.517965   -2.645301   -2.541180
     38          1           0       -3.029887   -1.686181   -2.694564
     39          1           0       -2.875854   -3.334794   -3.310080
     40          1           0       -2.835550   -3.048039   -1.574077
     41          6           0       -0.705434   -3.168240   -5.092964
     42          1           0       -0.348298   -2.824727   -6.069231
     43          1           0       -1.746313   -3.484946   -5.218631
     44          1           0       -0.115798   -4.048777   -4.813241
     45          7           0        1.519620   -0.819816   -0.324450
     46          1           0        0.864529   -0.400432    0.319906
     47          6           0        2.929593   -0.795003   -0.027302
     48          1           0        3.469520   -0.895260   -0.971516
     49          6           0        3.347481   -1.967100    0.850481
     50          6           0        3.338415    0.516461    0.672414
     51          1           0        2.787837    0.602143    1.620570
     52          1           0        4.402123    0.448102    0.931218
     53          8           0        2.673483   -2.412554    1.772104
     54          6           0        3.102229    1.745726   -0.208397
     55          1           0        2.035888    1.839310   -0.448202
     56          1           0        3.634488    1.622433   -1.158090
     57          6           0        3.594924    3.038435    0.456991
     58          1           0        3.067766    3.210998    1.402855
     59          1           0        4.655629    2.936619    0.706098
     60          7           0        3.414023    4.234488   -0.364267
     61          1           0        2.452599    4.553194   -0.397488
     62          7           0        5.328007    3.804172   -1.636667
     63          1           0        5.764009    4.005872   -2.530569
     64          1           0        5.904910    4.131191   -0.867433
     65          7           0        3.530536    4.815216   -2.694912
     66          1           0        2.538750    5.033477   -2.580545
     67          6           0        4.029419    4.325508   -1.622180
     68          8           0        4.569535   -2.405332    0.553239
     69          1           0        2.340887   -3.560352    2.958128
     70          1           0        4.818082   -3.118639    1.170290
 ---------------------------------------------------------------------

 SCF Done:  E(RB3LYP) =  -1582.24067279     A.U. after    1 cycles

 Alpha  occ. eigenvalues --  -19.32507 -19.27895 -19.22466 -19.20421 -14.59249
 Alpha  occ. eigenvalues --  -14.45861 -14.45268 -14.43919 -14.41325 -14.39655
 Alpha  occ. eigenvalues --  -14.34168 -10.45022 -10.39054 -10.37700 -10.37683
 Alpha  occ. eigenvalues --  -10.36441 -10.34642 -10.34549 -10.34133 -10.34103
 Alpha  occ. eigenvalues --  -10.33918 -10.33543 -10.32875 -10.32586 -10.32376
 Alpha  occ. eigenvalues --  -10.32179 -10.31645 -10.29849 -10.29641 -10.27024
 Alpha  occ. eigenvalues --  -10.26102 -10.24862 -10.24057 -10.22871  -1.23752
 Alpha  occ. eigenvalues --   -1.15927  -1.14604  -1.14434  -1.12535  -1.03421
 Alpha  occ. eigenvalues --   -1.03267  -1.01994  -1.00581  -0.99568  -0.95327
 Alpha  occ. eigenvalues --   -0.94794  -0.90291  -0.89497  -0.88630  -0.88314
 Alpha  occ. eigenvalues --   -0.87826  -0.85403  -0.83922  -0.81439  -0.78342
 Alpha  occ. eigenvalues --   -0.77167  -0.76653  -0.76121  -0.74152  -0.73260
 Alpha  occ. eigenvalues --   -0.72445  -0.70822  -0.69772  -0.69208  -0.68553
 Alpha  occ. eigenvalues --   -0.67746  -0.66751  -0.65858  -0.64558  -0.63468
 Alpha  occ. eigenvalues --   -0.62852  -0.62349  -0.61533  -0.61130  -0.60273
 Alpha  occ. eigenvalues --   -0.59775  -0.58985  -0.58488  -0.58259  -0.57369
 Alpha  occ. eigenvalues --   -0.57189  -0.56673  -0.55825  -0.54857  -0.54406
 Alpha  occ. eigenvalues --   -0.53588  -0.53426  -0.53411  -0.52824  -0.52235
 Alpha  occ. eigenvalues --   -0.51980  -0.51501  -0.51069  -0.50496  -0.50299
 Alpha  occ. eigenvalues --   -0.49680  -0.49235  -0.48797  -0.48715  -0.48409
 Alpha  occ. eigenvalues --   -0.47444  -0.47372  -0.47020  -0.46654  -0.45967
 Alpha  occ. eigenvalues --   -0.44995  -0.44678  -0.44553  -0.44090  -0.43527
 Alpha  occ. eigenvalues --   -0.42850  -0.42386  -0.42130  -0.41278  -0.40982
 Alpha  occ. eigenvalues --   -0.39207  -0.39114  -0.38759  -0.37485  -0.36793
 Alpha  occ. eigenvalues --   -0.36273  -0.34879  -0.34490  -0.33330  -0.32398
 Alpha  occ. eigenvalues --   -0.31391  -0.28544
 Alpha virt. eigenvalues --   -0.16858  -0.14486  -0.11930  -0.09936  -0.08663
 Alpha virt. eigenvalues --   -0.07810  -0.06845  -0.04765  -0.03702  -0.02847
 Alpha virt. eigenvalues --   -0.01787  -0.00754  -0.00413   0.00085   0.00383

 Mulliken charges:
               1
     1  N   -0.727520
     2  H    0.328178
     3  H    0.323418
     4  C   -0.084392
     5  H    0.166454
     6  C    0.625258
     7  C   -0.355052
     8  H    0.162952
     9  H    0.188737
    10  O   -0.525022
    11  C    0.147375
    12  C   -0.060112
    13  H    0.236379
    14  C    0.151825
    15  C    0.179546
    16  C   -0.208397
    17  H    0.163805
    18  N   -0.745967
    19  H    0.408335
    20  C   -0.142237
    21  H    0.179326
    22  C   -0.152662
    23  H    0.172571
    24  C   -0.116010
    25  H    0.176860
    26  N   -0.630408
    27  H    0.362313
    28  C   -0.053310
    29  H    0.171329
    30  C    0.637242
    31  C   -0.062279
    32  H    0.165764
    33  O   -0.508873
    34  C   -0.269950
    35  H    0.125295
    36  H    0.165452
    37  C   -0.466107
    38  H    0.139054
    39  H    0.169934
    40  H    0.126382
    41  C   -0.453365
    42  H    0.156560
    43  H    0.146325
    44  H    0.154586
    45  N   -0.599732
    46  H    0.332426
    47  C   -0.029198
    48  H    0.217281
    49  C    0.621590
    50  C   -0.307680
    51  H    0.140489
    52  H    0.169449
    53  O   -0.519179
    54  C   -0.261208
    55  H    0.133505
    56  H    0.187403
    57  C   -0.138679
    58  H    0.143103
    59  H    0.156337
    60  N   -0.576278
    61  H    0.310250
    62  N   -0.740125
    63  H    0.344608
    64  H    0.325495
    65  N   -0.617344
    66  H    0.264836
    67  C    0.538425
    68  O   -0.516251
    69  H    0.434568
    70  H    0.416320
 Sum of Mulliken charges =   1.00000

 Dipole moment (field-independent basis, Debye):
    X=              3.3318    Y=            -11.7052    Z=             18.4761  Tot=             22.1242
 Quadrupole moment (field-independent basis, Debye-Ang):
   XX=           -142.3272   YY=           -151.3682   ZZ=           -130.3635
   XY=            -13.7927   XZ=             29.7223   YZ=            -41.0549

 Normal termination of Gaussian 16 at Thu Jun 23 13:11:08 2022.
