 Gaussian 16, Revision C.01,
 Gaussian 16:  ES64L-G16RevC.01  3-Jul-2019

 ----------------------------------------------------------------------
 # B3LYP/6-31G* empiricaldispersion=gd3bj guess=read geom=check nosymm
 integral(ultrafinegrid)
 ----------------------------------------------------------------------

 ------------------------------------------------------
 Candidate Structure: Conf:617 Charge calc in gas phase
 ------------------------------------------------------
 Structure from the checkpoint file:  "conf-617.chk"
 Charge =  1 Multiplicity = 1

                          Input orientation:
 ---------------------------------------------------------------------
 Center     Atomic      Atomic             Coordinates (Angstroms)
 Number     Number       Type             X           Y           Z
 ---------------------------------------------------------------------
      1          7           0       -0.692398   -3.764564    2.047734
      2          1           0       -1.349205   -4.454652    1.683642
      3          1           0        0.223955   -4.073739    1.713502
      4          6           0       -0.957157   -2.475549    1.413064
      5          1           0       -2.028332   -2.256326    1.503984
      6          6           0       -0.517292   -2.459878   -0.065487
      7          6           0       -0.160516   -1.355987    2.111979
      8          1           0        0.911862   -1.547308    1.974958
      9          1           0       -0.347057   -0.406251    1.602966
     10          8           0        0.449154   -3.121571   -0.420025
     11          6           0       -0.438225   -1.179412    3.570750
     12          6           0       -0.805727   -2.117160    4.458715
     13          1           0       -0.976209   -3.176536    4.343761
     14          6           0       -0.304249    0.115505    4.260811
     15          6           0       -0.604352   -0.056860    5.612714
     16          6           0        0.043789    1.387816    3.811394
     17          1           0        0.283040    1.583333    2.771867
     18          7           0       -0.941926   -1.491215    5.816691
     19          1           0       -1.893916   -1.609604    6.187761
     20          6           0       -0.227949    2.221381    6.086962
     21          1           0       -0.193581    3.050215    6.786156
     22          6           0       -0.583813    0.948388    6.557255
     23          1           0       -0.824312    0.779023    7.602290
     24          6           0        0.079040    2.435632    4.738265
     25          1           0        0.363099    3.417782    4.368960
     26          7           0       -1.174313   -1.587810   -0.881563
     27          1           0       -2.086894   -1.268409   -0.585307
     28          6           0       -0.865231   -1.496658   -2.317672
     29          1           0       -1.477667   -0.663306   -2.686168
     30          6           0        0.613448   -1.077000   -2.503696
     31          6           0       -1.213484   -2.759752   -3.143876
     32          1           0       -0.363420   -3.444433   -3.064669
     33          8           0        1.293953   -1.460287   -3.442865
     34          6           0       -1.386947   -2.364682   -4.625353
     35          1           0       -2.329549   -1.806072   -4.732826
     36          1           0       -0.576181   -1.687432   -4.904983
     37          6           0       -2.467423   -3.457199   -2.604595
     38          1           0       -3.330182   -2.777103   -2.589841
     39          1           0       -2.733225   -4.306404   -3.239375
     40          1           0       -2.320509   -3.847080   -1.592118
     41          6           0       -1.376379   -3.557131   -5.584397
     42          1           0       -1.473267   -3.219124   -6.621367
     43          1           0       -2.196519   -4.257022   -5.390778
     44          1           0       -0.433773   -4.109712   -5.500773
     45          7           0        1.075587   -0.193045   -1.573418
     46          1           0        0.510014    0.009980   -0.764082
     47          6           0        2.475969    0.186050   -1.535107
     48          1           0        3.059726   -0.614927   -1.993507
     49          6           0        2.954347    0.400859   -0.112427
     50          6           0        2.734645    1.499225   -2.328428
     51          1           0        3.816036    1.623273   -2.457376
     52          1           0        2.307790    1.337952   -3.321876
     53          8           0        4.123439    0.453420    0.202773
     54          6           0        2.120709    2.749074   -1.665598
     55          1           0        1.215956    2.462975   -1.116948
     56          1           0        1.800868    3.458906   -2.436932
     57          6           0        3.091128    3.468329   -0.698788
     58          1           0        3.749812    2.750895   -0.212339
     59          1           0        3.746009    4.138899   -1.265376
     60          7           0        2.418806    4.257981    0.336076
     61          1           0        1.798016    4.976450   -0.014850
     62          7           0        2.930303    2.811120    2.138183
     63          1           0        2.852883    2.828789    3.151211
     64          1           0        3.908093    2.869857    1.863840
     65          7           0        1.176479    4.290711    2.373928
     66          1           0        0.584335    4.964936    1.887659
     67          6           0        2.112220    3.845850    1.609366
     68          8           0        1.949346    0.701531    0.745952
     69          1           0       -0.306168   -1.939334    6.489950
     70          1           0        2.355501    1.271513    1.470354
 ---------------------------------------------------------------------

 SCF Done:  E(RB3LYP) =  -1582.23869171     A.U. after    1 cycles

 Alpha  occ. eigenvalues --  -19.27043 -19.21973 -19.21650 -19.18584 -14.62289
 Alpha  occ. eigenvalues --  -14.46199 -14.45658 -14.44999 -14.43170 -14.42602
 Alpha  occ. eigenvalues --  -14.38629 -10.40141 -10.38620 -10.38432 -10.38253
 Alpha  occ. eigenvalues --  -10.37292 -10.36081 -10.35915 -10.34494 -10.34323
 Alpha  occ. eigenvalues --  -10.33948 -10.32596 -10.32475 -10.31919 -10.31563
 Alpha  occ. eigenvalues --  -10.31387 -10.31279 -10.31062 -10.27151 -10.26972
 Alpha  occ. eigenvalues --  -10.25528 -10.24457 -10.23405 -10.22264  -1.18248
 Alpha  occ. eigenvalues --   -1.17568  -1.13737  -1.10743  -1.09392  -1.07729
 Alpha  occ. eigenvalues --   -1.02500  -1.00690  -0.99956  -0.99793  -0.98935
 Alpha  occ. eigenvalues --   -0.95781  -0.94429  -0.88798  -0.88575  -0.87899
 Alpha  occ. eigenvalues --   -0.87438  -0.86032  -0.82833  -0.80445  -0.77908
 Alpha  occ. eigenvalues --   -0.77073  -0.76294  -0.75587  -0.74560  -0.74101
 Alpha  occ. eigenvalues --   -0.71052  -0.70628  -0.70110  -0.69467  -0.68778
 Alpha  occ. eigenvalues --   -0.68550  -0.66205  -0.65413  -0.64927  -0.63713
 Alpha  occ. eigenvalues --   -0.62947  -0.62516  -0.61613  -0.60961  -0.60336
 Alpha  occ. eigenvalues --   -0.58557  -0.58305  -0.57765  -0.57494  -0.56726
 Alpha  occ. eigenvalues --   -0.56544  -0.56384  -0.55588  -0.55292  -0.54456
 Alpha  occ. eigenvalues --   -0.53857  -0.53331  -0.53048  -0.52843  -0.51993
 Alpha  occ. eigenvalues --   -0.51167  -0.50826  -0.50628  -0.50014  -0.49902
 Alpha  occ. eigenvalues --   -0.49186  -0.48774  -0.48627  -0.48465  -0.47931
 Alpha  occ. eigenvalues --   -0.47644  -0.47489  -0.46823  -0.46255  -0.45073
 Alpha  occ. eigenvalues --   -0.44045  -0.43614  -0.43488  -0.43366  -0.42898
 Alpha  occ. eigenvalues --   -0.42094  -0.41567  -0.40387  -0.39430  -0.39381
 Alpha  occ. eigenvalues --   -0.38496  -0.38126  -0.37544  -0.37104  -0.36900
 Alpha  occ. eigenvalues --   -0.36672  -0.35983  -0.35787  -0.34285  -0.32435
 Alpha  occ. eigenvalues --   -0.31963  -0.31816
 Alpha virt. eigenvalues --   -0.17650  -0.14748  -0.11121  -0.09546  -0.08226
 Alpha virt. eigenvalues --   -0.08080  -0.05741  -0.05003  -0.04846  -0.03801
 Alpha virt. eigenvalues --   -0.03576  -0.02408  -0.00974  -0.00471   0.00520

 Mulliken charges:
               1
     1  N   -0.722428
     2  H    0.322854
     3  H    0.334616
     4  C   -0.086405
     5  H    0.142593
     6  C    0.601632
     7  C   -0.353618
     8  H    0.215272
     9  H    0.177623
    10  O   -0.499186
    11  C    0.170942
    12  C   -0.101201
    13  H    0.244636
    14  C    0.149060
    15  C    0.159911
    16  C   -0.230746
    17  H    0.181994
    18  N   -0.733676
    19  H    0.423138
    20  C   -0.142956
    21  H    0.182102
    22  C   -0.152430
    23  H    0.176282
    24  C   -0.130872
    25  H    0.224369
    26  N   -0.638442
    27  H    0.333349
    28  C   -0.055117
    29  H    0.165501
    30  C    0.640891
    31  C   -0.061157
    32  H    0.172593
    33  O   -0.511322
    34  C   -0.269288
    35  H    0.118550
    36  H    0.170589
    37  C   -0.464386
    38  H    0.128480
    39  H    0.171283
    40  H    0.127191
    41  C   -0.453796
    42  H    0.153755
    43  H    0.143654
    44  H    0.159683
    45  N   -0.622897
    46  H    0.350172
    47  C   -0.040539
    48  H    0.214130
    49  C    0.591183
    50  C   -0.276431
    51  H    0.169905
    52  H    0.183203
    53  O   -0.471937
    54  C   -0.286447
    55  H    0.144894
    56  H    0.155248
    57  C   -0.178495
    58  H    0.181258
    59  H    0.176635
    60  N   -0.584889
    61  H    0.329403
    62  N   -0.807161
    63  H    0.355536
    64  H    0.362349
    65  N   -0.658424
    66  H    0.284119
    67  C    0.600358
    68  O   -0.643885
    69  H    0.425085
    70  H    0.462111
 Sum of Mulliken charges =   1.00000

 Dipole moment (field-independent basis, Debye):
    X=             -5.0525    Y=              1.2898    Z=             20.2129  Tot=             20.8747
 Quadrupole moment (field-independent basis, Debye-Ang):
   XX=           -186.9743   YY=           -161.6140   ZZ=            -69.4530
   XY=             28.4747   XZ=            -11.5337   YZ=            -28.5475

 Normal termination of Gaussian 16 at Thu Jun 23 13:11:09 2022.
