 Gaussian 16, Revision C.01,
 Gaussian 16:  ES64L-G16RevC.01  3-Jul-2019

 ----------------------------------------------------------------------
 # B3LYP/6-31G* empiricaldispersion=gd3bj guess=read geom=check nosymm
 integral(ultrafinegrid)
 ----------------------------------------------------------------------

 ------------------------------------------------------
 Candidate Structure: Conf:535 Charge calc in gas phase
 ------------------------------------------------------
 Structure from the checkpoint file:  "conf-535.chk"
 Charge =  1 Multiplicity = 1

                          Input orientation:
 ---------------------------------------------------------------------
 Center     Atomic      Atomic             Coordinates (Angstroms)
 Number     Number       Type             X           Y           Z
 ---------------------------------------------------------------------
      1          7           0       -2.667330   -2.631052    2.754238
      2          1           0       -3.340634   -1.943039    2.422029
      3          1           0       -2.716093   -3.423162    2.113216
      4          6           0       -1.314745   -2.086835    2.725572
      5          1           0       -1.325687   -1.138421    3.278143
      6          6           0       -0.780541   -1.868980    1.294125
      7          6           0       -0.377403   -3.081833    3.450862
      8          1           0       -0.592971   -3.049523    4.522803
      9          1           0       -0.627762   -4.087137    3.103635
     10          8           0       -0.531344   -2.830646    0.579866
     11          6           0        1.072143   -2.818929    3.162881
     12          6           0        1.724552   -1.650775    3.293774
     13          1           0        1.417730   -0.678845    3.647255
     14          6           0        1.988583   -3.793557    2.553434
     15          6           0        3.207979   -3.161353    2.304886
     16          6           0        1.839150   -5.133179    2.201314
     17          1           0        0.902030   -5.654000    2.363915
     18          7           0        3.066716   -1.748169    2.681937
     19          1           0        3.025681   -1.165098    1.799447
     20          6           0        4.140426   -5.127729    1.392445
     21          1           0        4.968430   -5.663595    0.940763
     22          6           0        4.298443   -3.776430    1.724997
     23          1           0        5.227863   -3.251141    1.530370
     24          6           0        2.929144   -5.789925    1.625048
     25          1           0        2.834402   -6.834428    1.346800
     26          7           0       -0.664999   -0.554947    0.921891
     27          1           0       -0.882632    0.121896    1.640377
     28          6           0        0.036794   -0.005553   -0.240387
     29          1           0       -0.383498    0.995904   -0.389384
     30          6           0        1.522651    0.123268    0.108049
     31          6           0       -0.127791   -0.796382   -1.558781
     32          1           0        0.268363   -1.796617   -1.373809
     33          8           0        2.212395   -0.871147    0.363153
     34          6           0        0.717692   -0.160771   -2.685533
     35          1           0        1.780117   -0.196532   -2.411045
     36          1           0        0.625610   -0.813401   -3.561583
     37          6           0       -1.608423   -0.921634   -1.927849
     38          1           0       -2.096092    0.056741   -2.010339
     39          1           0       -1.710032   -1.427205   -2.893693
     40          1           0       -2.148086   -1.513822   -1.184989
     41          6           0        0.350478    1.268021   -3.101719
     42          1           0        1.051515    1.621673   -3.864002
     43          1           0        0.405103    1.978868   -2.265883
     44          1           0       -0.663863    1.326895   -3.508947
     45          7           0        2.034621    1.375599    0.117257
     46          1           0        1.447939    2.142419   -0.184999
     47          6           0        3.477244    1.618548    0.168756
     48          1           0        3.947948    0.674384   -0.126435
     49          6           0        3.876082    1.830261    1.633359
     50          6           0        3.870337    2.716077   -0.820917
     51          1           0        3.332068    2.491928   -1.748208
     52          1           0        3.527187    3.694773   -0.463709
     53          8           0        3.756867    0.970887    2.488302
     54          6           0        5.371237    2.739585   -1.123917
     55          1           0        5.703382    1.707956   -1.282832
     56          1           0        5.935611    3.135026   -0.272806
     57          6           0        5.713721    3.576214   -2.376350
     58          1           0        5.600898    4.642929   -2.160552
     59          1           0        6.767698    3.422850   -2.633829
     60          7           0        4.890608    3.297633   -3.546560
     61          1           0        4.020204    3.813232   -3.574285
     62          7           0        3.631994    1.838912   -4.846203
     63          1           0        3.687163    0.954405   -5.341644
     64          1           0        3.473105    2.599057   -5.502070
     65          7           0        5.579399    1.015043   -3.891109
     66          1           0        6.352234    1.250519   -3.270185
     67          6           0        4.788810    2.009023   -4.065636
     68          8           0        4.351238    3.053665    1.891990
     69          1           0        3.815011   -1.370379    3.271027
     70          1           0        4.574886    3.092778    2.842784
 ---------------------------------------------------------------------

 SCF Done:  E(RB3LYP) =  -1582.24946461     A.U. after    1 cycles

 Alpha  occ. eigenvalues --  -19.32793 -19.27188 -19.24972 -19.21295 -14.56404
 Alpha  occ. eigenvalues --  -14.49737 -14.47145 -14.43172 -14.41642 -14.41354
 Alpha  occ. eigenvalues --  -14.35921 -10.45270 -10.41609 -10.38393 -10.36222
 Alpha  occ. eigenvalues --  -10.35510 -10.35199 -10.35131 -10.34600 -10.33371
 Alpha  occ. eigenvalues --  -10.32974 -10.31698 -10.31472 -10.31143 -10.30404
 Alpha  occ. eigenvalues --  -10.30323 -10.30086 -10.30084 -10.29949 -10.28482
 Alpha  occ. eigenvalues --  -10.27972 -10.26664 -10.25840 -10.25345  -1.23814
 Alpha  occ. eigenvalues --   -1.16976  -1.14562  -1.13331  -1.13256  -1.05972
 Alpha  occ. eigenvalues --   -1.05364  -1.03261  -0.98997  -0.97216  -0.96725
 Alpha  occ. eigenvalues --   -0.93446  -0.91953  -0.91569  -0.90077  -0.86248
 Alpha  occ. eigenvalues --   -0.86054  -0.85194  -0.83660  -0.82648  -0.80014
 Alpha  occ. eigenvalues --   -0.78292  -0.76172  -0.74394  -0.74087  -0.72820
 Alpha  occ. eigenvalues --   -0.72629  -0.71571  -0.70648  -0.69415  -0.69165
 Alpha  occ. eigenvalues --   -0.67917  -0.65924  -0.65104  -0.64755  -0.63041
 Alpha  occ. eigenvalues --   -0.62795  -0.62323  -0.62043  -0.61660  -0.61088
 Alpha  occ. eigenvalues --   -0.60618  -0.59800  -0.59439  -0.59187  -0.57304
 Alpha  occ. eigenvalues --   -0.56408  -0.56031  -0.55808  -0.55097  -0.54901
 Alpha  occ. eigenvalues --   -0.54362  -0.53923  -0.53615  -0.53347  -0.53039
 Alpha  occ. eigenvalues --   -0.52198  -0.51979  -0.51123  -0.50886  -0.50511
 Alpha  occ. eigenvalues --   -0.50292  -0.50029  -0.49314  -0.48394  -0.48141
 Alpha  occ. eigenvalues --   -0.48032  -0.47402  -0.47209  -0.46535  -0.46249
 Alpha  occ. eigenvalues --   -0.45947  -0.45675  -0.45108  -0.44875  -0.44696
 Alpha  occ. eigenvalues --   -0.44224  -0.43765  -0.41850  -0.41617  -0.41335
 Alpha  occ. eigenvalues --   -0.41112  -0.40873  -0.39450  -0.38598  -0.36774
 Alpha  occ. eigenvalues --   -0.36427  -0.35646  -0.34279  -0.33874  -0.33579
 Alpha  occ. eigenvalues --   -0.32319  -0.30366
 Alpha virt. eigenvalues --   -0.15063  -0.13103  -0.11937  -0.10985  -0.07500
 Alpha virt. eigenvalues --   -0.06755  -0.05627  -0.04646  -0.03993  -0.03868
 Alpha virt. eigenvalues --   -0.02724  -0.01868  -0.00937  -0.00163   0.00132

 Mulliken charges:
               1
     1  N   -0.695305
     2  H    0.314087
     3  H    0.321827
     4  C   -0.070058
     5  H    0.129253
     6  C    0.632764
     7  C   -0.339150
     8  H    0.198641
     9  H    0.181761
    10  O   -0.521034
    11  C    0.157476
    12  C   -0.104239
    13  H    0.187335
    14  C    0.160215
    15  C    0.197630
    16  C   -0.185006
    17  H    0.171529
    18  N   -0.742228
    19  H    0.457226
    20  C   -0.138914
    21  H    0.172019
    22  C   -0.150477
    23  H    0.165600
    24  C   -0.119335
    25  H    0.171162
    26  N   -0.622884
    27  H    0.329406
    28  C   -0.039289
    29  H    0.144059
    30  C    0.646412
    31  C   -0.087200
    32  H    0.197605
    33  O   -0.564883
    34  C   -0.289534
    35  H    0.152219
    36  H    0.160240
    37  C   -0.460456
    38  H    0.141618
    39  H    0.164492
    40  H    0.163758
    41  C   -0.464366
    42  H    0.183001
    43  H    0.097536
    44  H    0.163294
    45  N   -0.600143
    46  H    0.353185
    47  C   -0.050186
    48  H    0.208530
    49  C    0.615790
    50  C   -0.303819
    51  H    0.177064
    52  H    0.161462
    53  O   -0.502457
    54  C   -0.287893
    55  H    0.152467
    56  H    0.162062
    57  C   -0.164006
    58  H    0.163320
    59  H    0.176677
    60  N   -0.576156
    61  H    0.320894
    62  N   -0.757948
    63  H    0.344869
    64  H    0.327877
    65  N   -0.635510
    66  H    0.280089
    67  C    0.564826
    68  O   -0.537503
    69  H    0.407901
    70  H    0.430803
 Sum of Mulliken charges =   1.00000

 Dipole moment (field-independent basis, Debye):
    X=             11.1391    Y=              1.9062    Z=              6.3996  Tot=             12.9872
 Quadrupole moment (field-independent basis, Debye-Ang):
   XX=           -141.1807   YY=           -141.3612   ZZ=           -161.8201
   XY=              8.2776   XZ=             23.2158   YZ=            -21.0745

 Normal termination of Gaussian 16 at Thu Jun 23 13:11:10 2022.
