 Gaussian 16, Revision C.01,
 Gaussian 16:  ES64L-G16RevC.01  3-Jul-2019

 ----------------------------------------------------------------------
 # B3LYP/6-31G* empiricaldispersion=gd3bj guess=read geom=check nosymm
 integral(ultrafinegrid)
 ----------------------------------------------------------------------

 ------------------------------------------------------
 Candidate Structure: Conf:746 Charge calc in gas phase
 ------------------------------------------------------
 Structure from the checkpoint file:  "conf-746.chk"
 Charge =  1 Multiplicity = 1

                          Input orientation:
 ---------------------------------------------------------------------
 Center     Atomic      Atomic             Coordinates (Angstroms)
 Number     Number       Type             X           Y           Z
 ---------------------------------------------------------------------
      1          7           0       -2.191632   -3.674586    2.412111
      2          1           0       -1.827904   -4.214814    1.632402
      3          1           0       -2.514792   -4.285648    3.156242
      4          6           0       -1.212277   -2.708379    2.852740
      5          1           0       -1.714772   -1.965928    3.484417
      6          6           0       -0.648896   -2.056216    1.577204
      7          6           0       -0.032179   -3.277359    3.722410
      8          1           0        0.550964   -2.446761    4.133064
      9          1           0       -0.479907   -3.804644    4.571790
     10          8           0       -0.242666   -2.777809    0.670400
     11          6           0        0.866795   -4.192261    2.956134
     12          6           0        0.552042   -5.419876    2.508017
     13          1           0       -0.333631   -6.028701    2.595012
     14          6           0        2.225829   -3.853267    2.507843
     15          6           0        2.719828   -4.900411    1.730687
     16          6           0        3.038471   -2.746170    2.724702
     17          1           0        2.685268   -1.891749    3.287029
     18          7           0        1.654938   -5.935784    1.642480
     19          1           0        1.986454   -6.861714    1.940597
     20          6           0        4.771502   -3.802619    1.377698
     21          1           0        5.763705   -3.764987    0.940864
     22          6           0        3.966935   -4.928489    1.145739
     23          1           0        4.316444   -5.759097    0.540625
     24          6           0        4.312419   -2.731277    2.149037
     25          1           0        4.938259   -1.856330    2.286633
     26          7           0       -0.672998   -0.701007    1.568882
     27          1           0       -1.037877   -0.250685    2.395942
     28          6           0       -0.069997    0.188237    0.571195
     29          1           0       -0.538118    1.167056    0.732756
     30          6           0        1.429859    0.288156    0.868358
     31          6           0       -0.358414   -0.220698   -0.896522
     32          1           0        0.072131   -1.213798   -1.044067
     33          8           0        2.117643   -0.708492    1.072811
     34          6           0        0.306001    0.766261   -1.885850
     35          1           0       -0.324249    0.827913   -2.780396
     36          1           0        0.307541    1.782106   -1.464685
     37          6           0       -1.872514   -0.302353   -1.121144
     38          1           0       -2.346018    0.679095   -0.989166
     39          1           0       -2.080184   -0.635160   -2.143057
     40          1           0       -2.350297   -1.007694   -0.435954
     41          6           0        1.721561    0.372121   -2.323162
     42          1           0        2.148024    1.129601   -2.989305
     43          1           0        1.700122   -0.578366   -2.868231
     44          1           0        2.403667    0.242682   -1.478304
     45          7           0        1.966929    1.531440    0.895772
     46          1           0        1.396421    2.352314    0.749246
     47          6           0        3.395894    1.699017    1.103518
     48          1           0        3.943713    1.175274    0.312998
     49          6           0        3.855540    1.054757    2.406445
     50          6           0        3.739456    3.196798    1.082831
     51          1           0        3.296702    3.614124    0.172027
     52          1           0        3.249232    3.694101    1.927615
     53          8           0        4.922080    0.499571    2.555793
     54          6           0        5.243442    3.486935    1.095551
     55          1           0        5.715604    2.999063    0.231201
     56          1           0        5.713243    3.050358    1.985530
     57          6           0        5.558535    4.991498    1.063126
     58          1           0        5.132907    5.476732    1.944536
     59          1           0        6.642887    5.136159    1.111069
     60          7           0        5.068158    5.689495   -0.127675
     61          1           0        5.478221    5.346354   -0.988900
     62          7           0        3.122078    6.503172    0.882359
     63          1           0        2.206617    6.882542    0.664900
     64          1           0        3.690058    7.179064    1.383570
     65          7           0        3.019326    5.934480   -1.359004
     66          1           0        3.540037    5.459715   -2.099466
     67          6           0        3.722203    6.026559   -0.287335
     68          8           0        2.982863    1.246392    3.423784
     69          1           0        1.324422   -6.026628    0.671439
     70          1           0        3.420621    0.890179    4.219938
 ---------------------------------------------------------------------

 SCF Done:  E(RB3LYP) =  -1582.22164577     A.U. after    1 cycles

 Alpha  occ. eigenvalues --  -19.28670 -19.22822 -19.21200 -19.20729 -14.61341
 Alpha  occ. eigenvalues --  -14.46423 -14.45741 -14.41922 -14.41227 -14.40072
 Alpha  occ. eigenvalues --  -14.34501 -10.40927 -10.38622 -10.37744 -10.36999
 Alpha  occ. eigenvalues --  -10.36794 -10.35203 -10.33986 -10.33682 -10.32945
 Alpha  occ. eigenvalues --  -10.32929 -10.32809 -10.32708 -10.31744 -10.31192
 Alpha  occ. eigenvalues --  -10.31185 -10.30206 -10.29118 -10.27478 -10.27016
 Alpha  occ. eigenvalues --  -10.26431 -10.25764 -10.24594 -10.24417  -1.19549
 Alpha  occ. eigenvalues --   -1.16656  -1.13584  -1.12655  -1.10378  -1.03627
 Alpha  occ. eigenvalues --   -1.02603  -1.02133  -0.99889  -0.98697  -0.94892
 Alpha  occ. eigenvalues --   -0.94867  -0.90329  -0.89822  -0.87928  -0.87514
 Alpha  occ. eigenvalues --   -0.86943  -0.85307  -0.82958  -0.81359  -0.79120
 Alpha  occ. eigenvalues --   -0.76475  -0.75514  -0.75304  -0.73617  -0.73418
 Alpha  occ. eigenvalues --   -0.71078  -0.70860  -0.69640  -0.68706  -0.68345
 Alpha  occ. eigenvalues --   -0.67464  -0.66615  -0.66162  -0.64151  -0.63228
 Alpha  occ. eigenvalues --   -0.62322  -0.61671  -0.60720  -0.60586  -0.59432
 Alpha  occ. eigenvalues --   -0.58599  -0.57909  -0.57737  -0.57011  -0.56488
 Alpha  occ. eigenvalues --   -0.56077  -0.55252  -0.54934  -0.54649  -0.54107
 Alpha  occ. eigenvalues --   -0.53663  -0.53021  -0.52448  -0.51587  -0.51113
 Alpha  occ. eigenvalues --   -0.50867  -0.50358  -0.50161  -0.49998  -0.49528
 Alpha  occ. eigenvalues --   -0.49167  -0.48820  -0.48616  -0.48126  -0.47979
 Alpha  occ. eigenvalues --   -0.47568  -0.47182  -0.46928  -0.45992  -0.45509
 Alpha  occ. eigenvalues --   -0.44563  -0.44281  -0.44038  -0.43112  -0.42941
 Alpha  occ. eigenvalues --   -0.42179  -0.41870  -0.40705  -0.40512  -0.40278
 Alpha  occ. eigenvalues --   -0.39824  -0.37640  -0.37124  -0.36949  -0.35968
 Alpha  occ. eigenvalues --   -0.34835  -0.34534  -0.33550  -0.33214  -0.32655
 Alpha  occ. eigenvalues --   -0.31697  -0.28614
 Alpha virt. eigenvalues --   -0.16642  -0.13127  -0.10122  -0.08873  -0.08269
 Alpha virt. eigenvalues --   -0.07767  -0.06004  -0.04050  -0.03832  -0.03116
 Alpha virt. eigenvalues --   -0.02809  -0.02060  -0.01350  -0.00710   0.00308

 Mulliken charges:
               1
     1  N   -0.706964
     2  H    0.322739
     3  H    0.308694
     4  C   -0.060865
     5  H    0.154810
     6  C    0.672446
     7  C   -0.381106
     8  H    0.171004
     9  H    0.183235
    10  O   -0.544296
    11  C    0.207525
    12  C   -0.121723
    13  H    0.198541
    14  C    0.174878
    15  C    0.158049
    16  C   -0.165898
    17  H    0.157569
    18  N   -0.726421
    19  H    0.418619
    20  C   -0.144515
    21  H    0.176343
    22  C   -0.153547
    23  H    0.170098
    24  C   -0.111003
    25  H    0.206524
    26  N   -0.619812
    27  H    0.341912
    28  C   -0.062863
    29  H    0.144539
    30  C    0.658739
    31  C   -0.079969
    32  H    0.185053
    33  O   -0.545388
    34  C   -0.277522
    35  H    0.157450
    36  H    0.124435
    37  C   -0.462870
    38  H    0.143468
    39  H    0.160786
    40  H    0.160975
    41  C   -0.462297
    42  H    0.152899
    43  H    0.153308
    44  H    0.158764
    45  N   -0.622897
    46  H    0.348145
    47  C    0.017548
    48  H    0.186712
    49  C    0.613519
    50  C   -0.331672
    51  H    0.177848
    52  H    0.173900
    53  O   -0.478914
    54  C   -0.273716
    55  H    0.140986
    56  H    0.160821
    57  C   -0.153837
    58  H    0.163994
    59  H    0.163750
    60  N   -0.573693
    61  H    0.313399
    62  N   -0.738501
    63  H    0.340359
    64  H    0.329980
    65  N   -0.633161
    66  H    0.264531
    67  C    0.541062
    68  O   -0.570270
    69  H    0.429989
    70  H    0.413773
 Sum of Mulliken charges =   1.00000

 Dipole moment (field-independent basis, Debye):
    X=              9.1348    Y=            -14.5836    Z=             10.7349  Tot=             20.2821
 Quadrupole moment (field-independent basis, Debye-Ang):
   XX=           -156.5254   YY=            -56.5374   ZZ=           -161.0089
   XY=             -8.9970   XZ=              6.0029   YZ=            -21.8574

 Normal termination of Gaussian 16 at Thu Jun 23 13:11:09 2022.
