 Gaussian 16, Revision C.01,
 Gaussian 16:  ES64L-G16RevC.01  3-Jul-2019

 ----------------------------------------------------------------------
 # B3LYP/6-31G* empiricaldispersion=gd3bj guess=read geom=check nosymm
 integral(ultrafinegrid)
 ----------------------------------------------------------------------

 ------------------------------------------------------
 Candidate Structure: Conf:684 Charge calc in gas phase
 ------------------------------------------------------
 Structure from the checkpoint file:  "conf-684.chk"
 Charge =  1 Multiplicity = 1

                          Input orientation:
 ---------------------------------------------------------------------
 Center     Atomic      Atomic             Coordinates (Angstroms)
 Number     Number       Type             X           Y           Z
 ---------------------------------------------------------------------
      1          7           0        2.995820    3.687814    2.725337
      2          1           0        4.015668    3.397136    2.724865
      3          1           0        2.545428    3.423801    1.829413
      4          1           0        2.904951    4.709802    2.793876
      5          6           0        2.216148    3.097716    3.846321
      6          1           0        2.783496    3.225085    4.772280
      7          1           0        2.092167    2.034113    3.636055
      8          6           0        0.908424    3.894564    3.904379
      9          8           0        0.923488    5.081058    3.571870
     10          7           0       -0.207773    3.239286    4.286259
     11          1           0       -0.166002    2.243193    4.458745
     12          6           0       -1.536853    3.854151    4.145842
     13          1           0       -2.247508    3.308683    4.765117
     14          1           0       -1.477500    4.893648    4.473236
     15          6           0       -1.926880    3.709501    2.667496
     16          8           0       -2.552196    2.736083    2.260557
     17          7           0       -1.379030    4.657027    1.846536
     18          1           0       -0.702746    5.281349    2.278746
     19          6           0       -1.124598    4.323987    0.442808
     20          1           0       -0.762197    5.211812   -0.074763
     21          1           0       -2.045705    3.974128   -0.025788
     22          6           0       -0.030826    3.255192    0.486056
     23          8           0        1.150122    3.561677    0.676695
     24          7           0       -0.465813    1.965402    0.460158
     25          1           0       -1.472813    1.860573    0.552552
     26          6           0        0.307509    0.929517    1.137851
     27          1           0        0.280494    1.075383    2.222575
     28          1           0       -0.157128   -0.036394    0.918902
     29          6           0        1.779893    0.867895    0.738134
     30          8           0        2.654852    0.794925    1.611441
     31          7           0        2.033645    0.811309   -0.581028
     32          1           0        1.273235    0.986197   -1.224575
     33          6           0        3.370639    0.591423   -1.123802
     34          1           0        3.270089    0.327245   -2.175861
     35          1           0        3.824955   -0.248145   -0.587411
     36          6           0        4.303593    1.813230   -1.057671
     37          8           0        4.652346    2.423920   -2.056419
     38          7           0        4.751029    2.122451    0.193212
     39          1           0        4.405400    1.588568    0.986066
     40          6           0        5.762246    3.147591    0.359792
     41          1           0        6.530200    3.030358   -0.411200
     42          1           0        5.337686    4.153420    0.220411
     43          6           0        6.341357    3.063862    1.761840
     44          8           0        5.608027    3.031851    2.769815
     45          7           0        7.674311    3.048060    1.859448
     46          1           0        8.241401    2.989356    1.017446
     47          6           0        8.371034    2.964877    3.146820
     48          1           0        7.934609    3.696689    3.834568
     49          1           0        8.267896    1.970441    3.586124
     50          6           0        9.857986    3.222879    2.899455
     51          8           0       10.715744    2.413843    3.198799
     52          7           0       10.121936    4.413156    2.264010
     53          1           0        9.328604    4.963356    1.962019
     54          6           0       11.335050    4.547499    1.489095
     55          1           0       11.649684    5.592605    1.427430
     56          1           0       12.127730    3.992272    1.996936
     57          6           0       11.233336    4.002236    0.068354
     58          8           0       12.108007    4.078856   -0.752720
     59          8           0       10.026540    3.403214   -0.197508
     60          1           0       10.100202    3.076027   -1.115016
 ---------------------------------------------------------------------

 SCF Done:  E(RB3LYP) =  -1741.03293351     A.U. after    3 cycles

 Alpha  occ. eigenvalues --  -19.30036 -19.26873 -19.26319 -19.25912 -19.24957
 Alpha  occ. eigenvalues --  -19.24407 -19.23322 -19.21715 -19.21534 -14.55043
 Alpha  occ. eigenvalues --  -14.51626 -14.49740 -14.49458 -14.49052 -14.48373
 Alpha  occ. eigenvalues --  -14.46491 -14.46084 -10.44202 -10.42795 -10.42482
 Alpha  occ. eigenvalues --  -10.42133 -10.41619 -10.41383 -10.39016 -10.38898
 Alpha  occ. eigenvalues --  -10.38498 -10.36264 -10.35878 -10.35323 -10.34927
 Alpha  occ. eigenvalues --  -10.34038 -10.33683 -10.32826  -1.20120  -1.19253
 Alpha  occ. eigenvalues --   -1.18100  -1.17329  -1.16462  -1.16046  -1.13730
 Alpha  occ. eigenvalues --   -1.13646  -1.11244  -1.10656  -1.07258  -1.06427
 Alpha  occ. eigenvalues --   -1.05592  -1.04939  -1.04546  -1.02889  -1.02405
 Alpha  occ. eigenvalues --   -0.90182  -0.89013  -0.87887  -0.85955  -0.84569
 Alpha  occ. eigenvalues --   -0.82980  -0.81682  -0.80190  -0.73966  -0.73167
 Alpha  occ. eigenvalues --   -0.72949  -0.71674  -0.71190  -0.70828  -0.70046
 Alpha  occ. eigenvalues --   -0.69707  -0.69321  -0.68780  -0.66599  -0.66304
 Alpha  occ. eigenvalues --   -0.65791  -0.64347  -0.63761  -0.62556  -0.61941
 Alpha  occ. eigenvalues --   -0.61315  -0.61175  -0.60651  -0.59970  -0.59475
 Alpha  occ. eigenvalues --   -0.58803  -0.58278  -0.57908  -0.57619  -0.57208
 Alpha  occ. eigenvalues --   -0.56965  -0.56533  -0.55896  -0.55265  -0.54845
 Alpha  occ. eigenvalues --   -0.54735  -0.54227  -0.53733  -0.53309  -0.52896
 Alpha  occ. eigenvalues --   -0.52656  -0.51795  -0.51564  -0.51234  -0.50973
 Alpha  occ. eigenvalues --   -0.50520  -0.50355  -0.50113  -0.49835  -0.49317
 Alpha  occ. eigenvalues --   -0.49218  -0.48209  -0.47523  -0.46793  -0.41892
 Alpha  occ. eigenvalues --   -0.41437  -0.41394  -0.40980  -0.40559  -0.40294
 Alpha  occ. eigenvalues --   -0.39763  -0.39161  -0.38811  -0.38747  -0.38059
 Alpha  occ. eigenvalues --   -0.36558  -0.36052  -0.35273  -0.34665  -0.34485
 Alpha virt. eigenvalues --   -0.13706  -0.13109  -0.11531  -0.11056  -0.10417
 Alpha virt. eigenvalues --   -0.08605  -0.08359  -0.08137  -0.06793  -0.05183
 Alpha virt. eigenvalues --   -0.03729  -0.02640  -0.00903  -0.00617  -0.00347

 Mulliken charges:
               1
     1  N   -0.802869
     2  H    0.453389
     3  H    0.447284
     4  H    0.399056
     5  C   -0.283148
     6  H    0.239040
     7  H    0.233436
     8  C    0.640329
     9  O   -0.527202
    10  N   -0.590120
    11  H    0.360541
    12  C   -0.242720
    13  H    0.214548
    14  H    0.218650
    15  C    0.583002
    16  O   -0.506313
    17  N   -0.565111
    18  H    0.378318
    19  C   -0.229228
    20  H    0.208472
    21  H    0.207123
    22  C    0.579523
    23  O   -0.546541
    24  N   -0.569493
    25  H    0.379421
    26  C   -0.230744
    27  H    0.162628
    28  H    0.212927
    29  C    0.626481
    30  O   -0.563670
    31  N   -0.558366
    32  H    0.359934
    33  C   -0.242241
    34  H    0.205491
    35  H    0.200487
    36  C    0.602849
    37  O   -0.488479
    38  N   -0.635430
    39  H    0.374772
    40  C   -0.188543
    41  H    0.191846
    42  H    0.189132
    43  C    0.614921
    44  O   -0.570530
    45  N   -0.624861
    46  H    0.388809
    47  C   -0.202772
    48  H    0.200272
    49  H    0.216042
    50  C    0.553442
    51  O   -0.463446
    52  N   -0.561205
    53  H    0.331740
    54  C   -0.250532
    55  H    0.213743
    56  H    0.249757
    57  C    0.595138
    58  O   -0.418616
    59  O   -0.598581
    60  H    0.428217
 Sum of Mulliken charges =   1.00000

 Dipole moment (field-independent basis, Debye):
    X=             10.7332    Y=             15.0284    Z=              9.8051  Tot=             20.9093
 Quadrupole moment (field-independent basis, Debye-Ang):
   XX=           -123.8092   YY=           -122.9019   ZZ=           -152.4859
   XY=             53.1108   XZ=             17.5747   YZ=             42.6998

 Normal termination of Gaussian 16 at Tue Jul 19 19:29:05 2022.
