 Gaussian 16, Revision C.01,
 Gaussian 16:  ES64L-G16RevC.01  3-Jul-2019

 ----------------------------------------------------------------------
 # B3LYP/6-31G* empiricaldispersion=gd3bj guess=read geom=check nosymm
 integral(ultrafinegrid)
 ----------------------------------------------------------------------

 ------------------------------------------------------
 Candidate Structure: Conf:961 Charge calc in gas phase
 ------------------------------------------------------
 Structure from the checkpoint file:  "conf-961.chk"
 Charge =  1 Multiplicity = 1

                          Input orientation:
 ---------------------------------------------------------------------
 Center     Atomic      Atomic             Coordinates (Angstroms)
 Number     Number       Type             X           Y           Z
 ---------------------------------------------------------------------
      1          7           0        2.713154    4.248053   -0.532976
      2          1           0        3.778949    4.281844   -0.586176
      3          1           0        2.355272    4.503542    0.394154
      4          1           0        2.392322    3.281330   -0.754509
      5          6           0        2.092858    5.142664   -1.540382
      6          1           0        2.327510    4.751725   -2.531604
      7          1           0        2.520762    6.143698   -1.438185
      8          6           0        0.592292    5.167722   -1.249677
      9          8           0        0.205832    5.021782   -0.089839
     10          7           0       -0.223105    5.380223   -2.301003
     11          1           0        0.148977    5.312165   -3.238809
     12          6           0       -1.677596    5.333433   -2.141862
     13          1           0       -1.946077    5.906141   -1.251908
     14          1           0       -2.138591    5.785459   -3.019778
     15          6           0       -2.132467    3.871690   -2.050881
     16          8           0       -2.400595    3.225315   -3.064343
     17          7           0       -2.154157    3.359552   -0.796644
     18          1           0       -1.686340    3.889789   -0.068729
     19          6           0       -2.425679    1.945296   -0.559479
     20          1           0       -3.274338    1.649561   -1.181445
     21          1           0       -2.677075    1.805745    0.491563
     22          6           0       -1.192703    1.094136   -0.875551
     23          8           0       -0.450883    0.640509   -0.008183
     24          7           0       -0.940072    0.921557   -2.202161
     25          1           0       -1.469264    1.479737   -2.869573
     26          6           0        0.295324    0.275728   -2.583132
     27          1           0        0.246889   -0.801968   -2.389850
     28          1           0        0.448238    0.423452   -3.655723
     29          6           0        1.470757    0.900329   -1.829620
     30          8           0        1.626242    2.136437   -1.827648
     31          7           0        2.346495    0.063454   -1.244324
     32          1           0        2.072586   -0.908916   -1.192463
     33          6           0        3.298384    0.508229   -0.228567
     34          1           0        3.621497   -0.363961    0.339498
     35          1           0        2.783527    1.174649    0.476362
     36          6           0        4.581416    1.205585   -0.694348
     37          8           0        5.581844    1.174860    0.007361
     38          7           0        4.542297    1.907431   -1.862102
     39          1           0        3.680728    1.978851   -2.384504
     40          6           0        5.739461    2.589241   -2.304854
     41          1           0        6.555239    1.872027   -2.439146
     42          1           0        5.531277    3.052029   -3.274472
     43          6           0        6.172284    3.692885   -1.332034
     44          8           0        5.354111    4.449563   -0.771644
     45          7           0        7.484379    3.843774   -1.184101
     46          1           0        8.161216    3.187784   -1.572738
     47          6           0        8.084161    4.833409   -0.315644
     48          1           0        7.859039    5.848313   -0.663953
     49          1           0        7.689616    4.740038    0.703097
     50          6           0        9.596640    4.572412   -0.340103
     51          8           0       10.063760    3.653423   -1.010089
     52          7           0       10.340501    5.406492    0.408010
     53          1           0        9.932171    6.152101    0.962013
     54          6           0       11.779074    5.276730    0.498167
     55          1           0       12.069465    4.288957    0.875064
     56          1           0       12.254708    5.390437   -0.483100
     57          6           0       12.286688    6.351121    1.437912
     58          8           0       11.571428    7.156444    1.994995
     59          8           0       13.618482    6.295817    1.571826
     60          1           0       13.880869    7.008121    2.185990
 ---------------------------------------------------------------------

 SCF Done:  E(RB3LYP) =  -1741.05231155     A.U. after    2 cycles

 Alpha  occ. eigenvalues --  -19.28378 -19.25993 -19.25758 -19.24166 -19.23082
 Alpha  occ. eigenvalues --  -19.22738 -19.22486 -19.21946 -19.21325 -14.54151
 Alpha  occ. eigenvalues --  -14.50184 -14.49544 -14.47635 -14.47144 -14.47050
 Alpha  occ. eigenvalues --  -14.45963 -14.45492 -10.43030 -10.42572 -10.41272
 Alpha  occ. eigenvalues --  -10.40809 -10.40050 -10.39819 -10.38709 -10.38630
 Alpha  occ. eigenvalues --  -10.38196 -10.35035 -10.34796 -10.34752 -10.34558
 Alpha  occ. eigenvalues --  -10.33173 -10.32745 -10.32269  -1.19574  -1.18003
 Alpha  occ. eigenvalues --   -1.17498  -1.15807  -1.14685  -1.14529  -1.13542
 Alpha  occ. eigenvalues --   -1.13358  -1.10765  -1.09958  -1.06073  -1.05693
 Alpha  occ. eigenvalues --   -1.03728  -1.03520  -1.03232  -1.02378  -1.01985
 Alpha  occ. eigenvalues --   -0.89015  -0.88591  -0.86922  -0.85362  -0.84111
 Alpha  occ. eigenvalues --   -0.82537  -0.80551  -0.79604  -0.73014  -0.72591
 Alpha  occ. eigenvalues --   -0.72094  -0.71028  -0.70218  -0.70050  -0.69900
 Alpha  occ. eigenvalues --   -0.69055  -0.68308  -0.68122  -0.65260  -0.65171
 Alpha  occ. eigenvalues --   -0.64541  -0.63894  -0.62738  -0.62053  -0.61492
 Alpha  occ. eigenvalues --   -0.60578  -0.60093  -0.59323  -0.58433  -0.58342
 Alpha  occ. eigenvalues --   -0.57861  -0.57672  -0.57256  -0.56925  -0.56567
 Alpha  occ. eigenvalues --   -0.56392  -0.55070  -0.54983  -0.54681  -0.54552
 Alpha  occ. eigenvalues --   -0.54116  -0.53459  -0.52982  -0.52432  -0.51873
 Alpha  occ. eigenvalues --   -0.51572  -0.51145  -0.50782  -0.50463  -0.50381
 Alpha  occ. eigenvalues --   -0.50179  -0.49059  -0.48764  -0.48636  -0.48576
 Alpha  occ. eigenvalues --   -0.47466  -0.47141  -0.46656  -0.45222  -0.40809
 Alpha  occ. eigenvalues --   -0.40686  -0.40644  -0.40558  -0.39811  -0.39294
 Alpha  occ. eigenvalues --   -0.38293  -0.37520  -0.37271  -0.36792  -0.36199
 Alpha  occ. eigenvalues --   -0.35854  -0.35721  -0.35396  -0.34803  -0.34375
 Alpha virt. eigenvalues --   -0.12378  -0.11560  -0.09665  -0.09608  -0.08778
 Alpha virt. eigenvalues --   -0.07835  -0.07763  -0.06517  -0.05567  -0.04380
 Alpha virt. eigenvalues --   -0.03817  -0.01704  -0.00234  -0.00196   0.00346

 Mulliken charges:
               1
     1  N   -0.802539
     2  H    0.459910
     3  H    0.399476
     4  H    0.428343
     5  C   -0.264031
     6  H    0.200816
     7  H    0.237612
     8  C    0.648825
     9  O   -0.526906
    10  N   -0.581125
    11  H    0.356024
    12  C   -0.242029
    13  H    0.208916
    14  H    0.209511
    15  C    0.600102
    16  O   -0.522916
    17  N   -0.569653
    18  H    0.373838
    19  C   -0.242843
    20  H    0.207987
    21  H    0.201510
    22  C    0.597444
    23  O   -0.522459
    24  N   -0.581951
    25  H    0.384310
    26  C   -0.208721
    27  H    0.183433
    28  H    0.195831
    29  C    0.632996
    30  O   -0.594936
    31  N   -0.559470
    32  H    0.365082
    33  C   -0.255734
    34  H    0.218818
    35  H    0.205090
    36  C    0.598361
    37  O   -0.487687
    38  N   -0.605483
    39  H    0.353785
    40  C   -0.237955
    41  H    0.201550
    42  H    0.190001
    43  C    0.673736
    44  O   -0.595193
    45  N   -0.590864
    46  H    0.377762
    47  C   -0.202131
    48  H    0.197222
    49  H    0.205873
    50  C    0.616594
    51  O   -0.520840
    52  N   -0.625540
    53  H    0.361970
    54  C   -0.181501
    55  H    0.218369
    56  H    0.216736
    57  C    0.572457
    58  O   -0.457649
    59  O   -0.550722
    60  H    0.430583
 Sum of Mulliken charges =   1.00000

 Dipole moment (field-independent basis, Debye):
    X=             16.5993    Y=             18.7416    Z=             -7.5551  Tot=             26.1508
 Quadrupole moment (field-independent basis, Debye-Ang):
   XX=            -27.8362   YY=            -78.0726   ZZ=           -162.9045
   XY=             92.9383   XZ=             -3.0130   YZ=            -20.1175

 Normal termination of Gaussian 16 at Tue Jul 19 19:28:55 2022.
