 Gaussian 16, Revision C.01,
 Gaussian 16:  ES64L-G16RevC.01  3-Jul-2019

 ----------------------------------------------------------------------
 # B3LYP/6-31G* empiricaldispersion=gd3bj guess=read geom=check nosymm
 integral(ultrafinegrid)
 ----------------------------------------------------------------------

 ------------------------------------------------------
 Candidate Structure: Conf:137 Charge calc in gas phase
 ------------------------------------------------------
 Structure from the checkpoint file:  "conf-137.chk"
 Charge =  1 Multiplicity = 1

                          Input orientation:
 ---------------------------------------------------------------------
 Center     Atomic      Atomic             Coordinates (Angstroms)
 Number     Number       Type             X           Y           Z
 ---------------------------------------------------------------------
      1          7           0       -0.791515    1.900964   -8.144919
      2          1           0        0.023138    1.560599   -7.553478
      3          1           0       -1.176635    1.164331   -8.739574
      4          1           0       -0.422949    2.690312   -8.700156
      5          6           0       -1.778669    2.495125   -7.190539
      6          1           0       -2.004083    1.758323   -6.419076
      7          1           0       -2.686883    2.767575   -7.733644
      8          6           0       -1.044049    3.734556   -6.650361
      9          8           0       -0.210507    4.267870   -7.388231
     10          7           0       -1.350321    4.109776   -5.407510
     11          1           0       -1.974257    3.547763   -4.834751
     12          6           0       -0.507021    5.019014   -4.635995
     13          1           0        0.411539    5.209534   -5.191752
     14          1           0       -1.024593    5.967140   -4.454054
     15          6           0       -0.270434    4.309660   -3.300510
     16          8           0       -1.208700    3.784340   -2.704092
     17          7           0        1.007089    4.266020   -2.868438
     18          1           0        1.751451    4.605266   -3.477458
     19          6           0        1.323620    3.570683   -1.645678
     20          1           0        0.865176    4.072474   -0.785884
     21          1           0        2.409190    3.572906   -1.514072
     22          6           0        0.907898    2.100502   -1.653779
     23          8           0        0.836431    1.413674   -2.693863
     24          7           0        0.697105    1.558369   -0.447451
     25          1           0        0.831678    2.138491    0.370234
     26          6           0        0.636041    0.109568   -0.238840
     27          1           0        0.227063   -0.083162    0.752052
     28          1           0       -0.018911   -0.323436   -0.997948
     29          6           0        2.062844   -0.459535   -0.308632
     30          8           0        2.730425   -0.667644    0.689747
     31          7           0        2.510398   -0.650323   -1.592145
     32          1           0        1.935216   -0.236746   -2.318367
     33          6           0        3.924791   -0.733924   -1.844464
     34          1           0        4.125927   -1.404676   -2.687615
     35          1           0        4.391417   -1.162579   -0.951504
     36          6           0        4.552860    0.644403   -2.098813
     37          8           0        4.006244    1.703490   -1.789819
     38          7           0        5.788058    0.604397   -2.658425
     39          1           0        6.188563   -0.280861   -2.933907
     40          6           0        6.588360    1.808108   -2.794531
     41          1           0        6.572802    2.358640   -1.849384
     42          1           0        7.617190    1.515089   -3.011715
     43          6           0        6.121309    2.693210   -3.954578
     44          8           0        6.337728    2.387146   -5.127930
     45          7           0        5.507390    3.845308   -3.584913
     46          1           0        5.126370    3.886624   -2.648723
     47          6           0        5.104095    4.848946   -4.560842
     48          1           0        4.936368    5.795427   -4.046344
     49          1           0        5.920994    4.969509   -5.278155
     50          6           0        3.812227    4.470003   -5.289833
     51          8           0        2.732381    5.009229   -5.026162
     52          7           0        3.952394    3.495297   -6.216871
     53          1           0        4.840610    2.989289   -6.199875
     54          6           0        2.787317    2.872337   -6.795539
     55          1           0        2.113358    3.636713   -7.198497
     56          1           0        3.094583    2.223379   -7.620288
     57          6           0        1.952671    2.060976   -5.809430
     58          8           0        0.910247    1.488693   -6.152267
     59          8           0        2.416065    2.055808   -4.591963
     60          1           0        1.724557    1.744550   -3.905066
 ---------------------------------------------------------------------

 SCF Done:  E(RB3LYP) =  -1741.06258702     A.U. after    2 cycles

 Alpha  occ. eigenvalues --  -19.29242 -19.26516 -19.25304 -19.24566 -19.22911
 Alpha  occ. eigenvalues --  -19.22514 -19.22479 -19.21729 -19.20224 -14.58214
 Alpha  occ. eigenvalues --  -14.49052 -14.48162 -14.47151 -14.47011 -14.46275
 Alpha  occ. eigenvalues --  -14.46051 -14.44303 -10.44291 -10.42828 -10.41131
 Alpha  occ. eigenvalues --  -10.39624 -10.39431 -10.39372 -10.39257 -10.38900
 Alpha  occ. eigenvalues --  -10.37422 -10.34323 -10.33782 -10.33323 -10.33223
 Alpha  occ. eigenvalues --  -10.33093 -10.32562 -10.32260  -1.21794  -1.17908
 Alpha  occ. eigenvalues --   -1.16167  -1.14876  -1.14323  -1.13775  -1.13712
 Alpha  occ. eigenvalues --   -1.13130  -1.12160  -1.12033  -1.05358  -1.04178
 Alpha  occ. eigenvalues --   -1.03519  -1.03105  -1.02735  -1.02542  -1.01118
 Alpha  occ. eigenvalues --   -0.89295  -0.87680  -0.86970  -0.85437  -0.83682
 Alpha  occ. eigenvalues --   -0.82086  -0.80210  -0.78195  -0.74430  -0.73639
 Alpha  occ. eigenvalues --   -0.72208  -0.71427  -0.70803  -0.70542  -0.69375
 Alpha  occ. eigenvalues --   -0.68663  -0.68103  -0.66938  -0.65861  -0.64609
 Alpha  occ. eigenvalues --   -0.64391  -0.63791  -0.62622  -0.62509  -0.61136
 Alpha  occ. eigenvalues --   -0.60510  -0.60164  -0.59609  -0.59121  -0.58968
 Alpha  occ. eigenvalues --   -0.58428  -0.58250  -0.57730  -0.57132  -0.56882
 Alpha  occ. eigenvalues --   -0.56096  -0.55498  -0.54677  -0.54627  -0.53653
 Alpha  occ. eigenvalues --   -0.53222  -0.53006  -0.52430  -0.51886  -0.51458
 Alpha  occ. eigenvalues --   -0.50939  -0.50584  -0.50347  -0.49647  -0.49608
 Alpha  occ. eigenvalues --   -0.49230  -0.48890  -0.48279  -0.48090  -0.47910
 Alpha  occ. eigenvalues --   -0.47684  -0.46381  -0.46055  -0.45745  -0.43234
 Alpha  occ. eigenvalues --   -0.41521  -0.39951  -0.39456  -0.39180  -0.38684
 Alpha  occ. eigenvalues --   -0.38579  -0.38156  -0.37009  -0.36498  -0.35823
 Alpha  occ. eigenvalues --   -0.35436  -0.35092  -0.34688  -0.34354  -0.33096
 Alpha virt. eigenvalues --   -0.12049  -0.10855  -0.10085  -0.09899  -0.08818
 Alpha virt. eigenvalues --   -0.08410  -0.07916  -0.07703  -0.06516  -0.03509
 Alpha virt. eigenvalues --   -0.02889  -0.02207  -0.01462  -0.01287  -0.00717

 Mulliken charges:
               1
     1  N   -0.748724
     2  H    0.440179
     3  H    0.405227
     4  H    0.412937
     5  C   -0.278659
     6  H    0.231999
     7  H    0.239129
     8  C    0.644169
     9  O   -0.527417
    10  N   -0.582740
    11  H    0.365159
    12  C   -0.250838
    13  H    0.238339
    14  H    0.208821
    15  C    0.595010
    16  O   -0.525892
    17  N   -0.617021
    18  H    0.398042
    19  C   -0.252208
    20  H    0.191126
    21  H    0.219816
    22  C    0.703393
    23  O   -0.605704
    24  N   -0.564226
    25  H    0.360985
    26  C   -0.245695
    27  H    0.204090
    28  H    0.201651
    29  C    0.588246
    30  O   -0.483356
    31  N   -0.571147
    32  H    0.357504
    33  C   -0.257639
    34  H    0.173470
    35  H    0.232415
    36  C    0.622000
    37  O   -0.547051
    38  N   -0.576799
    39  H    0.352032
    40  C   -0.231062
    41  H    0.187914
    42  H    0.201959
    43  C    0.622115
    44  O   -0.525954
    45  N   -0.568651
    46  H    0.356677
    47  C   -0.249390
    48  H    0.195730
    49  H    0.209026
    50  C    0.618183
    51  O   -0.541339
    52  N   -0.567183
    53  H    0.389559
    54  C   -0.275392
    55  H    0.240123
    56  H    0.193902
    57  C    0.638659
    58  O   -0.550478
    59  O   -0.576013
    60  H    0.480994
 Sum of Mulliken charges =   1.00000

 Dipole moment (field-independent basis, Debye):
    X=              6.0201    Y=              9.9489    Z=            -27.0688  Tot=             29.4609
 Quadrupole moment (field-independent basis, Debye-Ang):
   XX=           -121.3040   YY=           -152.4689   ZZ=              9.2341
   XY=             15.1749   XZ=             -0.9596   YZ=            -41.2634

 Normal termination of Gaussian 16 at Tue Jul 19 19:29:05 2022.
