 Gaussian 16, Revision C.01,
 Gaussian 16:  ES64L-G16RevC.01  3-Jul-2019

 ----------------------------------------------------------------------
 # B3LYP/6-31G* empiricaldispersion=gd3bj guess=read geom=check nosymm
 integral(ultrafinegrid)
 ----------------------------------------------------------------------

 -----------------------------------------------------
 Candidate Structure: Conf:84 Charge calc in gas phase
 -----------------------------------------------------
 Structure from the checkpoint file:  "conf-84.chk"
 Charge =  1 Multiplicity = 1

                          Input orientation:
 ---------------------------------------------------------------------
 Center     Atomic      Atomic             Coordinates (Angstroms)
 Number     Number       Type             X           Y           Z
 ---------------------------------------------------------------------
      1          7           0       -2.523244    2.338438   -3.908334
      2          1           0       -3.024172    1.452351   -4.001430
      3          1           0       -1.770179    2.426850   -4.612946
      4          1           0       -2.039553    2.428718   -2.963844
      5          6           0       -3.390700    3.543892   -4.087669
      6          1           0       -3.989493    3.680436   -3.186472
      7          1           0       -4.042845    3.393401   -4.951890
      8          6           0       -2.383498    4.680413   -4.332048
      9          8           0       -1.287659    4.386358   -4.801544
     10          7           0       -2.736570    5.924223   -3.958379
     11          1           0       -3.660532    6.102882   -3.588067
     12          6           0       -1.716532    6.975560   -3.919597
     13          1           0       -1.272054    7.115711   -4.905666
     14          1           0       -2.197001    7.907251   -3.611852
     15          6           0       -0.564449    6.615890   -2.958318
     16          8           0        0.580895    6.944804   -3.194129
     17          7           0       -0.955225    5.935716   -1.829433
     18          1           0       -1.897096    5.569611   -1.816556
     19          6           0       -0.009643    5.126726   -1.097503
     20          1           0       -0.063323    5.330671   -0.020283
     21          1           0        0.995352    5.389652   -1.438388
     22          6           0       -0.304071    3.641443   -1.323027
     23          8           0       -1.440438    3.276974   -1.711560
     24          7           0        0.677649    2.795550   -1.040971
     25          1           0        1.589799    3.109304   -0.699674
     26          6           0        0.561819    1.352585   -1.055478
     27          1           0       -0.306714    1.027580   -0.471676
     28          1           0        0.442070    0.975109   -2.079127
     29          6           0        1.871522    0.811650   -0.448616
     30          8           0        2.759111    1.593920   -0.109961
     31          7           0        1.942493   -0.519519   -0.340710
     32          1           0        1.194691   -1.150255   -0.626612
     33          6           0        3.093855   -1.214077    0.193527
     34          1           0        3.291700   -0.907791    1.227699
     35          1           0        3.993902   -0.986766   -0.390135
     36          6           0        2.764042   -2.711997    0.123498
     37          8           0        1.684506   -3.094440   -0.334526
     38          7           0        3.716851   -3.532753    0.586296
     39          1           0        4.601805   -3.202837    0.966713
     40          6           0        3.575316   -4.970974    0.602902
     41          1           0        2.700088   -5.271693    1.191890
     42          1           0        3.430274   -5.362951   -0.411417
     43          6           0        4.860608   -5.536335    1.219495
     44          8           0        5.767629   -4.788992    1.586344
     45          7           0        4.909837   -6.875453    1.321057
     46          1           0        4.155118   -7.485634    1.017807
     47          6           0        6.047224   -7.567997    1.879897
     48          1           0        6.958706   -7.349980    1.308960
     49          1           0        6.233559   -7.246342    2.912392
     50          6           0        5.731578   -9.065586    1.833579
     51          8           0        4.667899   -9.480935    1.377499
     52          7           0        6.693334   -9.874512    2.322505
     53          1           0        7.565438   -9.516095    2.695845
     54          6           0        6.537631  -11.311291    2.345171
     55          1           0        5.661968  -11.611532    2.933312
     56          1           0        6.387664  -11.715393    1.336689
     57          6           0        7.786245  -11.915081    2.951975
     58          8           0        8.735622  -11.269939    3.341728
     59          8           0        7.708661  -13.253990    3.003570
     60          1           0        8.539758  -13.575441    3.402322
 ---------------------------------------------------------------------

 SCF Done:  E(RB3LYP) =  -1741.01457505     A.U. after    2 cycles

 Alpha  occ. eigenvalues --  -19.27010 -19.26664 -19.26058 -19.21720 -19.21711
 Alpha  occ. eigenvalues --  -19.21301 -19.19895 -19.18782 -19.18719 -14.59095
 Alpha  occ. eigenvalues --  -14.51272 -14.48695 -14.46315 -14.45360 -14.43629
 Alpha  occ. eigenvalues --  -14.43045 -14.42776 -10.44427 -10.42229 -10.40847
 Alpha  occ. eigenvalues --  -10.39466 -10.39252 -10.39088 -10.37101 -10.36035
 Alpha  occ. eigenvalues --  -10.35971 -10.34765 -10.34739 -10.33986 -10.31547
 Alpha  occ. eigenvalues --  -10.30335 -10.30305 -10.29851  -1.19748  -1.17812
 Alpha  occ. eigenvalues --   -1.17029  -1.14016  -1.13852  -1.13368  -1.11897
 Alpha  occ. eigenvalues --   -1.11087  -1.10342  -1.08952  -1.07300  -1.05119
 Alpha  occ. eigenvalues --   -1.02869  -1.01967  -1.00226  -0.99686  -0.99182
 Alpha  occ. eigenvalues --   -0.90584  -0.87901  -0.85279  -0.84261  -0.83103
 Alpha  occ. eigenvalues --   -0.81294  -0.79408  -0.76531  -0.74765  -0.74049
 Alpha  occ. eigenvalues --   -0.73248  -0.71146  -0.69293  -0.68847  -0.68591
 Alpha  occ. eigenvalues --   -0.67065  -0.66858  -0.66227  -0.66142  -0.65300
 Alpha  occ. eigenvalues --   -0.63555  -0.62938  -0.61290  -0.60982  -0.59875
 Alpha  occ. eigenvalues --   -0.59673  -0.59016  -0.58288  -0.57119  -0.56453
 Alpha  occ. eigenvalues --   -0.56199  -0.55932  -0.55804  -0.55744  -0.55132
 Alpha  occ. eigenvalues --   -0.54970  -0.54465  -0.54309  -0.53975  -0.53706
 Alpha  occ. eigenvalues --   -0.53092  -0.52738  -0.52419  -0.52126  -0.51235
 Alpha  occ. eigenvalues --   -0.50503  -0.50182  -0.49246  -0.49083  -0.48419
 Alpha  occ. eigenvalues --   -0.47476  -0.47255  -0.46717  -0.46600  -0.45825
 Alpha  occ. eigenvalues --   -0.45532  -0.45111  -0.43504  -0.41976  -0.41617
 Alpha  occ. eigenvalues --   -0.41118  -0.40548  -0.39165  -0.38913  -0.36452
 Alpha  occ. eigenvalues --   -0.36071  -0.35405  -0.35316  -0.35126  -0.34456
 Alpha  occ. eigenvalues --   -0.33735  -0.33422  -0.32900  -0.32304  -0.31661
 Alpha virt. eigenvalues --   -0.13574  -0.10900  -0.09494  -0.08411  -0.07263
 Alpha virt. eigenvalues --   -0.06385  -0.05944  -0.05421  -0.04531  -0.03642
 Alpha virt. eigenvalues --   -0.03539  -0.02103  -0.01402  -0.00568   0.00078

 Mulliken charges:
               1
     1  N   -0.752265
     2  H    0.406207
     3  H    0.418312
     4  H    0.446270
     5  C   -0.278663
     6  H    0.225612
     7  H    0.241706
     8  C    0.646069
     9  O   -0.498969
    10  N   -0.610847
    11  H    0.355920
    12  C   -0.233456
    13  H    0.233649
    14  H    0.208195
    15  C    0.596214
    16  O   -0.467753
    17  N   -0.565113
    18  H    0.322871
    19  C   -0.242961
    20  H    0.209844
    21  H    0.229281
    22  C    0.640048
    23  O   -0.618198
    24  N   -0.584562
    25  H    0.386121
    26  C   -0.212715
    27  H    0.199182
    28  H    0.177585
    29  C    0.620245
    30  O   -0.521218
    31  N   -0.623227
    32  H    0.360099
    33  C   -0.198250
    34  H    0.202259
    35  H    0.202517
    36  C    0.611803
    37  O   -0.540229
    38  N   -0.622315
    39  H    0.365803
    40  C   -0.194518
    41  H    0.195934
    42  H    0.195240
    43  C    0.610165
    44  O   -0.531363
    45  N   -0.624550
    46  H    0.362464
    47  C   -0.193115
    48  H    0.196478
    49  H    0.196580
    50  C    0.609915
    51  O   -0.526682
    52  N   -0.625938
    53  H    0.361204
    54  C   -0.177257
    55  H    0.212525
    56  H    0.212453
    57  C    0.569419
    58  O   -0.456708
    59  O   -0.554475
    60  H    0.427157
 Sum of Mulliken charges =   1.00000

 Dipole moment (field-independent basis, Debye):
    X=             -6.7562    Y=              2.2072    Z=            -10.0126  Tot=             12.2789
 Quadrupole moment (field-independent basis, Debye-Ang):
   XX=           -104.8004   YY=            -21.9510   ZZ=           -132.6727
   XY=           -136.5841   XZ=             67.1871   YZ=            -65.0648

 Normal termination of Gaussian 16 at Tue Jul 19 19:28:51 2022.
