 Gaussian 16, Revision C.01,
 Gaussian 16:  ES64L-G16RevC.01  3-Jul-2019

 ----------------------------------------------------------------------
 # B3LYP/6-31G* empiricaldispersion=gd3bj guess=read geom=check nosymm
 integral(ultrafinegrid)
 ----------------------------------------------------------------------

 -----------------------------------------------------
 Candidate Structure: Conf:60 Charge calc in gas phase
 -----------------------------------------------------
 Structure from the checkpoint file:  "conf-60.chk"
 Charge =  1 Multiplicity = 1

                          Input orientation:
 ---------------------------------------------------------------------
 Center     Atomic      Atomic             Coordinates (Angstroms)
 Number     Number       Type             X           Y           Z
 ---------------------------------------------------------------------
      1          7           0       -2.619482   -1.087088    0.680308
      2          1           0       -3.188447   -1.935514    0.674208
      3          1           0       -1.782647   -1.212928    0.021047
      4          1           0       -2.277038   -0.878252    1.636990
      5          6           0       -3.363887    0.130093    0.240958
      6          1           0       -4.428882    0.010705    0.453230
      7          1           0       -3.204181    0.273548   -0.829187
      8          6           0       -2.776685    1.290016    1.064224
      9          8           0       -2.126806    1.029560    2.076310
     10          7           0       -3.070404    2.520215    0.597795
     11          1           0       -3.331799    2.542662   -0.386464
     12          6           0       -2.315411    3.699507    1.045564
     13          1           0       -2.983491    4.563768    1.099860
     14          1           0       -1.893933    3.492083    2.027486
     15          6           0       -1.196133    3.852107    0.012109
     16          8           0       -0.139321    3.247223    0.113796
     17          7           0       -1.540033    4.528883   -1.131784
     18          1           0       -2.481306    4.890631   -1.205655
     19          6           0       -0.910108    4.091796   -2.365402
     20          1           0        0.161120    4.305159   -2.333384
     21          1           0       -1.347037    4.643924   -3.201873
     22          6           0       -1.162659    2.582506   -2.537834
     23          8           0       -2.195408    2.054230   -2.116637
     24          7           0       -0.187881    1.853449   -3.129504
     25          1           0        0.677947    2.300663   -3.399586
     26          6           0       -0.262189    0.400467   -3.069158
     27          1           0       -1.202426    0.049910   -3.495790
     28          1           0        0.563571   -0.020329   -3.648857
     29          6           0       -0.198733   -0.110982   -1.620529
     30          8           0       -0.890678   -1.095144   -1.281278
     31          7           0        0.626969    0.544408   -0.816870
     32          1           0        1.176944    1.337634   -1.146372
     33          6           0        0.889433    0.263794    0.576863
     34          1           0        1.080438   -0.804963    0.725218
     35          1           0        0.048783    0.570167    1.208962
     36          6           0        2.130044    1.098805    0.944116
     37          8           0        2.690370    1.788981    0.093532
     38          7           0        2.519580    1.004128    2.222007
     39          1           0        2.019139    0.458491    2.920639
     40          6           0        3.643430    1.737865    2.758016
     41          1           0        4.573756    1.458505    2.248808
     42          1           0        3.509170    2.817312    2.615445
     43          6           0        3.720625    1.396558    4.251238
     44          8           0        2.889494    0.651278    4.772599
     45          7           0        4.738449    1.963340    4.919344
     46          1           0        5.427182    2.567237    4.477153
     47          6           0        4.964024    1.739278    6.328248
     48          1           0        4.110091    2.086844    6.923542
     49          1           0        5.086311    0.669554    6.539564
     50          6           0        6.230900    2.511366    6.709381
     51          8           0        6.846441    3.176581    5.878573
     52          7           0        6.606246    2.405698    7.999837
     53          1           0        6.090469    1.847161    8.671043
     54          6           0        7.783601    3.074430    8.506356
     55          1           0        8.686453    2.760357    7.968863
     56          1           0        7.712088    4.162028    8.384887
     57          6           0        7.924908    2.737055    9.975559
     58          8           0        7.158980    2.023684   10.587335
     59          8           0        9.003363    3.327104   10.512886
     60          1           0        9.035153    3.069315   11.453969
 ---------------------------------------------------------------------

 SCF Done:  E(RB3LYP) =  -1741.03508402     A.U. after    1 cycles

 Alpha  occ. eigenvalues --  -19.27145 -19.26244 -19.24867 -19.24535 -19.23502
 Alpha  occ. eigenvalues --  -19.21798 -19.20657 -19.19615 -19.19322 -14.56522
 Alpha  occ. eigenvalues --  -14.49408 -14.49197 -14.47940 -14.47447 -14.44434
 Alpha  occ. eigenvalues --  -14.43633 -14.43541 -10.43150 -10.41651 -10.41205
 Alpha  occ. eigenvalues --  -10.40497 -10.39966 -10.38260 -10.37994 -10.36840
 Alpha  occ. eigenvalues --  -10.36585 -10.35090 -10.34835 -10.34731 -10.33095
 Alpha  occ. eigenvalues --  -10.31061 -10.30819 -10.30568  -1.18366  -1.18304
 Alpha  occ. eigenvalues --   -1.17050  -1.15767  -1.15172  -1.12809  -1.11803
 Alpha  occ. eigenvalues --   -1.11280  -1.11050  -1.09451  -1.06239  -1.05561
 Alpha  occ. eigenvalues --   -1.04067  -1.03498  -1.01096  -1.00330  -0.99895
 Alpha  occ. eigenvalues --   -0.89383  -0.88081  -0.85652  -0.84505  -0.83368
 Alpha  occ. eigenvalues --   -0.81634  -0.80258  -0.77463  -0.72827  -0.72067
 Alpha  occ. eigenvalues --   -0.71544  -0.70972  -0.70418  -0.70030  -0.69549
 Alpha  occ. eigenvalues --   -0.67934  -0.66900  -0.66202  -0.65992  -0.65325
 Alpha  occ. eigenvalues --   -0.64067  -0.62561  -0.61944  -0.61043  -0.60765
 Alpha  occ. eigenvalues --   -0.59740  -0.58772  -0.58453  -0.57799  -0.56852
 Alpha  occ. eigenvalues --   -0.56789  -0.56433  -0.56360  -0.55822  -0.55683
 Alpha  occ. eigenvalues --   -0.55154  -0.54972  -0.54759  -0.53847  -0.53578
 Alpha  occ. eigenvalues --   -0.53189  -0.52917  -0.52655  -0.52558  -0.51817
 Alpha  occ. eigenvalues --   -0.51640  -0.50909  -0.50243  -0.49562  -0.48993
 Alpha  occ. eigenvalues --   -0.48622  -0.48441  -0.47627  -0.47328  -0.46435
 Alpha  occ. eigenvalues --   -0.46224  -0.46125  -0.44317  -0.42699  -0.41357
 Alpha  occ. eigenvalues --   -0.40741  -0.40318  -0.39400  -0.39325  -0.38173
 Alpha  occ. eigenvalues --   -0.37620  -0.37064  -0.35998  -0.35916  -0.35347
 Alpha  occ. eigenvalues --   -0.34600  -0.34172  -0.33603  -0.33019  -0.32377
 Alpha virt. eigenvalues --   -0.13187  -0.11205  -0.09706  -0.09077  -0.07523
 Alpha virt. eigenvalues --   -0.06444  -0.06113  -0.05225  -0.04308  -0.04230
 Alpha virt. eigenvalues --   -0.03542  -0.02157  -0.00402   0.00183   0.00947

 Mulliken charges:
               1
     1  N   -0.768423
     2  H    0.403975
     3  H    0.456003
     4  H    0.410724
     5  C   -0.292893
     6  H    0.233532
     7  H    0.256257
     8  C    0.628764
     9  O   -0.506726
    10  N   -0.578196
    11  H    0.366410
    12  C   -0.244096
    13  H    0.188685
    14  H    0.232062
    15  C    0.586878
    16  O   -0.489142
    17  N   -0.552223
    18  H    0.342831
    19  C   -0.246837
    20  H    0.207456
    21  H    0.208309
    22  C    0.637049
    23  O   -0.551490
    24  N   -0.593453
    25  H    0.358398
    26  C   -0.221232
    27  H    0.214939
    28  H    0.208483
    29  C    0.618985
    30  O   -0.601847
    31  N   -0.553821
    32  H    0.370993
    33  C   -0.239598
    34  H    0.191463
    35  H    0.206341
    36  C    0.641286
    37  O   -0.535042
    38  N   -0.625101
    39  H    0.360930
    40  C   -0.194948
    41  H    0.197336
    42  H    0.199243
    43  C    0.609973
    44  O   -0.536037
    45  N   -0.623674
    46  H    0.364134
    47  C   -0.193545
    48  H    0.195070
    49  H    0.196386
    50  C    0.610456
    51  O   -0.525336
    52  N   -0.626042
    53  H    0.360807
    54  C   -0.177961
    55  H    0.213865
    56  H    0.212992
    57  C    0.569824
    58  O   -0.457417
    59  O   -0.553518
    60  H    0.427758
 Sum of Mulliken charges =   1.00000

 Dipole moment (field-independent basis, Debye):
    X=             -3.3484    Y=              6.7045    Z=              3.7038  Tot=              8.3595
 Quadrupole moment (field-independent basis, Debye-Ang):
   XX=           -102.2214   YY=           -144.8851   ZZ=            -90.7462
   XY=              5.2153   XZ=             63.2402   YZ=              7.4774

 Normal termination of Gaussian 16 at Tue Jul 19 19:38:00 2022.
