 Gaussian 16, Revision C.01,
 Gaussian 16:  ES64L-G16RevC.01  3-Jul-2019

 ----------------------------------------------------------------------
 # B3LYP/6-31G* empiricaldispersion=gd3bj guess=read geom=check nosymm
 integral(ultrafinegrid)
 ----------------------------------------------------------------------

 -----------------------------------------------------
 Candidate Structure: Conf:34 Charge calc in gas phase
 -----------------------------------------------------
 Structure from the checkpoint file:  "conf-34.chk"
 Charge =  1 Multiplicity = 1

                          Input orientation:
 ---------------------------------------------------------------------
 Center     Atomic      Atomic             Coordinates (Angstroms)
 Number     Number       Type             X           Y           Z
 ---------------------------------------------------------------------
      1          7           0       -3.597238    0.881751    2.989180
      2          1           0       -3.746629   -0.103110    3.216850
      3          1           0       -4.334060    1.244734    2.358084
      4          1           0       -2.676454    1.040582    2.474713
      5          6           0       -3.609567    1.784719    4.181117
      6          1           0       -2.658891    1.684119    4.705969
      7          1           0       -4.434199    1.501616    4.840378
      8          6           0       -3.830023    3.179914    3.571593
      9          8           0       -4.411653    3.248987    2.492247
     10          7           0       -3.318242    4.239072    4.224886
     11          1           0       -2.846550    4.110114    5.110149
     12          6           0       -3.236319    5.530151    3.536562
     13          1           0       -4.228190    5.860145    3.225942
     14          1           0       -2.821984    6.263555    4.232214
     15          6           0       -2.373089    5.446664    2.258889
     16          8           0       -2.620167    6.136113    1.288907
     17          7           0       -1.319923    4.572607    2.341222
     18          1           0       -1.297105    3.945601    3.132618
     19          6           0       -0.696367    4.036020    1.155936
     20          1           0        0.394002    4.155170    1.191864
     21          1           0       -1.054334    4.589195    0.284940
     22          6           0       -0.992229    2.540596    1.032014
     23          8           0       -1.382613    1.889658    2.030033
     24          7           0       -0.775733    2.011508   -0.172492
     25          1           0       -0.375033    2.642295   -0.887970
     26          6           0       -0.669637    0.588026   -0.387069
     27          1           0       -1.413106    0.063496    0.219970
     28          1           0       -0.883023    0.371171   -1.438159
     29          6           0        0.734712    0.082878   -0.003950
     30          8           0        1.507276    0.764191    0.657047
     31          7           0        1.042315   -1.180407   -0.418344
     32          1           0        0.520109   -1.555996   -1.199538
     33          6           0        2.434664   -1.598988   -0.317402
     34          1           0        2.517802   -2.617761   -0.704493
     35          1           0        2.734213   -1.602279    0.733224
     36          6           0        3.310234   -0.659841   -1.158977
     37          8           0        2.918537   -0.289629   -2.267518
     38          7           0        4.487214   -0.276250   -0.611977
     39          1           0        4.619968   -0.432330    0.378854
     40          6           0        5.301460    0.779178   -1.222610
     41          1           0        6.308364    0.735881   -0.808505
     42          1           0        5.335787    0.602613   -2.299887
     43          6           0        4.679307    2.144556   -0.884752
     44          8           0        5.102227    2.859102    0.008067
     45          7           0        3.559483    2.428002   -1.630712
     46          1           0        3.191944    1.638135   -2.160526
     47          6           0        2.574720    3.353257   -1.093396
     48          1           0        2.012599    2.897705   -0.271786
     49          1           0        3.105130    4.225268   -0.697693
     50          6           0        1.589864    3.788450   -2.166581
     51          8           0        0.362991    3.820552   -1.964568
     52          7           0        2.127368    4.145817   -3.340483
     53          1           0        3.126525    4.051596   -3.498358
     54          6           0        1.329141    4.574469   -4.467152
     55          1           0        0.533125    3.853132   -4.684546
     56          1           0        0.836239    5.534222   -4.270877
     57          6           0        2.241392    4.710918   -5.669548
     58          8           0        3.432163    4.490362   -5.646513
     59          8           0        1.560469    5.108317   -6.754596
     60          1           0        2.200636    5.184220   -7.487989
 ---------------------------------------------------------------------

 SCF Done:  E(RB3LYP) =  -1741.02612897     A.U. after    1 cycles

 Alpha  occ. eigenvalues --  -19.28264 -19.26594 -19.25170 -19.23070 -19.22908
 Alpha  occ. eigenvalues --  -19.21837 -19.21645 -19.20920 -19.19510 -14.58590
 Alpha  occ. eigenvalues --  -14.50803 -14.47060 -14.47033 -14.46431 -14.45547
 Alpha  occ. eigenvalues --  -14.45514 -14.43339 -10.43981 -10.41210 -10.41131
 Alpha  occ. eigenvalues --  -10.40428 -10.39916 -10.38848 -10.38538 -10.38532
 Alpha  occ. eigenvalues --  -10.36479 -10.34737 -10.34216 -10.33363 -10.32671
 Alpha  occ. eigenvalues --  -10.32352 -10.31293 -10.30768  -1.19427  -1.19311
 Alpha  occ. eigenvalues --   -1.16224  -1.15077  -1.13498  -1.13356  -1.13268
 Alpha  occ. eigenvalues --   -1.12767  -1.11259  -1.10624  -1.06851  -1.04219
 Alpha  occ. eigenvalues --   -1.03181  -1.02297  -1.02170  -1.02075  -0.99763
 Alpha  occ. eigenvalues --   -0.90100  -0.87702  -0.85838  -0.84876  -0.83651
 Alpha  occ. eigenvalues --   -0.81543  -0.79641  -0.77936  -0.74323  -0.73562
 Alpha  occ. eigenvalues --   -0.72771  -0.71065  -0.70335  -0.69344  -0.68400
 Alpha  occ. eigenvalues --   -0.68193  -0.67676  -0.66365  -0.65863  -0.65444
 Alpha  occ. eigenvalues --   -0.63518  -0.62922  -0.62659  -0.61512  -0.61079
 Alpha  occ. eigenvalues --   -0.59961  -0.59240  -0.59115  -0.58674  -0.57568
 Alpha  occ. eigenvalues --   -0.57468  -0.57380  -0.56612  -0.56214  -0.55428
 Alpha  occ. eigenvalues --   -0.55113  -0.54786  -0.54625  -0.54452  -0.53711
 Alpha  occ. eigenvalues --   -0.53327  -0.53168  -0.52575  -0.51900  -0.51288
 Alpha  occ. eigenvalues --   -0.50699  -0.50428  -0.50307  -0.49455  -0.49117
 Alpha  occ. eigenvalues --   -0.48740  -0.48080  -0.47661  -0.47443  -0.47403
 Alpha  occ. eigenvalues --   -0.46235  -0.46021  -0.45833  -0.44311  -0.41213
 Alpha  occ. eigenvalues --   -0.40641  -0.40510  -0.39803  -0.38592  -0.37942
 Alpha  occ. eigenvalues --   -0.37125  -0.37073  -0.36448  -0.35700  -0.35526
 Alpha  occ. eigenvalues --   -0.35270  -0.35038  -0.34386  -0.33853  -0.31952
 Alpha virt. eigenvalues --   -0.13176  -0.10282  -0.09640  -0.08896  -0.08347
 Alpha virt. eigenvalues --   -0.07916  -0.07672  -0.07200  -0.05941  -0.05587
 Alpha virt. eigenvalues --   -0.03441  -0.02159  -0.01602  -0.00993  -0.00768

 Mulliken charges:
               1
     1  N   -0.755763
     2  H    0.403171
     3  H    0.417929
     4  H    0.450233
     5  C   -0.277815
     6  H    0.224812
     7  H    0.239608
     8  C    0.643107
     9  O   -0.497986
    10  N   -0.608375
    11  H    0.354636
    12  C   -0.234658
    13  H    0.232228
    14  H    0.206400
    15  C    0.596074
    16  O   -0.471920
    17  N   -0.569964
    18  H    0.320515
    19  C   -0.250111
    20  H    0.209213
    21  H    0.240989
    22  C    0.632321
    23  O   -0.621189
    24  N   -0.584675
    25  H    0.425534
    26  C   -0.259323
    27  H    0.179181
    28  H    0.194630
    29  C    0.614796
    30  O   -0.500743
    31  N   -0.563999
    32  H    0.346572
    33  C   -0.237753
    34  H    0.201035
    35  H    0.186916
    36  C    0.626462
    37  O   -0.543063
    38  N   -0.569228
    39  H    0.352476
    40  C   -0.247922
    41  H    0.198137
    42  H    0.204801
    43  C    0.594088
    44  O   -0.486964
    45  N   -0.628179
    46  H    0.371332
    47  C   -0.226580
    48  H    0.190698
    49  H    0.214804
    50  C    0.595178
    51  O   -0.570304
    52  N   -0.578420
    53  H    0.376530
    54  C   -0.184042
    55  H    0.209529
    56  H    0.216893
    57  C    0.571694
    58  O   -0.450439
    59  O   -0.553430
    60  H    0.430324
 Sum of Mulliken charges =   1.00000

 Dipole moment (field-independent basis, Debye):
    X=             -7.4641    Y=              3.0798    Z=              8.6744  Tot=             11.8509
 Quadrupole moment (field-independent basis, Debye-Ang):
   XX=           -146.0490   YY=           -162.7516   ZZ=            -88.8670
   XY=            -10.0545   XZ=            -59.4043   YZ=              8.0673

 Normal termination of Gaussian 16 at Tue Jul 19 19:46:09 2022.
