 Gaussian 16, Revision C.01,
 Gaussian 16:  ES64L-G16RevC.01  3-Jul-2019

 ----------------------------------------------------------------------
 # B3LYP/6-31G* empiricaldispersion=gd3bj guess=read geom=check nosymm
 integral(ultrafinegrid)
 ----------------------------------------------------------------------

 ------------------------------------------------------
 Candidate Structure: Conf:962 Charge calc in gas phase
 ------------------------------------------------------
 Structure from the checkpoint file:  "conf-962.chk"
 Charge =  1 Multiplicity = 1

                          Input orientation:
 ---------------------------------------------------------------------
 Center     Atomic      Atomic             Coordinates (Angstroms)
 Number     Number       Type             X           Y           Z
 ---------------------------------------------------------------------
      1          7           0        1.500344    3.902813   -0.454751
      2          1           0        2.406523    3.478195   -0.707085
      3          1           0        1.675771    4.675620    0.212791
      4          1           0        0.956300    3.173381    0.042757
      5          6           0        0.689901    4.389443   -1.602724
      6          1           0        0.610658    3.588925   -2.338346
      7          1           0        1.186807    5.256609   -2.044700
      8          6           0       -0.664800    4.769720   -0.995407
      9          8           0       -0.691529    5.248558    0.134434
     10          7           0       -1.767889    4.506147   -1.735951
     11          1           0       -1.656161    3.905530   -2.543617
     12          6           0       -3.066514    4.395424   -1.055199
     13          1           0       -3.156754    5.220212   -0.347811
     14          1           0       -3.865390    4.444822   -1.794095
     15          6           0       -3.065637    3.015298   -0.387035
     16          8           0       -3.466370    2.015974   -0.968997
     17          7           0       -2.436626    2.956656    0.828113
     18          1           0       -1.907631    3.772315    1.121000
     19          6           0       -1.933523    1.667170    1.242919
     20          1           0       -2.758429    0.964624    1.388798
     21          1           0       -1.395296    1.796875    2.184563
     22          6           0       -0.940761    1.122297    0.215671
     23          8           0       -0.242584    1.861123   -0.492728
     24          7           0       -0.797768   -0.214355    0.121508
     25          1           0       -1.414756   -0.839113    0.620666
     26          6           0        0.138236   -0.744208   -0.851365
     27          1           0        0.063122   -1.834391   -0.846976
     28          1           0       -0.117073   -0.380611   -1.852131
     29          6           0        1.579181   -0.387760   -0.474503
     30          8           0        2.033463   -0.673419    0.632557
     31          7           0        2.339833    0.204910   -1.427885
     32          1           0        1.923754    0.447577   -2.315092
     33          6           0        3.780037    0.331580   -1.262428
     34          1           0        4.182187    0.810128   -2.157919
     35          1           0        4.232012   -0.662890   -1.176808
     36          6           0        4.175459    1.206130   -0.061839
     37          8           0        3.925150    2.422361   -0.049855
     38          7           0        4.834500    0.553574    0.914392
     39          1           0        4.859011   -0.454908    0.841221
     40          6           0        5.244687    1.130462    2.187702
     41          1           0        6.040566    0.511962    2.608568
     42          1           0        5.661335    2.125073    2.022478
     43          6           0        4.135472    1.292892    3.238941
     44          8           0        4.392056    1.849901    4.302003
     45          7           0        2.908114    0.831572    2.903134
     46          1           0        2.738866    0.383629    2.006969
     47          6           0        1.736973    1.222392    3.676864
     48          1           0        0.898111    0.596719    3.371105
     49          1           0        1.932096    1.086233    4.743030
     50          6           0        1.447050    2.683161    3.320844
     51          8           0        0.776593    2.994927    2.329080
     52          7           0        2.088957    3.593712    4.095473
     53          1           0        2.848006    3.218618    4.661919
     54          6           0        2.247954    4.947675    3.590508
     55          1           0        1.278382    5.422717    3.437205
     56          1           0        2.814842    5.531776    4.320561
     57          6           0        2.971734    4.950566    2.248076
     58          8           0        2.680155    5.670066    1.308029
     59          8           0        3.937312    4.030389    2.199143
     60          1           0        4.198516    3.855799    1.268660
 ---------------------------------------------------------------------

 SCF Done:  E(RB3LYP) =  -1741.07029818     A.U. after    2 cycles

 Alpha  occ. eigenvalues --  -19.30031 -19.27033 -19.25669 -19.25150 -19.24875
 Alpha  occ. eigenvalues --  -19.24196 -19.23332 -19.21795 -19.21577 -14.53833
 Alpha  occ. eigenvalues --  -14.50758 -14.50575 -14.49437 -14.48555 -14.46557
 Alpha  occ. eigenvalues --  -14.46412 -14.45548 -10.43778 -10.43459 -10.42889
 Alpha  occ. eigenvalues --  -10.41687 -10.41553 -10.39852 -10.39494 -10.38524
 Alpha  occ. eigenvalues --  -10.37352 -10.37330 -10.36257 -10.34765 -10.33673
 Alpha  occ. eigenvalues --  -10.33575 -10.33431 -10.33195  -1.21671  -1.18452
 Alpha  occ. eigenvalues --   -1.17607  -1.16916  -1.16396  -1.14937  -1.13738
 Alpha  occ. eigenvalues --   -1.13471  -1.12643  -1.09399  -1.06855  -1.06435
 Alpha  occ. eigenvalues --   -1.05271  -1.04611  -1.03368  -1.02545  -1.02143
 Alpha  occ. eigenvalues --   -0.90237  -0.88059  -0.87389  -0.86320  -0.84360
 Alpha  occ. eigenvalues --   -0.82842  -0.80950  -0.79914  -0.74489  -0.73514
 Alpha  occ. eigenvalues --   -0.72630  -0.71939  -0.70992  -0.70059  -0.69374
 Alpha  occ. eigenvalues --   -0.68918  -0.68441  -0.68269  -0.66782  -0.66073
 Alpha  occ. eigenvalues --   -0.64785  -0.64192  -0.63684  -0.63032  -0.62387
 Alpha  occ. eigenvalues --   -0.61405  -0.61270  -0.60639  -0.60237  -0.59443
 Alpha  occ. eigenvalues --   -0.58967  -0.58554  -0.57893  -0.57172  -0.57105
 Alpha  occ. eigenvalues --   -0.56442  -0.55739  -0.55472  -0.55040  -0.54773
 Alpha  occ. eigenvalues --   -0.54534  -0.54246  -0.53321  -0.53146  -0.52641
 Alpha  occ. eigenvalues --   -0.52201  -0.51616  -0.51402  -0.51212  -0.50821
 Alpha  occ. eigenvalues --   -0.50506  -0.49732  -0.49499  -0.49335  -0.48647
 Alpha  occ. eigenvalues --   -0.48205  -0.47809  -0.46793  -0.46700  -0.43161
 Alpha  occ. eigenvalues --   -0.42165  -0.41913  -0.40400  -0.40160  -0.39921
 Alpha  occ. eigenvalues --   -0.39237  -0.38814  -0.38388  -0.38224  -0.38087
 Alpha  occ. eigenvalues --   -0.36485  -0.36056  -0.35513  -0.34755  -0.34399
 Alpha virt. eigenvalues --   -0.13137  -0.12094  -0.11544  -0.11320  -0.10600
 Alpha virt. eigenvalues --   -0.09825  -0.07698  -0.07419  -0.06623  -0.04686
 Alpha virt. eigenvalues --   -0.03380  -0.02963  -0.02319  -0.00050   0.00281

 Mulliken charges:
               1
     1  N   -0.809413
     2  H    0.405500
     3  H    0.453647
     4  H    0.451514
     5  C   -0.250533
     6  H    0.191190
     7  H    0.232277
     8  C    0.629309
     9  O   -0.506071
    10  N   -0.567444
    11  H    0.348465
    12  C   -0.244592
    13  H    0.212354
    14  H    0.204940
    15  C    0.584282
    16  O   -0.505232
    17  N   -0.569725
    18  H    0.375669
    19  C   -0.240060
    20  H    0.193163
    21  H    0.210181
    22  C    0.669361
    23  O   -0.601037
    24  N   -0.571607
    25  H    0.360865
    26  C   -0.224824
    27  H    0.209302
    28  H    0.183630
    29  C    0.632692
    30  O   -0.533414
    31  N   -0.575370
    32  H    0.353413
    33  C   -0.235030
    34  H    0.205003
    35  H    0.190972
    36  C    0.632203
    37  O   -0.566411
    38  N   -0.568515
    39  H    0.363914
    40  C   -0.248097
    41  H    0.215299
    42  H    0.218885
    43  C    0.634814
    44  O   -0.527575
    45  N   -0.626300
    46  H    0.410188
    47  C   -0.235705
    48  H    0.178423
    49  H    0.203591
    50  C    0.595379
    51  O   -0.560492
    52  N   -0.554684
    53  H    0.384004
    54  C   -0.223887
    55  H    0.223099
    56  H    0.213628
    57  C    0.594088
    58  O   -0.497606
    59  O   -0.557468
    60  H    0.435845
 Sum of Mulliken charges =   1.00000

 Dipole moment (field-independent basis, Debye):
    X=              8.5047    Y=              6.7955    Z=             -2.2137  Tot=             11.1090
 Quadrupole moment (field-independent basis, Debye-Ang):
   XX=           -144.5952   YY=           -150.7938   ZZ=           -157.3354
   XY=              3.2118   XZ=             -6.3966   YZ=             -4.6159

 Normal termination of Gaussian 16 at Tue Jul 19 19:29:05 2022.
