 Gaussian 16, Revision C.01,
 Gaussian 16:  ES64L-G16RevC.01  3-Jul-2019

 ----------------------------------------------------------------------
 # B3LYP/6-31G* empiricaldispersion=gd3bj guess=read geom=check nosymm
 integral(ultrafinegrid)
 ----------------------------------------------------------------------

 ------------------------------------------------------
 Candidate Structure: Conf:102 Charge calc in gas phase
 ------------------------------------------------------
 Structure from the checkpoint file:  "conf-102.chk"
 Charge =  1 Multiplicity = 1

                          Input orientation:
 ---------------------------------------------------------------------
 Center     Atomic      Atomic             Coordinates (Angstroms)
 Number     Number       Type             X           Y           Z
 ---------------------------------------------------------------------
      1          7           0        0.134548    6.213384    3.141768
      2          1           0        0.056250    6.553526    2.179841
      3          1           0       -0.644646    5.500238    3.326514
      4          1           0        0.061911    7.011579    3.776428
      5          6           0        1.354562    5.362140    3.363060
      6          1           0        1.862631    5.685855    4.272706
      7          1           0        2.053616    5.424245    2.529498
      8          6           0        0.774520    3.939650    3.509788
      9          8           0       -0.459595    3.838739    3.571608
     10          7           0        1.655544    2.945366    3.589368
     11          1           0        2.610442    3.169021    3.294749
     12          6           0        1.212173    1.581900    3.390656
     13          1           0        1.932964    0.898103    3.837121
     14          1           0        0.248434    1.441606    3.885148
     15          6           0        1.064057    1.300249    1.886108
     16          8           0        1.131430    2.207479    1.053217
     17          7           0        0.849143    0.007055    1.571006
     18          1           0        0.844199   -0.682086    2.316805
     19          6           0        0.511266   -0.390128    0.212838
     20          1           0       -0.348145    0.178733   -0.151433
     21          1           0        0.234997   -1.447753    0.225336
     22          6           0        1.621649   -0.188457   -0.821831
     23          8           0        1.354558   -0.133141   -2.010969
     24          7           0        2.891349   -0.106260   -0.321294
     25          1           0        3.027713   -0.049162    0.681881
     26          6           0        3.999666    0.264192   -1.173081
     27          1           0        4.825283   -0.449567   -1.105051
     28          1           0        3.627323    0.262307   -2.202801
     29          6           0        4.572236    1.634197   -0.826833
     30          8           0        5.789738    1.843120   -0.875978
     31          7           0        3.679010    2.586288   -0.452173
     32          1           0        2.725913    2.316078   -0.213496
     33          6           0        4.138003    3.881408    0.032274
     34          1           0        3.319344    4.598148   -0.028314
     35          1           0        4.969016    4.217769   -0.593109
     36          6           0        4.568861    3.728897    1.494128
     37          8           0        3.891513    4.159864    2.438546
     38          7           0        5.705900    3.011050    1.652304
     39          1           0        6.102907    2.646672    0.780306
     40          6           0        5.934678    2.219241    2.847285
     41          1           0        7.005789    2.158158    3.059146
     42          1           0        5.436805    2.708411    3.686715
     43          6           0        5.305056    0.838251    2.619173
     44          8           0        4.087071    0.730396    2.394562
     45          7           0        6.141526   -0.213141    2.602881
     46          1           0        7.119484   -0.066418    2.812574
     47          6           0        5.717061   -1.565917    2.245468
     48          1           0        4.996919   -1.493426    1.424239
     49          1           0        6.589196   -2.123175    1.905972
     50          6           0        5.103707   -2.349595    3.417366
     51          8           0        5.626217   -3.359952    3.859006
     52          7           0        3.939880   -1.824421    3.897539
     53          1           0        3.543486   -1.005487    3.449268
     54          6           0        3.226396   -2.481960    4.963362
     55          1           0        3.502752   -3.540788    4.973960
     56          1           0        3.490155   -2.088247    5.956507
     57          6           0        1.732351   -2.338025    4.796154
     58          8           0        1.180633   -1.629975    3.971514
     59          8           0        1.069330   -3.062180    5.700868
     60          1           0        0.113191   -2.919949    5.562503
 ---------------------------------------------------------------------

 SCF Done:  E(RB3LYP) =  -1741.04703509     A.U. after    2 cycles

 Alpha  occ. eigenvalues --  -19.31150 -19.26883 -19.26386 -19.25021 -19.24270
 Alpha  occ. eigenvalues --  -19.22771 -19.21600 -19.21007 -19.19428 -14.60324
 Alpha  occ. eigenvalues --  -14.49647 -14.48512 -14.46986 -14.46352 -14.45857
 Alpha  occ. eigenvalues --  -14.45705 -14.44447 -10.44330 -10.43359 -10.41848
 Alpha  occ. eigenvalues --  -10.40728 -10.39692 -10.39617 -10.38506 -10.38490
 Alpha  occ. eigenvalues --  -10.37064 -10.34892 -10.33862 -10.33834 -10.33678
 Alpha  occ. eigenvalues --  -10.33374 -10.32010 -10.31188  -1.22577  -1.19362
 Alpha  occ. eigenvalues --   -1.16708  -1.15424  -1.14608  -1.13794  -1.13656
 Alpha  occ. eigenvalues --   -1.13374  -1.13027  -1.11618  -1.05838  -1.05224
 Alpha  occ. eigenvalues --   -1.04072  -1.03042  -1.02419  -1.02239  -1.00235
 Alpha  occ. eigenvalues --   -0.89981  -0.88334  -0.86418  -0.85604  -0.83936
 Alpha  occ. eigenvalues --   -0.82082  -0.80476  -0.78528  -0.74445  -0.73810
 Alpha  occ. eigenvalues --   -0.73663  -0.71759  -0.71394  -0.69860  -0.69759
 Alpha  occ. eigenvalues --   -0.68626  -0.67980  -0.67295  -0.66501  -0.65691
 Alpha  occ. eigenvalues --   -0.64134  -0.63413  -0.63076  -0.62077  -0.61740
 Alpha  occ. eigenvalues --   -0.61392  -0.60367  -0.59766  -0.59615  -0.59418
 Alpha  occ. eigenvalues --   -0.59243  -0.58602  -0.57311  -0.57199  -0.56492
 Alpha  occ. eigenvalues --   -0.55988  -0.55282  -0.54121  -0.53714  -0.53567
 Alpha  occ. eigenvalues --   -0.53267  -0.53088  -0.52569  -0.51901  -0.51862
 Alpha  occ. eigenvalues --   -0.51280  -0.51020  -0.50851  -0.50721  -0.50036
 Alpha  occ. eigenvalues --   -0.49550  -0.49387  -0.49014  -0.48525  -0.48384
 Alpha  occ. eigenvalues --   -0.46857  -0.46454  -0.45877  -0.44369  -0.43769
 Alpha  occ. eigenvalues --   -0.41981  -0.40755  -0.40271  -0.39608  -0.39520
 Alpha  occ. eigenvalues --   -0.38993  -0.37674  -0.36853  -0.36579  -0.36344
 Alpha  occ. eigenvalues --   -0.35298  -0.34960  -0.34227  -0.33364  -0.32897
 Alpha virt. eigenvalues --   -0.12585  -0.12242  -0.11223  -0.10805  -0.09859
 Alpha virt. eigenvalues --   -0.08481  -0.07796  -0.07303  -0.06274  -0.05461
 Alpha virt. eigenvalues --   -0.03952  -0.02713  -0.02499  -0.01709  -0.00858

 Mulliken charges:
               1
     1  N   -0.751785
     2  H    0.420253
     3  H    0.435369
     4  H    0.417124
     5  C   -0.281997
     6  H    0.240543
     7  H    0.262908
     8  C    0.624262
     9  O   -0.531161
    10  N   -0.583846
    11  H    0.405851
    12  C   -0.258148
    13  H    0.196186
    14  H    0.219129
    15  C    0.619988
    16  O   -0.547400
    17  N   -0.639173
    18  H    0.400501
    19  C   -0.228045
    20  H    0.211109
    21  H    0.197407
    22  C    0.599730
    23  O   -0.493160
    24  N   -0.639476
    25  H    0.375967
    26  C   -0.226000
    27  H    0.182245
    28  H    0.235840
    29  C    0.591630
    30  O   -0.547687
    31  N   -0.590671
    32  H    0.404013
    33  C   -0.233000
    34  H    0.171050
    35  H    0.212623
    36  C    0.606182
    37  O   -0.565294
    38  N   -0.561101
    39  H    0.391855
    40  C   -0.239645
    41  H    0.181490
    42  H    0.207404
    43  C    0.621052
    44  O   -0.571081
    45  N   -0.563258
    46  H    0.361832
    47  C   -0.258404
    48  H    0.199173
    49  H    0.211330
    50  C    0.597869
    51  O   -0.479181
    52  N   -0.621110
    53  H    0.370877
    54  C   -0.201338
    55  H    0.241961
    56  H    0.207131
    57  C    0.583194
    58  O   -0.491693
    59  O   -0.532219
    60  H    0.430793
 Sum of Mulliken charges =   1.00000

 Dipole moment (field-independent basis, Debye):
    X=              9.5693    Y=             17.8735    Z=             18.3725  Tot=             27.3602
 Quadrupole moment (field-independent basis, Debye-Ang):
   XX=           -133.7990   YY=            -56.7998   ZZ=           -130.5262
   XY=             21.7456   XZ=             28.2412   YZ=             54.8986

 Normal termination of Gaussian 16 at Tue Jul 19 19:29:06 2022.
