 Gaussian 16, Revision C.01,
 Gaussian 16:  ES64L-G16RevC.01  3-Jul-2019

 ----------------------------------------------------------------------
 # B3LYP/6-31G* empiricaldispersion=gd3bj guess=read geom=check nosymm
 integral(ultrafinegrid)
 ----------------------------------------------------------------------

 ------------------------------------------------------
 Candidate Structure: Conf:306 Charge calc in gas phase
 ------------------------------------------------------
 Structure from the checkpoint file:  "conf-306.chk"
 Charge =  1 Multiplicity = 1

                          Input orientation:
 ---------------------------------------------------------------------
 Center     Atomic      Atomic             Coordinates (Angstroms)
 Number     Number       Type             X           Y           Z
 ---------------------------------------------------------------------
      1          7           0        6.258281    6.109663   -0.000878
      2          1           0        6.911751    5.286986    0.099694
      3          1           0        6.042654    6.178503   -1.021147
      4          1           0        6.712666    6.955544    0.347032
      5          6           0        4.930551    5.832509    0.629868
      6          1           0        4.525054    6.756804    1.046647
      7          1           0        5.046758    5.077780    1.407000
      8          6           0        4.060274    5.290883   -0.518361
      9          8           0        4.538976    5.282919   -1.662777
     10          7           0        2.848776    4.867927   -0.190116
     11          1           0        2.508792    4.868276    0.770240
     12          6           0        1.984624    4.154880   -1.111871
     13          1           0        1.580934    4.832526   -1.873580
     14          1           0        2.530709    3.358691   -1.625471
     15          6           0        0.834706    3.585239   -0.279683
     16          8           0        0.619536    4.001076    0.856642
     17          7           0        0.076606    2.662731   -0.920853
     18          1           0        0.529655    2.149316   -1.674056
     19          6           0       -1.016091    2.020657   -0.232967
     20          1           0       -1.835698    1.835782   -0.937104
     21          1           0       -1.378156    2.707167    0.537565
     22          6           0       -0.602894    0.702747    0.429673
     23          8           0        0.563290    0.329792    0.519431
     24          7           0       -1.631227   -0.032073    0.935210
     25          1           0       -2.575437    0.187049    0.649489
     26          6           0       -1.357890   -1.373983    1.408730
     27          1           0       -0.700779   -1.330235    2.282552
     28          1           0       -2.301269   -1.833859    1.714986
     29          6           0       -0.734014   -2.215459    0.289183
     30          8           0       -1.138910   -2.128316   -0.869671
     31          7           0        0.256302   -3.061324    0.667057
     32          1           0        0.683327   -2.929901    1.573839
     33          6           0        0.994685   -3.840930   -0.321930
     34          1           0        0.275606   -4.282136   -1.016054
     35          1           0        1.545010   -4.632110    0.186872
     36          6           0        2.005465   -2.956056   -1.061865
     37          8           0        3.207532   -2.965936   -0.776407
     38          7           0        1.466061   -2.148127   -2.004451
     39          1           0        0.449597   -2.070366   -2.016825
     40          6           0        2.268811   -1.190858   -2.750220
     41          1           0        3.191143   -1.688421   -3.067984
     42          1           0        1.712241   -0.874255   -3.632183
     43          6           0        2.613731    0.064392   -1.937987
     44          8           0        2.184208    1.178254   -2.240600
     45          7           0        3.447345   -0.158493   -0.885923
     46          1           0        3.646344   -1.141111   -0.680538
     47          6           0        3.602956    0.828202    0.167694
     48          1           0        2.664091    1.366069    0.316516
     49          1           0        3.820766    0.308803    1.105368
     50          6           0        4.714592    1.840161   -0.056707
     51          8           0        4.893257    2.787590    0.715441
     52          7           0        5.521741    1.642905   -1.122226
     53          1           0        5.367742    0.842105   -1.718355
     54          6           0        6.578046    2.592219   -1.386690
     55          1           0        7.204445    2.205968   -2.196364
     56          1           0        6.166253    3.557973   -1.690832
     57          6           0        7.468827    2.810941   -0.171208
     58          8           0        7.846252    3.904674    0.233048
     59          8           0        7.880619    1.672528    0.376573
     60          1           0        8.450177    1.893420    1.139091
 ---------------------------------------------------------------------

 SCF Done:  E(RB3LYP) =  -1741.06409019     A.U. after    3 cycles

 Alpha  occ. eigenvalues --  -19.32007 -19.27378 -19.24634 -19.22641 -19.22203
 Alpha  occ. eigenvalues --  -19.21733 -19.21584 -19.21443 -19.21379 -14.56374
 Alpha  occ. eigenvalues --  -14.47516 -14.47470 -14.46545 -14.45918 -14.45415
 Alpha  occ. eigenvalues --  -14.45220 -14.44866 -10.45417 -10.41586 -10.39528
 Alpha  occ. eigenvalues --  -10.38887 -10.38760 -10.38483 -10.38428 -10.38216
 Alpha  occ. eigenvalues --  -10.37602 -10.35116 -10.32870 -10.32338 -10.32247
 Alpha  occ. eigenvalues --  -10.32216 -10.32145 -10.32129  -1.23596  -1.16886
 Alpha  occ. eigenvalues --   -1.14676  -1.14429  -1.14351  -1.13712  -1.13539
 Alpha  occ. eigenvalues --   -1.12983  -1.12541  -1.10812  -1.04242  -1.03962
 Alpha  occ. eigenvalues --   -1.02523  -1.02185  -1.02035  -1.01651  -1.01127
 Alpha  occ. eigenvalues --   -0.88158  -0.87635  -0.86293  -0.84964  -0.83170
 Alpha  occ. eigenvalues --   -0.81499  -0.79533  -0.77785  -0.74665  -0.71894
 Alpha  occ. eigenvalues --   -0.70931  -0.70432  -0.70214  -0.69753  -0.68648
 Alpha  occ. eigenvalues --   -0.68105  -0.67315  -0.66800  -0.65046  -0.64424
 Alpha  occ. eigenvalues --   -0.63451  -0.63153  -0.62366  -0.61911  -0.60701
 Alpha  occ. eigenvalues --   -0.60565  -0.60158  -0.58599  -0.58432  -0.58156
 Alpha  occ. eigenvalues --   -0.57494  -0.57235  -0.56887  -0.56530  -0.55969
 Alpha  occ. eigenvalues --   -0.55504  -0.54997  -0.54111  -0.53625  -0.53156
 Alpha  occ. eigenvalues --   -0.52740  -0.52691  -0.52069  -0.51484  -0.51222
 Alpha  occ. eigenvalues --   -0.50876  -0.50622  -0.50417  -0.50206  -0.49603
 Alpha  occ. eigenvalues --   -0.48988  -0.48519  -0.48283  -0.47506  -0.47210
 Alpha  occ. eigenvalues --   -0.46764  -0.45832  -0.45593  -0.44819  -0.44524
 Alpha  occ. eigenvalues --   -0.41621  -0.39485  -0.38578  -0.37977  -0.37630
 Alpha  occ. eigenvalues --   -0.37265  -0.36899  -0.36803  -0.36401  -0.35758
 Alpha  occ. eigenvalues --   -0.35086  -0.34822  -0.34286  -0.33883  -0.33490
 Alpha virt. eigenvalues --   -0.12058  -0.10167  -0.09464  -0.08416  -0.08246
 Alpha virt. eigenvalues --   -0.07528  -0.07338  -0.06725  -0.06551  -0.03225
 Alpha virt. eigenvalues --   -0.02068  -0.01411  -0.01087  -0.00758   0.00077

 Mulliken charges:
               1
     1  N   -0.781903
     2  H    0.457519
     3  H    0.412173
     4  H    0.402127
     5  C   -0.276571
     6  H    0.223855
     7  H    0.260483
     8  C    0.656170
     9  O   -0.543501
    10  N   -0.594038
    11  H    0.372084
    12  C   -0.222763
    13  H    0.210176
    14  H    0.224552
    15  C    0.588058
    16  O   -0.523144
    17  N   -0.592919
    18  H    0.380599
    19  C   -0.257534
    20  H    0.185342
    21  H    0.225718
    22  C    0.618849
    23  O   -0.525508
    24  N   -0.564767
    25  H    0.349407
    26  C   -0.231352
    27  H    0.182012
    28  H    0.201517
    29  C    0.637913
    30  O   -0.539946
    31  N   -0.577402
    32  H    0.348848
    33  C   -0.235984
    34  H    0.206926
    35  H    0.198339
    36  C    0.597691
    37  O   -0.537443
    38  N   -0.574971
    39  H    0.387076
    40  C   -0.243307
    41  H    0.196858
    42  H    0.194266
    43  C    0.601226
    44  O   -0.529430
    45  N   -0.625996
    46  H    0.392290
    47  C   -0.239551
    48  H    0.233458
    49  H    0.198932
    50  C    0.632637
    51  O   -0.569484
    52  N   -0.572571
    53  H    0.359863
    54  C   -0.216324
    55  H    0.207216
    56  H    0.206372
    57  C    0.633242
    58  O   -0.521487
    59  O   -0.521975
    60  H    0.436073
 Sum of Mulliken charges =   1.00000

 Dipole moment (field-independent basis, Debye):
    X=             18.5831    Y=             12.2001    Z=              0.5391  Tot=             22.2366
 Quadrupole moment (field-independent basis, Debye-Ang):
   XX=            -37.9524   YY=            -80.1926   ZZ=           -175.1929
   XY=             96.3686   XZ=             -2.5458   YZ=              0.1571

 Normal termination of Gaussian 16 at Tue Jul 19 19:29:14 2022.
