 Gaussian 16, Revision C.01,
 Gaussian 16:  ES64L-G16RevC.01  3-Jul-2019

 ----------------------------------------------------------------------
 # B3LYP/6-31G* empiricaldispersion=gd3bj guess=read geom=check nosymm
 integral(ultrafinegrid)
 ----------------------------------------------------------------------

 ------------------------------------------------------
 Candidate Structure: Conf:771 Charge calc in gas phase
 ------------------------------------------------------
 Structure from the checkpoint file:  "conf-771.chk"
 Charge =  1 Multiplicity = 1

                          Input orientation:
 ---------------------------------------------------------------------
 Center     Atomic      Atomic             Coordinates (Angstroms)
 Number     Number       Type             X           Y           Z
 ---------------------------------------------------------------------
      1          7           0        3.091098    2.838483    4.343378
      2          1           0        3.520460    2.624058    5.260400
      3          1           0        2.609267    1.971872    3.997830
      4          1           0        3.902883    2.998899    3.706708
      5          6           0        2.196223    4.030047    4.336369
      6          1           0        2.770987    4.887788    4.693474
      7          1           0        1.354078    3.846686    5.002550
      8          6           0        1.631029    4.285993    2.930403
      9          8           0        0.436034    4.093646    2.698742
     10          7           0        2.496633    4.767940    2.009612
     11          1           0        3.497373    4.613850    2.125795
     12          6           0        2.015744    5.082585    0.671488
     13          1           0        1.183408    5.786862    0.750022
     14          1           0        2.829611    5.566639    0.127088
     15          6           0        1.617747    3.809276   -0.075685
     16          8           0        2.413618    2.877680   -0.202677
     17          7           0        0.350202    3.746943   -0.540018
     18          1           0       -0.293482    4.493917   -0.318563
     19          6           0       -0.156546    2.508172   -1.111298
     20          1           0        0.420716    2.227249   -1.994434
     21          1           0       -1.195262    2.660623   -1.414880
     22          6           0       -0.069910    1.325422   -0.139584
     23          8           0        0.023361    0.174394   -0.564707
     24          7           0       -0.107960    1.631129    1.179459
     25          1           0       -0.088679    2.598100    1.490205
     26          6           0        0.104967    0.609842    2.190117
     27          1           0       -0.175798    1.020160    3.160094
     28          1           0       -0.526259   -0.256361    1.970648
     29          6           0        1.572488    0.171809    2.266982
     30          8           0        2.323351    0.513302    3.200460
     31          7           0        2.005917   -0.597309    1.256311
     32          1           0        1.351913   -0.762270    0.489562
     33          6           0        3.326972   -1.203437    1.261658
     34          1           0        3.394960   -1.870459    0.397547
     35          1           0        3.457004   -1.811778    2.160152
     36          6           0        4.507135   -0.235230    1.199827
     37          8           0        5.618878   -0.600773    1.611253
     38          7           0        4.292412    0.979411    0.659481
     39          1           0        3.367322    1.276515    0.362871
     40          6           0        5.353082    1.973767    0.560637
     41          1           0        6.237085    1.536466    0.088169
     42          1           0        4.975427    2.795780   -0.045074
     43          6           0        5.670698    2.492156    1.961898
     44          8           0        5.012678    3.416285    2.486518
     45          7           0        6.637091    1.838111    2.622746
     46          1           0        6.972811    0.989840    2.175891
     47          6           0        6.816563    1.993682    4.061003
     48          1           0        7.811271    1.629492    4.331378
     49          1           0        6.746509    3.049070    4.321134
     50          6           0        5.744712    1.239515    4.873078
     51          8           0        5.170837    1.780943    5.826306
     52          7           0        5.490083   -0.017942    4.473445
     53          1           0        5.842690   -0.352182    3.579743
     54          6           0        4.482448   -0.841148    5.129291
     55          1           0        4.621986   -0.772982    6.212895
     56          1           0        3.473578   -0.515029    4.871763
     57          6           0        4.622506   -2.285554    4.683136
     58          8           0        3.721332   -2.942518    4.211341
     59          8           0        5.872509   -2.748197    4.867109
     60          1           0        5.885651   -3.673644    4.554640
 ---------------------------------------------------------------------

 SCF Done:  E(RB3LYP) =  -1741.08632588     A.U. after    3 cycles

 Alpha  occ. eigenvalues --  -19.29600 -19.26770 -19.26114 -19.25652 -19.25120
 Alpha  occ. eigenvalues --  -19.24131 -19.23986 -19.23741 -19.23064 -14.54778
 Alpha  occ. eigenvalues --  -14.50024 -14.49677 -14.49657 -14.48365 -14.48229
 Alpha  occ. eigenvalues --  -14.47774 -14.47442 -10.43354 -10.43110 -10.42417
 Alpha  occ. eigenvalues --  -10.42137 -10.41874 -10.41197 -10.40939 -10.40389
 Alpha  occ. eigenvalues --  -10.38171 -10.36058 -10.35230 -10.35161 -10.34677
 Alpha  occ. eigenvalues --  -10.34628 -10.34157 -10.33418  -1.20671  -1.18317
 Alpha  occ. eigenvalues --   -1.18000  -1.17032  -1.16864  -1.15548  -1.15397
 Alpha  occ. eigenvalues --   -1.14877  -1.11671  -1.10665  -1.06563  -1.05930
 Alpha  occ. eigenvalues --   -1.05885  -1.05358  -1.04160  -1.03697  -1.03352
 Alpha  occ. eigenvalues --   -0.89760  -0.89329  -0.87944  -0.86359  -0.85053
 Alpha  occ. eigenvalues --   -0.83266  -0.81997  -0.80753  -0.74125  -0.73095
 Alpha  occ. eigenvalues --   -0.72582  -0.72082  -0.71669  -0.70848  -0.70299
 Alpha  occ. eigenvalues --   -0.70134  -0.69565  -0.69170  -0.66245  -0.66119
 Alpha  occ. eigenvalues --   -0.66023  -0.65445  -0.64513  -0.63500  -0.62662
 Alpha  occ. eigenvalues --   -0.61939  -0.61814  -0.61251  -0.60358  -0.59301
 Alpha  occ. eigenvalues --   -0.58626  -0.58395  -0.57758  -0.57375  -0.57091
 Alpha  occ. eigenvalues --   -0.56934  -0.55940  -0.55868  -0.55252  -0.54917
 Alpha  occ. eigenvalues --   -0.54649  -0.54355  -0.54058  -0.53500  -0.53217
 Alpha  occ. eigenvalues --   -0.53100  -0.52406  -0.52138  -0.51918  -0.51782
 Alpha  occ. eigenvalues --   -0.51475  -0.50811  -0.50165  -0.50038  -0.49664
 Alpha  occ. eigenvalues --   -0.48943  -0.48054  -0.47867  -0.47494  -0.42109
 Alpha  occ. eigenvalues --   -0.41939  -0.41833  -0.41011  -0.40739  -0.40669
 Alpha  occ. eigenvalues --   -0.40167  -0.39574  -0.38217  -0.37758  -0.37403
 Alpha  occ. eigenvalues --   -0.37309  -0.36989  -0.36587  -0.36493  -0.36213
 Alpha virt. eigenvalues --   -0.13750  -0.13207  -0.11732  -0.11665  -0.10586
 Alpha virt. eigenvalues --   -0.10011  -0.09832  -0.09026  -0.04816  -0.03487
 Alpha virt. eigenvalues --   -0.01703  -0.01563  -0.00540   0.00011   0.00585

 Mulliken charges:
               1
     1  N   -0.833616
     2  H    0.431562
     3  H    0.433859
     4  H    0.435969
     5  C   -0.254163
     6  H    0.226392
     7  H    0.233218
     8  C    0.590757
     9  O   -0.522147
    10  N   -0.574640
    11  H    0.389795
    12  C   -0.241349
    13  H    0.193711
    14  H    0.208028
    15  C    0.615137
    16  O   -0.539604
    17  N   -0.585705
    18  H    0.360747
    19  C   -0.224342
    20  H    0.221914
    21  H    0.209854
    22  C    0.617593
    23  O   -0.534607
    24  N   -0.609082
    25  H    0.395652
    26  C   -0.237118
    27  H    0.190196
    28  H    0.214993
    29  C    0.606741
    30  O   -0.571643
    31  N   -0.589271
    32  H    0.401349
    33  C   -0.247425
    34  H    0.213253
    35  H    0.235775
    36  C    0.629029
    37  O   -0.570597
    38  N   -0.598877
    39  H    0.401417
    40  C   -0.219904
    41  H    0.199923
    42  H    0.204991
    43  C    0.604358
    44  O   -0.579170
    45  N   -0.546432
    46  H    0.376108
    47  C   -0.247544
    48  H    0.217151
    49  H    0.213343
    50  C    0.596391
    51  O   -0.558271
    52  N   -0.600841
    53  H    0.386444
    54  C   -0.183292
    55  H    0.215940
    56  H    0.208470
    57  C    0.541868
    58  O   -0.444203
    59  O   -0.537382
    60  H    0.429297
 Sum of Mulliken charges =   1.00000

 Dipole moment (field-independent basis, Debye):
    X=             15.2004    Y=             12.3441    Z=             10.2605  Tot=             22.1067
 Quadrupole moment (field-independent basis, Debye-Ang):
   XX=           -100.5420   YY=           -123.1322   ZZ=           -144.2084
   XY=             19.1144   XZ=             43.6741   YZ=             15.0297

 Normal termination of Gaussian 16 at Tue Jul 19 19:29:17 2022.
