 Gaussian 16, Revision C.01,
 Gaussian 16:  ES64L-G16RevC.01  3-Jul-2019

 ----------------------------------------------------------------------
 # B3LYP/6-31G* empiricaldispersion=gd3bj guess=read geom=check nosymm
 integral(ultrafinegrid)
 ----------------------------------------------------------------------

 ------------------------------------------------------
 Candidate Structure: Conf:510 Charge calc in gas phase
 ------------------------------------------------------
 Structure from the checkpoint file:  "conf-510.chk"
 Charge =  1 Multiplicity = 1

                          Input orientation:
 ---------------------------------------------------------------------
 Center     Atomic      Atomic             Coordinates (Angstroms)
 Number     Number       Type             X           Y           Z
 ---------------------------------------------------------------------
      1          7           0        1.721639    0.035990   -3.903231
      2          1           0        1.709039   -0.810037   -4.551306
      3          1           0        1.733667   -0.262600   -2.915507
      4          1           0        0.848830    0.588541   -3.981752
      5          6           0        2.903423    0.901619   -4.212925
      6          1           0        2.817749    1.227015   -5.251901
      7          1           0        3.810190    0.309555   -4.108048
      8          6           0        2.841691    2.049374   -3.205473
      9          8           0        3.328430    1.947454   -2.084966
     10          7           0        2.075314    3.107958   -3.611238
     11          1           0        1.677134    3.010310   -4.537890
     12          6           0        1.155765    3.725147   -2.674124
     13          1           0        1.579931    3.635605   -1.671105
     14          1           0        1.024756    4.788944   -2.898361
     15          6           0       -0.186678    2.968633   -2.765526
     16          8           0       -0.328430    2.018939   -3.536459
     17          7           0       -1.189735    3.376028   -1.954376
     18          1           0       -1.104609    4.243967   -1.442136
     19          6           0       -2.465912    2.658220   -1.973898
     20          1           0       -2.847234    2.577707   -2.992919
     21          1           0       -3.181575    3.218344   -1.366190
     22          6           0       -2.328387    1.221980   -1.435840
     23          8           0       -2.877980    0.277303   -1.967594
     24          7           0       -1.583977    1.126273   -0.284112
     25          1           0       -1.054846    1.949012   -0.026996
     26          6           0       -1.038763   -0.146247    0.141170
     27          1           0       -1.214008   -0.312855    1.209648
     28          1           0       -1.566467   -0.920872   -0.423447
     29          6           0        0.449096   -0.180269   -0.202811
     30          8           0        0.850198    0.171982   -1.318408
     31          7           0        1.311091   -0.511926    0.777275
     32          1           0        0.973260   -0.864763    1.661174
     33          6           0        2.737738   -0.383988    0.545823
     34          1           0        3.258080   -0.595358    1.483626
     35          1           0        2.961530    0.644360    0.247407
     36          6           0        3.257436   -1.371417   -0.500222
     37          8           0        2.952390   -2.563783   -0.472900
     38          7           0        4.118713   -0.836284   -1.398947
     39          1           0        4.152109    0.175966   -1.504283
     40          6           0        4.954967   -1.663685   -2.256858
     41          1           0        5.811513   -1.075600   -2.587693
     42          1           0        5.322116   -2.510854   -1.665857
     43          6           0        4.279296   -2.222888   -3.516089
     44          8           0        4.779141   -2.089444   -4.628134
     45          7           0        3.098322   -2.875758   -3.311002
     46          1           0        2.849117   -3.076752   -2.340449
     47          6           0        2.569267   -3.722436   -4.364988
     48          1           0        3.213327   -4.595978   -4.527450
     49          1           0        1.586882   -4.084401   -4.045694
     50          6           0        2.376764   -2.973935   -5.682627
     51          8           0        1.858148   -1.845544   -5.752162
     52          7           0        2.710638   -3.653473   -6.782606
     53          1           0        3.206735   -4.537662   -6.734745
     54          6           0        2.574736   -3.094401   -8.110489
     55          1           0        1.524678   -2.905889   -8.360046
     56          1           0        3.100612   -2.135793   -8.189897
     57          6           0        3.167841   -4.084769   -9.093645
     58          8           0        3.677671   -5.134474   -8.767992
     59          8           0        3.056299   -3.646668  -10.354302
     60          1           0        3.456717   -4.321076  -10.936278
 ---------------------------------------------------------------------

 SCF Done:  E(RB3LYP) =  -1741.05408414     A.U. after    1 cycles

 Alpha  occ. eigenvalues --  -19.29251 -19.26101 -19.25329 -19.24210 -19.23939
 Alpha  occ. eigenvalues --  -19.23613 -19.22990 -19.22422 -19.21412 -14.52684
 Alpha  occ. eigenvalues --  -14.49558 -14.49203 -14.48922 -14.47243 -14.47120
 Alpha  occ. eigenvalues --  -14.46406 -14.46216 -10.42874 -10.42177 -10.42170
 Alpha  occ. eigenvalues --  -10.41096 -10.40566 -10.40117 -10.39201 -10.38836
 Alpha  occ. eigenvalues --  -10.36948 -10.36014 -10.34467 -10.34046 -10.33967
 Alpha  occ. eigenvalues --  -10.33748 -10.33526 -10.33473  -1.20447  -1.18024
 Alpha  occ. eigenvalues --   -1.16944  -1.16313  -1.15491  -1.14785  -1.13859
 Alpha  occ. eigenvalues --   -1.13433  -1.11687  -1.08712  -1.05914  -1.05378
 Alpha  occ. eigenvalues --   -1.04654  -1.03637  -1.03550  -1.02577  -1.02435
 Alpha  occ. eigenvalues --   -0.88923  -0.88226  -0.87156  -0.85689  -0.84155
 Alpha  occ. eigenvalues --   -0.82372  -0.80893  -0.79394  -0.73008  -0.72685
 Alpha  occ. eigenvalues --   -0.72159  -0.71591  -0.70485  -0.69690  -0.68926
 Alpha  occ. eigenvalues --   -0.68555  -0.68297  -0.67626  -0.65811  -0.65447
 Alpha  occ. eigenvalues --   -0.64146  -0.63144  -0.63013  -0.61667  -0.61137
 Alpha  occ. eigenvalues --   -0.60393  -0.60220  -0.59733  -0.58980  -0.58968
 Alpha  occ. eigenvalues --   -0.58688  -0.58281  -0.57951  -0.57427  -0.56253
 Alpha  occ. eigenvalues --   -0.55864  -0.55745  -0.55141  -0.54759  -0.54240
 Alpha  occ. eigenvalues --   -0.54130  -0.53725  -0.52870  -0.52400  -0.52216
 Alpha  occ. eigenvalues --   -0.51796  -0.51569  -0.51169  -0.51127  -0.50393
 Alpha  occ. eigenvalues --   -0.50260  -0.49842  -0.49054  -0.48703  -0.48405
 Alpha  occ. eigenvalues --   -0.48077  -0.47410  -0.46634  -0.45989  -0.41491
 Alpha  occ. eigenvalues --   -0.40493  -0.40012  -0.39694  -0.39210  -0.38929
 Alpha  occ. eigenvalues --   -0.38864  -0.38562  -0.38489  -0.37613  -0.36969
 Alpha  occ. eigenvalues --   -0.36710  -0.36132  -0.35627  -0.34811  -0.34513
 Alpha virt. eigenvalues --   -0.13152  -0.11173  -0.10828  -0.09897  -0.09131
 Alpha virt. eigenvalues --   -0.08692  -0.08215  -0.07736  -0.04716  -0.04221
 Alpha virt. eigenvalues --   -0.03053  -0.01293  -0.00738  -0.00355   0.00148

 Mulliken charges:
               1
     1  N   -0.815933
     2  H    0.458308
     3  H    0.426218
     4  H    0.429563
     5  C   -0.274760
     6  H    0.210521
     7  H    0.228888
     8  C    0.602112
     9  O   -0.491623
    10  N   -0.532612
    11  H    0.345851
    12  C   -0.265548
    13  H    0.222838
    14  H    0.207284
    15  C    0.633073
    16  O   -0.526801
    17  N   -0.615771
    18  H    0.352337
    19  C   -0.235301
    20  H    0.222517
    21  H    0.198787
    22  C    0.609382
    23  O   -0.476909
    24  N   -0.561145
    25  H    0.323312
    26  C   -0.230384
    27  H    0.171973
    28  H    0.234379
    29  C    0.608099
    30  O   -0.562939
    31  N   -0.562065
    32  H    0.358046
    33  C   -0.245657
    34  H    0.205146
    35  H    0.200525
    36  C    0.618145
    37  O   -0.529489
    38  N   -0.617319
    39  H    0.386100
    40  C   -0.245857
    41  H    0.199501
    42  H    0.212762
    43  C    0.574195
    44  O   -0.506015
    45  N   -0.615411
    46  H    0.387488
    47  C   -0.228638
    48  H    0.184256
    49  H    0.202881
    50  C    0.683707
    51  O   -0.586971
    52  N   -0.598226
    53  H    0.372343
    54  C   -0.184936
    55  H    0.216611
    56  H    0.216128
    57  C    0.575954
    58  O   -0.450154
    59  O   -0.552126
    60  H    0.433357
 Sum of Mulliken charges =   1.00000

 Dipole moment (field-independent basis, Debye):
    X=              7.8044    Y=              3.5291    Z=            -12.9849  Tot=             15.5554
 Quadrupole moment (field-independent basis, Debye-Ang):
   XX=           -168.1083   YY=           -132.2576   ZZ=            -73.8031
   XY=            -18.1541   XZ=            -36.8942   YZ=             17.1269

 Normal termination of Gaussian 16 at Tue Jul 19 19:28:51 2022.
