 Gaussian 16, Revision C.01,
 Gaussian 16:  ES64L-G16RevC.01  3-Jul-2019

 ----------------------------------------------------------------------
 # B3LYP/6-31G* empiricaldispersion=gd3bj guess=read geom=check nosymm
 integral(ultrafinegrid)
 ----------------------------------------------------------------------

 ------------------------------------------------------
 Candidate Structure: Conf:222 Charge calc in gas phase
 ------------------------------------------------------
 Structure from the checkpoint file:  "conf-222.chk"
 Charge =  1 Multiplicity = 1

                          Input orientation:
 ---------------------------------------------------------------------
 Center     Atomic      Atomic             Coordinates (Angstroms)
 Number     Number       Type             X           Y           Z
 ---------------------------------------------------------------------
      1          7           0        7.100457    2.991603   -0.369636
      2          1           0        7.347811    1.979638   -0.656284
      3          1           0        6.847441    3.499504   -1.241747
      4          1           0        7.901401    3.424456    0.093155
      5          6           0        5.859609    2.999891    0.455083
      6          1           0        5.924796    3.772795    1.224126
      7          1           0        5.745274    2.025363    0.935080
      8          6           0        4.713322    3.298575   -0.533184
      9          8           0        5.002082    3.539323   -1.712270
     10          7           0        3.484827    3.289254   -0.029074
     11          1           0        3.277167    3.051693    0.941262
     12          6           0        2.297301    3.582694   -0.811727
     13          1           0        2.388051    4.559109   -1.298647
     14          1           0        2.135716    2.817227   -1.578118
     15          6           0        1.121841    3.535021    0.162305
     16          8           0        1.291415    3.125770    1.315945
     17          7           0       -0.065440    3.959194   -0.316258
     18          1           0       -0.149807    4.068294   -1.320053
     19          6           0       -1.309575    3.663415    0.402625
     20          1           0       -2.094534    4.326670    0.040788
     21          1           0       -1.136238    3.837320    1.466126
     22          6           0       -1.695531    2.211216    0.098114
     23          8           0       -2.506045    1.918423   -0.766476
     24          7           0       -0.972835    1.279841    0.800428
     25          1           0       -0.176127    1.632995    1.321252
     26          6           0       -0.839385   -0.029695    0.211114
     27          1           0       -0.304351   -0.684532    0.906614
     28          1           0       -1.831990   -0.453897    0.036548
     29          6           0       -0.061958    0.030152   -1.115713
     30          8           0        0.613914    0.998376   -1.448248
     31          7           0       -0.196703   -1.076502   -1.896718
     32          1           0       -0.685648   -1.878351   -1.522986
     33          6           0        0.601672   -1.252929   -3.080861
     34          1           0        0.717490   -0.271828   -3.553896
     35          1           0        0.080713   -1.910138   -3.783851
     36          6           0        2.004419   -1.783978   -2.759368
     37          8           0        2.509659   -1.664860   -1.642487
     38          7           0        2.667654   -2.350596   -3.797600
     39          1           0        2.225377   -2.403400   -4.705017
     40          6           0        3.985030   -2.953086   -3.638744
     41          1           0        3.996868   -3.516287   -2.698311
     42          1           0        4.164102   -3.644076   -4.462048
     43          6           0        5.154113   -1.963967   -3.621789
     44          8           0        6.155874   -2.148775   -4.316951
     45          7           0        5.026472   -0.914739   -2.773083
     46          1           0        4.234607   -0.914030   -2.130192
     47          6           0        6.013279    0.151472   -2.737223
     48          1           0        6.328016    0.367728   -3.764644
     49          1           0        5.552280    1.050726   -2.325979
     50          6           0        7.264757   -0.189574   -1.922966
     51          8           0        7.661202    0.508096   -0.962121
     52          7           0        7.930073   -1.279524   -2.304920
     53          1           0        7.600618   -1.755480   -3.148265
     54          6           0        9.173732   -1.657422   -1.662752
     55          1           0        9.043025   -1.732897   -0.581565
     56          1           0        9.469613   -2.640691   -2.038979
     57          6           0       10.330183   -0.692213   -1.907310
     58          8           0       11.288128   -0.606147   -1.180029
     59          8           0       10.180413    0.015203   -3.049273
     60          1           0       10.991596    0.549680   -3.146864
 ---------------------------------------------------------------------

 SCF Done:  E(RB3LYP) =  -1741.03868856     A.U. after    1 cycles

 Alpha  occ. eigenvalues --  -19.28905 -19.25983 -19.25657 -19.23389 -19.23228
 Alpha  occ. eigenvalues --  -19.23099 -19.22876 -19.21431 -19.19682 -14.56261
 Alpha  occ. eigenvalues --  -14.49181 -14.48138 -14.47654 -14.47115 -14.47105
 Alpha  occ. eigenvalues --  -14.46201 -14.43549 -10.43112 -10.41556 -10.41393
 Alpha  occ. eigenvalues --  -10.40337 -10.40241 -10.40034 -10.39124 -10.38402
 Alpha  occ. eigenvalues --  -10.36660 -10.34729 -10.34125 -10.34009 -10.33745
 Alpha  occ. eigenvalues --  -10.33719 -10.31709 -10.31634  -1.19767  -1.18172
 Alpha  occ. eigenvalues --   -1.16703  -1.15484  -1.15283  -1.14616  -1.13287
 Alpha  occ. eigenvalues --   -1.11473  -1.11228  -1.10752  -1.05699  -1.04600
 Alpha  occ. eigenvalues --   -1.04120  -1.03279  -1.03047  -1.02499  -1.00304
 Alpha  occ. eigenvalues --   -0.89362  -0.88351  -0.86450  -0.85315  -0.83786
 Alpha  occ. eigenvalues --   -0.81998  -0.80601  -0.77952  -0.73303  -0.72377
 Alpha  occ. eigenvalues --   -0.72119  -0.71381  -0.71115  -0.69610  -0.69370
 Alpha  occ. eigenvalues --   -0.68777  -0.68475  -0.66545  -0.65566  -0.65168
 Alpha  occ. eigenvalues --   -0.64824  -0.63344  -0.62291  -0.61742  -0.60739
 Alpha  occ. eigenvalues --   -0.60420  -0.59869  -0.59189  -0.58852  -0.58609
 Alpha  occ. eigenvalues --   -0.58073  -0.57379  -0.57358  -0.57193  -0.56028
 Alpha  occ. eigenvalues --   -0.55719  -0.55533  -0.54618  -0.53794  -0.53575
 Alpha  occ. eigenvalues --   -0.53440  -0.53183  -0.52722  -0.52103  -0.51890
 Alpha  occ. eigenvalues --   -0.51334  -0.50958  -0.50642  -0.50418  -0.49616
 Alpha  occ. eigenvalues --   -0.48958  -0.48824  -0.48270  -0.48069  -0.47964
 Alpha  occ. eigenvalues --   -0.47523  -0.47361  -0.45793  -0.44710  -0.41051
 Alpha  occ. eigenvalues --   -0.40774  -0.40700  -0.39655  -0.39263  -0.39184
 Alpha  occ. eigenvalues --   -0.37876  -0.37797  -0.37277  -0.36483  -0.36117
 Alpha  occ. eigenvalues --   -0.35895  -0.35645  -0.35021  -0.33737  -0.32512
 Alpha virt. eigenvalues --   -0.11505  -0.11247  -0.09808  -0.09307  -0.08701
 Alpha virt. eigenvalues --   -0.08169  -0.07866  -0.06909  -0.05721  -0.03554
 Alpha virt. eigenvalues --   -0.03113  -0.01922  -0.01425  -0.01244  -0.00959

 Mulliken charges:
               1
     1  N   -0.776734
     2  H    0.460815
     3  H    0.410849
     4  H    0.401901
     5  C   -0.273314
     6  H    0.232654
     7  H    0.234715
     8  C    0.633486
     9  O   -0.530505
    10  N   -0.607833
    11  H    0.373826
    12  C   -0.209787
    13  H    0.202611
    14  H    0.238842
    15  C    0.630914
    16  O   -0.550839
    17  N   -0.576012
    18  H    0.355698
    19  C   -0.250468
    20  H    0.200042
    21  H    0.205240
    22  C    0.591413
    23  O   -0.494891
    24  N   -0.567805
    25  H    0.363443
    26  C   -0.260564
    27  H    0.191520
    28  H    0.205387
    29  C    0.645202
    30  O   -0.547103
    31  N   -0.570698
    32  H    0.346305
    33  C   -0.245927
    34  H    0.219873
    35  H    0.181271
    36  C    0.619474
    37  O   -0.531125
    38  N   -0.582041
    39  H    0.352934
    40  C   -0.241180
    41  H    0.212791
    42  H    0.204900
    43  C    0.603361
    44  O   -0.525403
    45  N   -0.589096
    46  H    0.386826
    47  C   -0.257358
    48  H    0.218649
    49  H    0.176812
    50  C    0.634819
    51  O   -0.598095
    52  N   -0.566816
    53  H    0.401956
    54  C   -0.226902
    55  H    0.216803
    56  H    0.213958
    57  C    0.587045
    58  O   -0.436392
    59  O   -0.562441
    60  H    0.422997
 Sum of Mulliken charges =   1.00000

 Dipole moment (field-independent basis, Debye):
    X=             22.0094    Y=              5.1256    Z=             -6.7267  Tot=             23.5783
 Quadrupole moment (field-independent basis, Debye-Ang):
   XX=            -47.4697   YY=           -126.5402   ZZ=           -158.2057
   XY=             47.0772   XZ=            -27.8834   YZ=             18.1058

 Normal termination of Gaussian 16 at Tue Jul 19 19:28:51 2022.
