 Gaussian 16, Revision C.01,
 Gaussian 16:  ES64L-G16RevC.01  3-Jul-2019

 ----------------------------------------------------------------------
 # B3LYP/6-31G* empiricaldispersion=gd3bj guess=read geom=check nosymm
 integral(ultrafinegrid)
 ----------------------------------------------------------------------

 ------------------------------------------------------
 Candidate Structure: Conf:617 Charge calc in gas phase
 ------------------------------------------------------
 Structure from the checkpoint file:  "conf-617.chk"
 Charge =  1 Multiplicity = 1

                          Input orientation:
 ---------------------------------------------------------------------
 Center     Atomic      Atomic             Coordinates (Angstroms)
 Number     Number       Type             X           Y           Z
 ---------------------------------------------------------------------
      1          7           0       -1.278825    2.934568   -1.881958
      2          1           0       -2.144224    2.936296   -2.425477
      3          1           0       -1.342087    2.269022   -1.065267
      4          1           0       -1.079501    3.868958   -1.490664
      5          6           0       -0.071868    2.531821   -2.671360
      6          1           0       -0.068085    3.069362   -3.622670
      7          1           0       -0.088408    1.451861   -2.829589
      8          6           0        1.102470    2.958439   -1.783906
      9          8           0        0.946285    3.923667   -1.029686
     10          7           0        2.213990    2.205558   -1.871278
     11          1           0        2.080222    1.274799   -2.276790
     12          6           0        3.201953    2.279195   -0.783126
     13          1           0        4.170693    1.912590   -1.115752
     14          1           0        3.298379    3.315196   -0.459681
     15          6           0        2.633382    1.344027    0.283204
     16          8           0        2.838311    0.135848    0.235598
     17          7           0        1.731572    1.918438    1.131341
     18          1           0        1.481311    2.882505    0.942485
     19          6           0        0.718344    1.082269    1.777681
     20          1           0        0.086766    1.721702    2.395898
     21          1           0        1.204824    0.330380    2.400824
     22          6           0       -0.120330    0.429970    0.673274
     23          8           0       -0.914939    1.095614   -0.017473
     24          7           0        0.129702   -0.867635    0.460728
     25          1           0        0.881804   -1.287234    1.010343
     26          6           0       -0.216006   -1.526252   -0.790780
     27          1           0       -0.453402   -2.570956   -0.589475
     28          1           0       -1.076099   -1.019821   -1.226257
     29          6           0        0.979425   -1.388579   -1.744788
     30          8           0        1.122796   -0.382456   -2.459655
     31          7           0        1.853076   -2.410165   -1.705668
     32          1           0        1.692835   -3.160675   -1.031692
     33          6           0        3.099528   -2.395182   -2.452453
     34          1           0        3.025085   -1.606616   -3.202097
     35          1           0        3.229503   -3.354846   -2.961893
     36          6           0        4.297261   -2.211954   -1.517657
     37          8           0        4.599479   -3.098258   -0.710800
     38          7           0        4.991882   -1.061076   -1.655187
     39          1           0        4.567918   -0.325303   -2.200835
     40          6           0        6.115181   -0.695592   -0.789793
     41          1           0        6.791626   -1.553132   -0.731743
     42          1           0        6.643633    0.141612   -1.245552
     43          6           0        5.644750   -0.269388    0.616543
     44          8           0        5.565742    0.901699    0.957116
     45          7           0        5.322545   -1.344865    1.392000
     46          1           0        5.272901   -2.218681    0.870652
     47          6           0        4.458735   -1.246824    2.566157
     48          1           0        5.017347   -1.452314    3.488770
     49          1           0        4.041707   -0.242767    2.622800
     50          6           0        3.330614   -2.263404    2.378259
     51          8           0        2.148920   -1.955456    2.224328
     52          7           0        3.746573   -3.558090    2.335853
     53          1           0        4.733564   -3.737871    2.470462
     54          6           0        3.029028   -4.617080    1.629500
     55          1           0        3.403652   -4.684203    0.604711
     56          1           0        3.199036   -5.563155    2.151502
     57          6           0        1.528663   -4.386072    1.550625
     58          8           0        0.939175   -4.128800    0.513354
     59          8           0        0.912168   -4.617570    2.710127
     60          1           0       -0.041583   -4.456705    2.578814
 ---------------------------------------------------------------------

 SCF Done:  E(RB3LYP) =  -1741.05774118     A.U. after    1 cycles

 Alpha  occ. eigenvalues --  -19.30134 -19.25722 -19.25192 -19.24160 -19.23530
 Alpha  occ. eigenvalues --  -19.23419 -19.23198 -19.22500 -19.20434 -14.57494
 Alpha  occ. eigenvalues --  -14.48750 -14.47873 -14.47667 -14.47269 -14.47044
 Alpha  occ. eigenvalues --  -14.46980 -14.44549 -10.43707 -10.42696 -10.40699
 Alpha  occ. eigenvalues --  -10.40425 -10.40319 -10.40188 -10.39674 -10.38026
 Alpha  occ. eigenvalues --  -10.37666 -10.33851 -10.33747 -10.33645 -10.33386
 Alpha  occ. eigenvalues --  -10.33174 -10.32729 -10.32278  -1.21574  -1.18053
 Alpha  occ. eigenvalues --   -1.15791  -1.15146  -1.15005  -1.14524  -1.14426
 Alpha  occ. eigenvalues --   -1.12458  -1.12072  -1.11943  -1.05460  -1.04224
 Alpha  occ. eigenvalues --   -1.03887  -1.03662  -1.03191  -1.02932  -1.01048
 Alpha  occ. eigenvalues --   -0.89028  -0.87718  -0.86931  -0.85363  -0.83648
 Alpha  occ. eigenvalues --   -0.82038  -0.80129  -0.78766  -0.73703  -0.73030
 Alpha  occ. eigenvalues --   -0.72069  -0.71444  -0.70377  -0.69789  -0.69383
 Alpha  occ. eigenvalues --   -0.69072  -0.68163  -0.67132  -0.65383  -0.65283
 Alpha  occ. eigenvalues --   -0.64594  -0.63589  -0.62174  -0.61380  -0.61145
 Alpha  occ. eigenvalues --   -0.60521  -0.60005  -0.59913  -0.59368  -0.59166
 Alpha  occ. eigenvalues --   -0.58615  -0.57504  -0.57354  -0.57228  -0.56597
 Alpha  occ. eigenvalues --   -0.56251  -0.55702  -0.55288  -0.54447  -0.53852
 Alpha  occ. eigenvalues --   -0.53258  -0.52917  -0.52210  -0.52005  -0.51481
 Alpha  occ. eigenvalues --   -0.51078  -0.50694  -0.50617  -0.50148  -0.49830
 Alpha  occ. eigenvalues --   -0.49431  -0.49126  -0.48849  -0.48712  -0.48375
 Alpha  occ. eigenvalues --   -0.48168  -0.47727  -0.47316  -0.45517  -0.42508
 Alpha  occ. eigenvalues --   -0.40618  -0.40214  -0.39740  -0.39492  -0.39047
 Alpha  occ. eigenvalues --   -0.38810  -0.38345  -0.38057  -0.36934  -0.36268
 Alpha  occ. eigenvalues --   -0.36125  -0.35678  -0.34515  -0.33937  -0.33220
 Alpha virt. eigenvalues --   -0.12725  -0.11666  -0.10833  -0.09798  -0.09359
 Alpha virt. eigenvalues --   -0.09087  -0.07774  -0.07520  -0.06055  -0.04252
 Alpha virt. eigenvalues --   -0.02241  -0.01832  -0.01165  -0.00443   0.00485

 Mulliken charges:
               1
     1  N   -0.750966
     2  H    0.405203
     3  H    0.456528
     4  H    0.413347
     5  C   -0.299979
     6  H    0.232342
     7  H    0.259516
     8  C    0.622003
     9  O   -0.532399
    10  N   -0.597975
    11  H    0.392090
    12  C   -0.248533
    13  H    0.192621
    14  H    0.214487
    15  C    0.627078
    16  O   -0.540401
    17  N   -0.575175
    18  H    0.363014
    19  C   -0.242200
    20  H    0.191753
    21  H    0.217163
    22  C    0.604009
    23  O   -0.600241
    24  N   -0.577980
    25  H    0.434865
    26  C   -0.245399
    27  H    0.208969
    28  H    0.190426
    29  C    0.621151
    30  O   -0.569275
    31  N   -0.585760
    32  H    0.396598
    33  C   -0.236627
    34  H    0.186110
    35  H    0.204955
    36  C    0.638800
    37  O   -0.543710
    38  N   -0.562824
    39  H    0.344633
    40  C   -0.261674
    41  H    0.201805
    42  H    0.194132
    43  C    0.632305
    44  O   -0.515535
    45  N   -0.616797
    46  H    0.373429
    47  C   -0.199757
    48  H    0.184957
    49  H    0.213934
    50  C    0.599456
    51  O   -0.530857
    52  N   -0.577512
    53  H    0.352139
    54  C   -0.187232
    55  H    0.217927
    56  H    0.202757
    57  C    0.594282
    58  O   -0.489206
    59  O   -0.522958
    60  H    0.426190
 Sum of Mulliken charges =   1.00000

 Dipole moment (field-independent basis, Debye):
    X=              4.4728    Y=             -0.3921    Z=             -4.6976  Tot=              6.4982
 Quadrupole moment (field-independent basis, Debye-Ang):
   XX=           -139.4800   YY=           -136.3787   ZZ=           -153.5693
   XY=            -34.9474   XZ=              3.4520   YZ=            -27.7075

 Normal termination of Gaussian 16 at Tue Jul 19 19:28:57 2022.
