 Gaussian 16, Revision C.01,
 Gaussian 16:  ES64L-G16RevC.01  3-Jul-2019

 ----------------------------------------------------------------------
 # B3LYP/6-31G* empiricaldispersion=gd3bj guess=read geom=check nosymm
 integral(ultrafinegrid)
 ----------------------------------------------------------------------

 ------------------------------------------------------
 Candidate Structure: Conf:315 Charge calc in gas phase
 ------------------------------------------------------
 Structure from the checkpoint file:  "conf-315.chk"
 Charge =  1 Multiplicity = 1

                          Input orientation:
 ---------------------------------------------------------------------
 Center     Atomic      Atomic             Coordinates (Angstroms)
 Number     Number       Type             X           Y           Z
 ---------------------------------------------------------------------
      1          7           0       -1.467008   -0.961828    1.376198
      2          1           0       -1.522361   -1.964075    1.187140
      3          1           0       -1.720421   -0.463984    0.498398
      4          1           0       -0.451998   -0.719598    1.562364
      5          6           0       -2.368447   -0.524358    2.475712
      6          1           0       -1.752980   -0.112642    3.276580
      7          1           0       -2.936303   -1.377094    2.855974
      8          6           0       -3.298186    0.558683    1.907369
      9          8           0       -3.295386    0.806388    0.708083
     10          7           0       -4.057575    1.231510    2.804036
     11          1           0       -4.070681    0.947688    3.774343
     12          6           0       -4.779130    2.436288    2.387641
     13          1           0       -5.438153    2.218933    1.546249
     14          1           0       -5.377932    2.786108    3.232275
     15          6           0       -3.792691    3.524308    1.920291
     16          8           0       -3.949312    4.147428    0.886930
     17          7           0       -2.710531    3.714927    2.756714
     18          1           0       -2.556728    2.976177    3.431469
     19          6           0       -1.472530    4.194431    2.149960
     20          1           0       -0.750587    4.415429    2.939215
     21          1           0       -1.682181    5.105720    1.589152
     22          6           0       -0.959638    3.046347    1.273388
     23          8           0       -0.750486    1.938971    1.772391
     24          7           0       -0.833369    3.297308   -0.058492
     25          1           0       -1.222311    4.176455   -0.378061
     26          6           0       -0.905129    2.205260   -1.031743
     27          1           0       -1.916578    1.794753   -1.071436
     28          1           0       -0.651863    2.613367   -2.015302
     29          6           0        0.028653    1.036189   -0.741196
     30          8           0       -0.349987   -0.119953   -0.933618
     31          7           0        1.289533    1.339389   -0.346283
     32          1           0        1.485572    2.296438   -0.084182
     33          6           0        2.220269    0.301293    0.048445
     34          1           0        3.234847    0.605491   -0.222785
     35          1           0        1.963989   -0.595278   -0.521642
     36          6           0        2.134887   -0.055003    1.538124
     37          8           0        1.102705   -0.486492    2.078395
     38          7           0        3.269409    0.104178    2.229669
     39          1           0        4.130398    0.445215    1.807965
     40          6           0        3.402373   -0.238132    3.628318
     41          1           0        2.731453    0.373704    4.243661
     42          1           0        3.130668   -1.287590    3.796253
     43          6           0        4.864784    0.012098    4.013531
     44          8           0        5.657537    0.467921    3.184096
     45          7           0        5.196733   -0.278899    5.284308
     46          1           0        4.525242   -0.752648    5.873752
     47          6           0        6.553504   -0.099606    5.802659
     48          1           0        6.952436    0.829961    5.386375
     49          1           0        6.502301   -0.015417    6.887707
     50          6           0        7.492637   -1.272935    5.473670
     51          8           0        7.967123   -1.974512    6.352856
     52          7           0        7.710291   -1.455124    4.138447
     53          1           0        7.385000   -0.730482    3.507771
     54          6           0        8.702580   -2.396518    3.675227
     55          1           0        8.843032   -3.143566    4.461746
     56          1           0        8.361884   -2.918183    2.776142
     57          6           0       10.072479   -1.804120    3.366399
     58          8           0       10.945294   -2.413842    2.796547
     59          8           0       10.206619   -0.532933    3.807027
     60          1           0       11.120964   -0.267981    3.590569
 ---------------------------------------------------------------------

 SCF Done:  E(RB3LYP) =  -1741.02629665     A.U. after    3 cycles

 Alpha  occ. eigenvalues --  -19.26043 -19.25980 -19.25037 -19.24384 -19.23882
 Alpha  occ. eigenvalues --  -19.23526 -19.22906 -19.19838 -19.18915 -14.54956
 Alpha  occ. eigenvalues --  -14.50398 -14.48844 -14.48769 -14.48304 -14.48029
 Alpha  occ. eigenvalues --  -14.47097 -14.43130 -10.43317 -10.41792 -10.41229
 Alpha  occ. eigenvalues --  -10.41055 -10.40986 -10.39933 -10.38532 -10.38288
 Alpha  occ. eigenvalues --  -10.36256 -10.35187 -10.35074 -10.34889 -10.34375
 Alpha  occ. eigenvalues --  -10.34275 -10.31988 -10.30059  -1.18443  -1.16839
 Alpha  occ. eigenvalues --   -1.16767  -1.16396  -1.15655  -1.15267  -1.14665
 Alpha  occ. eigenvalues --   -1.10876  -1.10282  -1.07715  -1.06500  -1.05238
 Alpha  occ. eigenvalues --   -1.04958  -1.04019  -1.03900  -1.03331  -0.99663
 Alpha  occ. eigenvalues --   -0.89409  -0.88860  -0.87064  -0.85026  -0.83576
 Alpha  occ. eigenvalues --   -0.81965  -0.80447  -0.78943  -0.73294  -0.72818
 Alpha  occ. eigenvalues --   -0.71806  -0.70666  -0.70598  -0.70172  -0.69161
 Alpha  occ. eigenvalues --   -0.68822  -0.68369  -0.66675  -0.65698  -0.65649
 Alpha  occ. eigenvalues --   -0.65070  -0.62632  -0.62265  -0.61828  -0.61173
 Alpha  occ. eigenvalues --   -0.60813  -0.60396  -0.59892  -0.59466  -0.59082
 Alpha  occ. eigenvalues --   -0.58854  -0.57565  -0.56742  -0.56332  -0.55932
 Alpha  occ. eigenvalues --   -0.55810  -0.54418  -0.54161  -0.54056  -0.53720
 Alpha  occ. eigenvalues --   -0.53510  -0.52735  -0.52521  -0.52119  -0.51996
 Alpha  occ. eigenvalues --   -0.51798  -0.51044  -0.50516  -0.50071  -0.50014
 Alpha  occ. eigenvalues --   -0.49891  -0.49414  -0.48319  -0.48129  -0.47589
 Alpha  occ. eigenvalues --   -0.47462  -0.46288  -0.45201  -0.44621  -0.40940
 Alpha  occ. eigenvalues --   -0.40816  -0.40456  -0.39419  -0.39171  -0.38907
 Alpha  occ. eigenvalues --   -0.38337  -0.37837  -0.37758  -0.37430  -0.36539
 Alpha  occ. eigenvalues --   -0.36225  -0.35570  -0.35548  -0.32232  -0.31604
 Alpha virt. eigenvalues --   -0.12396  -0.11598  -0.10888  -0.09741  -0.09443
 Alpha virt. eigenvalues --   -0.09040  -0.06869  -0.05868  -0.05703  -0.04940
 Alpha virt. eigenvalues --   -0.03276  -0.02622  -0.01873  -0.01150  -0.00064

 Mulliken charges:
               1
     1  N   -0.790543
     2  H    0.393804
     3  H    0.439725
     4  H    0.474462
     5  C   -0.251092
     6  H    0.228257
     7  H    0.217960
     8  C    0.640956
     9  O   -0.498540
    10  N   -0.614057
    11  H    0.350261
    12  C   -0.232017
    13  H    0.230112
    14  H    0.203373
    15  C    0.591104
    16  O   -0.479768
    17  N   -0.545671
    18  H    0.323578
    19  C   -0.237290
    20  H    0.193155
    21  H    0.200673
    22  C    0.599875
    23  O   -0.555213
    24  N   -0.596077
    25  H    0.364455
    26  C   -0.236776
    27  H    0.237138
    28  H    0.204693
    29  C    0.623496
    30  O   -0.557891
    31  N   -0.550342
    32  H    0.349113
    33  C   -0.251511
    34  H    0.182393
    35  H    0.225581
    36  C    0.652921
    37  O   -0.570451
    38  N   -0.598419
    39  H    0.373132
    40  C   -0.199250
    41  H    0.200285
    42  H    0.201000
    43  C    0.617331
    44  O   -0.540195
    45  N   -0.586897
    46  H    0.350573
    47  C   -0.251427
    48  H    0.207887
    49  H    0.199078
    50  C    0.596901
    51  O   -0.486706
    52  N   -0.590362
    53  H    0.362203
    54  C   -0.236777
    55  H    0.233482
    56  H    0.190722
    57  C    0.580895
    58  O   -0.443335
    59  O   -0.560143
    60  H    0.420174
 Sum of Mulliken charges =   1.00000

 Dipole moment (field-independent basis, Debye):
    X=             -2.4270    Y=              4.9340    Z=             12.5779  Tot=             13.7273
 Quadrupole moment (field-independent basis, Debye-Ang):
   XX=           -162.2676   YY=           -167.3829   ZZ=           -138.7634
   XY=             26.3252   XZ=            -22.8353   YZ=             10.9974

 Normal termination of Gaussian 16 at Tue Jul 19 19:29:05 2022.
