 Gaussian 16, Revision C.01,
 Gaussian 16:  ES64L-G16RevC.01  3-Jul-2019

 ----------------------------------------------------------------------
 # B3LYP/6-31G* empiricaldispersion=gd3bj guess=read geom=check nosymm
 integral(ultrafinegrid)
 ----------------------------------------------------------------------

 ------------------------------------------------------
 Candidate Structure: Conf:302 Charge calc in gas phase
 ------------------------------------------------------
 Structure from the checkpoint file:  "conf-302.chk"
 Charge =  1 Multiplicity = 1

                          Input orientation:
 ---------------------------------------------------------------------
 Center     Atomic      Atomic             Coordinates (Angstroms)
 Number     Number       Type             X           Y           Z
 ---------------------------------------------------------------------
      1          7           0       -2.255754    9.391138   -4.420038
      2          1           0       -2.269891    9.624809   -5.416251
      3          1           0       -2.801945    8.479798   -4.243761
      4          1           0       -2.681902   10.163009   -3.900442
      5          6           0       -0.896441    9.000605   -3.911116
      6          1           0       -0.601439    9.663431   -3.096302
      7          1           0       -0.164959    9.073018   -4.717358
      8          6           0       -1.098627    7.538351   -3.433852
      9          8           0       -2.234669    7.058337   -3.573937
     10          7           0       -0.047527    6.929864   -2.919763
     11          1           0        0.876729    7.364345   -2.811615
     12          6           0       -0.052435    5.569135   -2.408720
     13          1           0       -0.805652    5.453839   -1.622152
     14          1           0       -0.285627    4.855570   -3.206609
     15          6           0        1.370699    5.344230   -1.862352
     16          8           0        2.209442    6.243736   -1.968814
     17          7           0        1.591041    4.157632   -1.294282
     18          1           0        0.875583    3.437832   -1.216637
     19          6           0        2.869173    3.776433   -0.727749
     20          1           0        3.230262    4.549934   -0.041905
     21          1           0        3.615909    3.625575   -1.514842
     22          6           0        2.656834    2.445010   -0.014894
     23          8           0        1.584156    1.841566   -0.111188
     24          7           0        3.699475    1.996754    0.720069
     25          1           0        4.600905    2.434366    0.571611
     26          6           0        3.719045    0.623350    1.225258
     27          1           0        4.449391    0.548713    2.030306
     28          1           0        2.723165    0.388369    1.605905
     29          6           0        4.136554   -0.313777    0.088076
     30          8           0        5.293924   -0.723268    0.016753
     31          7           0        3.153493   -0.571352   -0.812911
     32          1           0        2.307192   -0.021540   -0.688304
     33          6           0        3.473418   -0.937227   -2.173862
     34          1           0        2.647970   -1.509237   -2.609464
     35          1           0        4.360939   -1.572723   -2.169718
     36          6           0        3.770475    0.313466   -3.020025
     37          8           0        3.836047    1.433367   -2.519965
     38          7           0        3.918592    0.068058   -4.346804
     39          1           0        4.055645   -0.894891   -4.642303
     40          6           0        4.624081    1.011460   -5.195342
     41          1           0        3.968397    1.397911   -5.986890
     42          1           0        4.949851    1.851130   -4.577874
     43          6           0        5.795158    0.276691   -5.847586
     44          8           0        5.696564   -0.918817   -6.129920
     45          7           0        6.890004    1.026634   -6.125654
     46          1           0        6.986218    1.900211   -5.623760
     47          6           0        8.144391    0.392243   -6.541241
     48          1           0        7.907760   -0.372870   -7.283191
     49          1           0        8.793941    1.147781   -6.983306
     50          6           0        8.827258   -0.190964   -5.295892
     51          8           0        9.673671    0.432046   -4.673146
     52          7           0        8.337042   -1.415999   -4.925286
     53          1           0        7.483848   -1.695094   -5.402665
     54          6           0        8.453973   -1.829103   -3.546091
     55          1           0        8.459380   -2.919014   -3.459226
     56          1           0        9.403413   -1.455556   -3.151959
     57          6           0        7.318639   -1.256598   -2.700798
     58          8           0        6.586337   -0.355501   -3.073623
     59          8           0        7.220694   -1.863942   -1.521867
     60          1           0        6.493452   -1.435371   -0.996633
 ---------------------------------------------------------------------

 SCF Done:  E(RB3LYP) =  -1741.01854600     A.U. after    2 cycles

 Alpha  occ. eigenvalues --  -19.29101 -19.23269 -19.23161 -19.22137 -19.20646
 Alpha  occ. eigenvalues --  -19.19360 -19.19285 -19.18925 -19.16549 -14.62464
 Alpha  occ. eigenvalues --  -14.51428 -14.46797 -14.46068 -14.43780 -14.43643
 Alpha  occ. eigenvalues --  -14.42807 -14.40335 -10.45879 -10.42949 -10.40510
 Alpha  occ. eigenvalues --  -10.39115 -10.37288 -10.36919 -10.36441 -10.36216
 Alpha  occ. eigenvalues --  -10.35937 -10.33640 -10.32386 -10.31291 -10.30321
 Alpha  occ. eigenvalues --  -10.29998 -10.28769 -10.27866  -1.21607  -1.16155
 Alpha  occ. eigenvalues --   -1.15315  -1.14935  -1.14010  -1.12119  -1.11501
 Alpha  occ. eigenvalues --   -1.10627  -1.08406  -1.08022  -1.05992  -1.03385
 Alpha  occ. eigenvalues --   -1.02287  -1.00343  -0.99784  -0.99448  -0.97134
 Alpha  occ. eigenvalues --   -0.92492  -0.87333  -0.84808  -0.83295  -0.81376
 Alpha  occ. eigenvalues --   -0.79725  -0.77746  -0.76426  -0.76299  -0.75302
 Alpha  occ. eigenvalues --   -0.73983  -0.70286  -0.68708  -0.68233  -0.67542
 Alpha  occ. eigenvalues --   -0.66006  -0.65833  -0.65272  -0.64963  -0.63257
 Alpha  occ. eigenvalues --   -0.62972  -0.62787  -0.61908  -0.60545  -0.59921
 Alpha  occ. eigenvalues --   -0.59606  -0.58369  -0.57886  -0.57372  -0.56522
 Alpha  occ. eigenvalues --   -0.56347  -0.56236  -0.55350  -0.54766  -0.54569
 Alpha  occ. eigenvalues --   -0.54223  -0.53330  -0.53181  -0.53074  -0.51932
 Alpha  occ. eigenvalues --   -0.51142  -0.51020  -0.50657  -0.49976  -0.49468
 Alpha  occ. eigenvalues --   -0.49069  -0.48841  -0.48583  -0.47839  -0.46910
 Alpha  occ. eigenvalues --   -0.46636  -0.46106  -0.45479  -0.45306  -0.44446
 Alpha  occ. eigenvalues --   -0.44215  -0.44076  -0.42799  -0.42571  -0.41802
 Alpha  occ. eigenvalues --   -0.41399  -0.38123  -0.37499  -0.36496  -0.36145
 Alpha  occ. eigenvalues --   -0.36129  -0.35153  -0.34539  -0.34070  -0.33327
 Alpha  occ. eigenvalues --   -0.33057  -0.32812  -0.31996  -0.30821  -0.29300
 Alpha virt. eigenvalues --   -0.14124  -0.13669  -0.08863  -0.08359  -0.07954
 Alpha virt. eigenvalues --   -0.06619  -0.05983  -0.05835  -0.04542  -0.03970
 Alpha virt. eigenvalues --   -0.03126  -0.02432  -0.02235  -0.00534   0.00065

 Mulliken charges:
               1
     1  N   -0.750661
     2  H    0.424077
     3  H    0.441528
     4  H    0.424332
     5  C   -0.276953
     6  H    0.250400
     7  H    0.250187
     8  C    0.640285
     9  O   -0.524484
    10  N   -0.604874
    11  H    0.382184
    12  C   -0.212618
    13  H    0.215338
    14  H    0.216025
    15  C    0.623318
    16  O   -0.535125
    17  N   -0.622481
    18  H    0.367654
    19  C   -0.200284
    20  H    0.197460
    21  H    0.235606
    22  C    0.636493
    23  O   -0.552769
    24  N   -0.580835
    25  H    0.355861
    26  C   -0.250600
    27  H    0.200114
    28  H    0.205988
    29  C    0.611697
    30  O   -0.523890
    31  N   -0.558803
    32  H    0.369902
    33  C   -0.266107
    34  H    0.185924
    35  H    0.210183
    36  C    0.635132
    37  O   -0.543923
    38  N   -0.581004
    39  H    0.352625
    40  C   -0.212762
    41  H    0.180965
    42  H    0.187268
    43  C    0.633681
    44  O   -0.544152
    45  N   -0.576079
    46  H    0.345130
    47  C   -0.245386
    48  H    0.196414
    49  H    0.186506
    50  C    0.585631
    51  O   -0.499852
    52  N   -0.567621
    53  H    0.361114
    54  C   -0.242558
    55  H    0.190295
    56  H    0.226223
    57  C    0.580243
    58  O   -0.499962
    59  O   -0.595360
    60  H    0.463361
 Sum of Mulliken charges =   1.00000

 Dipole moment (field-independent basis, Debye):
    X=             -4.6924    Y=             36.9208    Z=            -17.9235  Tot=             41.3088
 Quadrupole moment (field-independent basis, Debye-Ang):
   XX=           -192.4771   YY=            161.3187   ZZ=            -92.3077
   XY=            -61.5074   XZ=             22.9440   YZ=           -154.6969

 Normal termination of Gaussian 16 at Tue Jul 19 19:28:57 2022.
