 Gaussian 16, Revision C.01,
 Gaussian 16:  ES64L-G16RevC.01  3-Jul-2019

 ----------------------------------------------------------------------
 # B3LYP/6-31G* empiricaldispersion=gd3bj guess=read geom=check nosymm
 integral(ultrafinegrid)
 ----------------------------------------------------------------------

 ------------------------------------------------------
 Candidate Structure: Conf:472 Charge calc in gas phase
 ------------------------------------------------------
 Structure from the checkpoint file:  "conf-472.chk"
 Charge =  1 Multiplicity = 1

                          Input orientation:
 ---------------------------------------------------------------------
 Center     Atomic      Atomic             Coordinates (Angstroms)
 Number     Number       Type             X           Y           Z
 ---------------------------------------------------------------------
      1          7           0        0.552990    9.061414    2.076962
      2          1           0       -0.134128    9.813160    2.178317
      3          1           0        0.176370    8.300389    1.446202
      4          1           0        0.668812    8.596415    3.014588
      5          6           0        1.866464    9.551324    1.523991
      6          1           0        2.376541   10.142082    2.284102
      7          1           0        1.664536   10.161255    0.640854
      8          6           0        2.639321    8.262807    1.227264
      9          8           0        3.248007    7.695924    2.121478
     10          7           0        2.436871    7.734595   -0.015580
     11          1           0        1.822127    8.258861   -0.626703
     12          6           0        2.260613    6.295852   -0.107793
     13          1           0        2.451813    5.957234   -1.129492
     14          1           0        2.980661    5.812872    0.555384
     15          6           0        0.813628    5.947805    0.308621
     16          8           0       -0.004581    6.841960    0.598500
     17          7           0        0.493936    4.659353    0.286707
     18          1           0        1.219231    3.948943    0.173250
     19          6           0       -0.855473    4.192948    0.631459
     20          1           0       -1.582911    4.594533   -0.075121
     21          1           0       -1.103930    4.520183    1.645795
     22          6           0       -0.804102    2.673549    0.504863
     23          8           0       -1.210530    2.077058   -0.476977
     24          7           0       -0.143295    2.072473    1.548685
     25          1           0        0.252027    2.702097    2.248794
     26          6           0        0.537584    0.832871    1.282440
     27          1           0        0.640454    0.237393    2.196885
     28          1           0       -0.066092    0.259859    0.572707
     29          6           0        1.932318    1.093143    0.685121
     30          8           0        2.345349    2.247532    0.469623
     31          7           0        2.698447    0.010385    0.460888
     32          1           0        2.365063   -0.897245    0.760061
     33          6           0        4.102592    0.118726    0.056923
     34          1           0        4.179185    0.868889   -0.733044
     35          1           0        4.425516   -0.848128   -0.328610
     36          6           0        4.953541    0.461325    1.291063
     37          8           0        5.321824   -0.399460    2.071648
     38          7           0        5.177782    1.802271    1.473209
     39          1           0        4.719360    2.441255    0.836603
     40          6           0        5.687113    2.309200    2.732586
     41          1           0        6.337444    1.544574    3.165574
     42          1           0        6.286683    3.208783    2.571800
     43          6           0        4.611173    2.628112    3.777736
     44          8           0        4.892341    3.162395    4.847878
     45          7           0        3.345617    2.243314    3.449901
     46          1           0        3.133478    2.105853    2.470876
     47          6           0        2.241081    2.489687    4.359129
     48          1           0        1.416965    1.812711    4.127203
     49          1           0        2.584963    2.290789    5.376326
     50          6           0        1.763713    3.929810    4.206416
     51          8           0        0.860981    4.251501    3.423114
     52          7           0        2.452954    4.827965    4.943370
     53          1           0        3.309205    4.499427    5.385536
     54          6           0        2.261998    6.244755    4.729332
     55          1           0        2.915787    6.788413    5.419641
     56          1           0        2.530478    6.548382    3.715535
     57          6           0        0.847495    6.722030    4.986949
     58          8           0        0.354822    7.702762    4.439861
     59          8           0        0.202817    6.035256    5.921575
     60          1           0       -0.684286    6.430464    6.027670
 ---------------------------------------------------------------------

 SCF Done:  E(RB3LYP) =  -1741.03843732     A.U. after    1 cycles

 Alpha  occ. eigenvalues --  -19.32183 -19.27581 -19.26700 -19.25249 -19.24995
 Alpha  occ. eigenvalues --  -19.23971 -19.21922 -19.21213 -19.21092 -14.57151
 Alpha  occ. eigenvalues --  -14.50145 -14.48862 -14.48010 -14.47389 -14.46643
 Alpha  occ. eigenvalues --  -14.46169 -14.45122 -10.45569 -10.43870 -10.41699
 Alpha  occ. eigenvalues --  -10.41384 -10.40233 -10.39647 -10.39054 -10.38543
 Alpha  occ. eigenvalues --  -10.38309 -10.36042 -10.34752 -10.33788 -10.33707
 Alpha  occ. eigenvalues --  -10.33596 -10.32607 -10.32411  -1.23783  -1.18999
 Alpha  occ. eigenvalues --   -1.16511  -1.16340  -1.15408  -1.14558  -1.13849
 Alpha  occ. eigenvalues --   -1.13225  -1.13062  -1.12070  -1.06718  -1.04720
 Alpha  occ. eigenvalues --   -1.04416  -1.04159  -1.03577  -1.02025  -1.01625
 Alpha  occ. eigenvalues --   -0.89928  -0.88156  -0.87519  -0.86183  -0.84209
 Alpha  occ. eigenvalues --   -0.82635  -0.80692  -0.78781  -0.74946  -0.73648
 Alpha  occ. eigenvalues --   -0.72173  -0.71621  -0.71289  -0.70268  -0.69944
 Alpha  occ. eigenvalues --   -0.69026  -0.68272  -0.68216  -0.66517  -0.65675
 Alpha  occ. eigenvalues --   -0.64946  -0.64424  -0.63715  -0.63093  -0.61662
 Alpha  occ. eigenvalues --   -0.60948  -0.60859  -0.60737  -0.60161  -0.59516
 Alpha  occ. eigenvalues --   -0.58768  -0.58397  -0.57922  -0.57819  -0.57138
 Alpha  occ. eigenvalues --   -0.56297  -0.55248  -0.55020  -0.54909  -0.54488
 Alpha  occ. eigenvalues --   -0.54305  -0.53963  -0.53591  -0.53243  -0.52491
 Alpha  occ. eigenvalues --   -0.51968  -0.51788  -0.51207  -0.50886  -0.50620
 Alpha  occ. eigenvalues --   -0.50221  -0.49654  -0.49193  -0.48341  -0.48119
 Alpha  occ. eigenvalues --   -0.47624  -0.47198  -0.46836  -0.46103  -0.44640
 Alpha  occ. eigenvalues --   -0.41931  -0.41081  -0.40149  -0.39792  -0.39417
 Alpha  occ. eigenvalues --   -0.39077  -0.38979  -0.38139  -0.37855  -0.37160
 Alpha  occ. eigenvalues --   -0.35800  -0.35269  -0.34457  -0.34344  -0.33898
 Alpha virt. eigenvalues --   -0.14772  -0.11914  -0.10755  -0.10481  -0.09941
 Alpha virt. eigenvalues --   -0.08126  -0.07802  -0.07668  -0.07447  -0.04479
 Alpha virt. eigenvalues --   -0.03694  -0.03227  -0.01936  -0.01311  -0.00923

 Mulliken charges:
               1
     1  N   -0.795438
     2  H    0.404835
     3  H    0.443052
     4  H    0.444849
     5  C   -0.257169
     6  H    0.237827
     7  H    0.213230
     8  C    0.574300
     9  O   -0.465627
    10  N   -0.528692
    11  H    0.344621
    12  C   -0.271201
    13  H    0.216446
    14  H    0.222100
    15  C    0.643002
    16  O   -0.581746
    17  N   -0.620397
    18  H    0.395762
    19  C   -0.185399
    20  H    0.204923
    21  H    0.197823
    22  C    0.525972
    23  O   -0.469215
    24  N   -0.591429
    25  H    0.380554
    26  C   -0.268759
    27  H    0.190118
    28  H    0.237387
    29  C    0.609500
    30  O   -0.566308
    31  N   -0.559328
    32  H    0.363205
    33  C   -0.233919
    34  H    0.191675
    35  H    0.208736
    36  C    0.580304
    37  O   -0.475784
    38  N   -0.600930
    39  H    0.344243
    40  C   -0.229384
    41  H    0.241611
    42  H    0.195825
    43  C    0.592230
    44  O   -0.521260
    45  N   -0.607544
    46  H    0.374501
    47  C   -0.254756
    48  H    0.180871
    49  H    0.213491
    50  C    0.617392
    51  O   -0.546216
    52  N   -0.573075
    53  H    0.386343
    54  C   -0.249390
    55  H    0.212499
    56  H    0.233186
    57  C    0.637709
    58  O   -0.523568
    59  O   -0.517318
    60  H    0.433732
 Sum of Mulliken charges =   1.00000

 Dipole moment (field-independent basis, Debye):
    X=              7.0831    Y=             31.5139    Z=              8.9067  Tot=             33.5056
 Quadrupole moment (field-independent basis, Debye-Ang):
   XX=           -178.3062   YY=             94.9218   ZZ=           -150.4384
   XY=             34.8852   XZ=            -10.2399   YZ=             64.7290

 Normal termination of Gaussian 16 at Tue Jul 19 19:28:52 2022.
