 Gaussian 16, Revision C.01,
 Gaussian 16:  ES64L-G16RevC.01  3-Jul-2019

 ----------------------------------------------------------------------
 # B3LYP/6-31G* empiricaldispersion=gd3bj guess=read geom=check nosymm
 integral(ultrafinegrid)
 ----------------------------------------------------------------------

 ------------------------------------------------------
 Candidate Structure: Conf:231 Charge calc in gas phase
 ------------------------------------------------------
 Structure from the checkpoint file:  "conf-231.chk"
 Charge =  1 Multiplicity = 1

                          Input orientation:
 ---------------------------------------------------------------------
 Center     Atomic      Atomic             Coordinates (Angstroms)
 Number     Number       Type             X           Y           Z
 ---------------------------------------------------------------------
      1          7           0       -7.960602    5.417275   -4.109421
      2          1           0       -7.953683    6.428767   -3.952953
      3          1           0       -8.716115    5.195203   -4.762507
      4          1           0       -8.102586    4.908678   -3.169791
      5          6           0       -6.622615    4.867431   -4.516817
      6          1           0       -5.928110    5.682149   -4.725487
      7          1           0       -6.739152    4.254102   -5.411925
      8          6           0       -6.199885    4.014221   -3.292038
      9          8           0       -7.028764    3.912207   -2.373177
     10          7           0       -5.002210    3.465579   -3.335308
     11          1           0       -4.339981    3.581633   -4.112385
     12          6           0       -4.439792    2.624971   -2.291247
     13          1           0       -4.392434    3.166761   -1.340624
     14          1           0       -5.053437    1.730496   -2.139552
     15          6           0       -3.031033    2.256468   -2.796470
     16          8           0       -2.651736    2.680550   -3.892790
     17          7           0       -2.310678    1.484107   -1.983733
     18          1           0       -2.641340    1.155222   -1.075435
     19          6           0       -0.962213    1.048109   -2.280833
     20          1           0       -0.304023    1.907423   -2.454152
     21          1           0       -0.940489    0.431218   -3.187035
     22          6           0       -0.497878    0.238981   -1.059390
     23          8           0       -1.256221    0.067422   -0.103732
     24          7           0        0.751210   -0.241163   -1.129388
     25          1           0        1.369269   -0.065697   -1.918394
     26          6           0        1.364103   -0.997599   -0.060102
     27          1           0        1.355988   -0.431284    0.879311
     28          1           0        0.819224   -1.931368    0.130049
     29          6           0        2.804541   -1.291156   -0.489119
     30          8           0        3.235795   -0.912379   -1.574361
     31          7           0        3.518240   -2.007641    0.412392
     32          1           0        3.140145   -2.070413    1.361828
     33          6           0        4.985213   -2.091677    0.321820
     34          1           0        5.357702   -1.306900   -0.336012
     35          1           0        5.289307   -3.066796   -0.078186
     36          6           0        5.505171   -1.874910    1.741214
     37          8           0        5.939663   -0.811110    2.150674
     38          7           0        5.313483   -2.988223    2.518308
     39          1           0        4.807173   -3.752113    2.078487
     40          6           0        5.028472   -2.831268    3.925351
     41          1           0        5.419265   -3.685230    4.488493
     42          1           0        5.532709   -1.923604    4.271686
     43          6           0        3.515795   -2.665520    4.136756
     44          8           0        2.785462   -2.132497    3.299603
     45          7           0        3.003005   -3.195237    5.273844
     46          1           0        3.631526   -3.564973    5.973616
     47          6           0        1.579190   -3.082926    5.580514
     48          1           0        1.401757   -3.623150    6.514741
     49          1           0        1.271651   -2.042530    5.709413
     50          6           0        0.677813   -3.635355    4.462196
     51          8           0       -0.385493   -3.107415    4.200744
     52          7           0        1.131761   -4.760123    3.823480
     53          1           0        2.101494   -5.008407    3.980946
     54          6           0        0.662491   -4.974280    2.469240
     55          1           0        0.416923   -6.028791    2.290876
     56          1           0       -0.238608   -4.378633    2.318098
     57          6           0        1.756067   -4.553794    1.497255
     58          8           0        2.945541   -4.702270    1.720539
     59          8           0        1.278777   -3.996096    0.376494
     60          1           0        2.044885   -3.691322   -0.149387
 ---------------------------------------------------------------------

 SCF Done:  E(RB3LYP) =  -1740.99577924     A.U. after    1 cycles

 Alpha  occ. eigenvalues --  -19.28434 -19.28032 -19.22468 -19.22452 -19.20549
 Alpha  occ. eigenvalues --  -19.19566 -19.19247 -19.17867 -19.17795 -14.61876
 Alpha  occ. eigenvalues --  -14.50717 -14.45755 -14.45355 -14.43378 -14.42989
 Alpha  occ. eigenvalues --  -14.42394 -14.41995 -10.45202 -10.42333 -10.40498
 Alpha  occ. eigenvalues --  -10.39651 -10.37348 -10.36834 -10.36174 -10.35343
 Alpha  occ. eigenvalues --  -10.35124 -10.34872 -10.31654 -10.30477 -10.30235
 Alpha  occ. eigenvalues --  -10.30134 -10.29570 -10.28814  -1.20955  -1.19108
 Alpha  occ. eigenvalues --   -1.15522  -1.14438  -1.12582  -1.11779  -1.10971
 Alpha  occ. eigenvalues --   -1.10289  -1.09847  -1.09526  -1.07309  -1.02346
 Alpha  occ. eigenvalues --   -1.01210  -1.00055  -0.99799  -0.98975  -0.98497
 Alpha  occ. eigenvalues --   -0.91837  -0.86413  -0.84255  -0.83419  -0.81790
 Alpha  occ. eigenvalues --   -0.80004  -0.78033  -0.75947  -0.75614  -0.75309
 Alpha  occ. eigenvalues --   -0.73195  -0.70134  -0.69245  -0.67882  -0.67774
 Alpha  occ. eigenvalues --   -0.66605  -0.65291  -0.65033  -0.64652  -0.64516
 Alpha  occ. eigenvalues --   -0.62605  -0.62308  -0.61288  -0.59851  -0.59413
 Alpha  occ. eigenvalues --   -0.59096  -0.58733  -0.57376  -0.56825  -0.56532
 Alpha  occ. eigenvalues --   -0.56237  -0.56118  -0.55776  -0.54813  -0.54549
 Alpha  occ. eigenvalues --   -0.53917  -0.53500  -0.53231  -0.52918  -0.52327
 Alpha  occ. eigenvalues --   -0.52069  -0.51452  -0.50802  -0.50122  -0.49694
 Alpha  occ. eigenvalues --   -0.49541  -0.48388  -0.48010  -0.47546  -0.47231
 Alpha  occ. eigenvalues --   -0.46719  -0.46125  -0.45969  -0.45719  -0.44550
 Alpha  occ. eigenvalues --   -0.44235  -0.43554  -0.43237  -0.42827  -0.42431
 Alpha  occ. eigenvalues --   -0.40695  -0.40094  -0.37140  -0.36788  -0.35695
 Alpha  occ. eigenvalues --   -0.35352  -0.35061  -0.34321  -0.34005  -0.33077
 Alpha  occ. eigenvalues --   -0.32652  -0.32582  -0.31977  -0.31312  -0.30479
 Alpha virt. eigenvalues --   -0.13599  -0.12973  -0.08069  -0.08026  -0.07410
 Alpha virt. eigenvalues --   -0.06664  -0.05976  -0.05667  -0.04804  -0.04424
 Alpha virt. eigenvalues --   -0.02960  -0.02484  -0.01603  -0.00178   0.00601

 Mulliken charges:
               1
     1  N   -0.750517
     2  H    0.423436
     3  H    0.423171
     4  H    0.441107
     5  C   -0.277488
     6  H    0.247872
     7  H    0.251451
     8  C    0.641056
     9  O   -0.525635
    10  N   -0.604681
    11  H    0.381915
    12  C   -0.212406
    13  H    0.216280
    14  H    0.216331
    15  C    0.621077
    16  O   -0.536707
    17  N   -0.621269
    18  H    0.370709
    19  C   -0.201362
    20  H    0.201650
    21  H    0.200531
    22  C    0.613818
    23  O   -0.529828
    24  N   -0.625420
    25  H    0.362460
    26  C   -0.223833
    27  H    0.211277
    28  H    0.223152
    29  C    0.560521
    30  O   -0.513268
    31  N   -0.672001
    32  H    0.415301
    33  C   -0.204773
    34  H    0.213554
    35  H    0.174353
    36  C    0.543521
    37  O   -0.476667
    38  N   -0.570287
    39  H    0.372831
    40  C   -0.258754
    41  H    0.168893
    42  H    0.229855
    43  C    0.624074
    44  O   -0.527955
    45  N   -0.610076
    46  H    0.347785
    47  C   -0.220601
    48  H    0.188754
    49  H    0.212037
    50  C    0.602756
    51  O   -0.488418
    52  N   -0.564721
    53  H    0.334940
    54  C   -0.232589
    55  H    0.198753
    56  H    0.230396
    57  C    0.606140
    58  O   -0.493033
    59  O   -0.561623
    60  H    0.432156
 Sum of Mulliken charges =   1.00000

 Dipole moment (field-independent basis, Debye):
    X=            -24.3870    Y=             12.6928    Z=            -11.4673  Tot=             29.7881
 Quadrupole moment (field-independent basis, Debye-Ang):
   XX=             26.3434   YY=            -40.7850   ZZ=            -74.7531
   XY=           -183.7229   XZ=            158.4594   YZ=           -117.8163

 Normal termination of Gaussian 16 at Tue Jul 19 19:28:47 2022.
