 Gaussian 16, Revision C.01,
 Gaussian 16:  ES64L-G16RevC.01  3-Jul-2019

 ----------------------------------------------------------------------
 # B3LYP/6-31G* empiricaldispersion=gd3bj guess=read geom=check nosymm
 integral(ultrafinegrid)
 ----------------------------------------------------------------------

 -----------------------------------------------------
 Candidate Structure: Conf:64 Charge calc in gas phase
 -----------------------------------------------------
 Structure from the checkpoint file:  "conf-64.chk"
 Charge =  1 Multiplicity = 1

                          Input orientation:
 ---------------------------------------------------------------------
 Center     Atomic      Atomic             Coordinates (Angstroms)
 Number     Number       Type             X           Y           Z
 ---------------------------------------------------------------------
      1          7           0       -8.345729    8.161578    0.251733
      2          1           0       -8.736450    8.566321   -0.603227
      3          1           0       -8.739382    7.172131    0.406752
      4          1           0       -8.594130    8.766651    1.038905
      5          6           0       -6.874935    7.865062    0.160504
      6          1           0       -6.340388    8.398633    0.947854
      7          1           0       -6.493605    8.180919   -0.811709
      8          6           0       -6.806308    6.326342    0.344665
      9          8           0       -7.884566    5.735197    0.509940
     10          7           0       -5.607795    5.775402    0.310068
     11          1           0       -4.736149    6.299250    0.172333
     12          6           0       -5.354693    4.352525    0.465821
     13          1           0       -5.723113    3.996987    1.434160
     14          1           0       -5.862483    3.780155   -0.318043
     15          6           0       -3.825492    4.203935    0.362061
     16          8           0       -3.127958    5.204952    0.178260
     17          7           0       -3.354209    2.960261    0.482995
     18          1           0       -3.947783    2.146702    0.640892
     19          6           0       -1.943652    2.641503    0.417488
     20          1           0       -1.384325    3.189324    1.185208
     21          1           0       -1.523362    2.924595   -0.555100
     22          6           0       -1.829185    1.127578    0.636172
     23          8           0       -2.834761    0.438703    0.806041
     24          7           0       -0.578905    0.633778    0.626656
     25          1           0        0.245376    1.214816    0.503581
     26          6           0       -0.307214   -0.770044    0.835407
     27          1           0       -0.795431   -1.124032    1.751751
     28          1           0       -0.701492   -1.375799    0.009062
     29          6           0        1.208722   -0.938398    0.931182
     30          8           0        1.964155    0.022788    0.751441
     31          7           0        1.647668   -2.183780    1.201478
     32          1           0        0.979413   -2.906333    1.433723
     33          6           0        3.071412   -2.507743    1.289166
     34          1           0        3.588764   -1.976942    0.484740
     35          1           0        3.191797   -3.581751    1.151225
     36          6           0        3.667565   -2.141733    2.659523
     37          8           0        3.949375   -2.993641    3.486523
     38          7           0        3.840636   -0.795505    2.843451
     39          1           0        3.440404   -0.178673    2.141068
     40          6           0        4.220878   -0.247981    4.132061
     41          1           0        3.433121    0.391063    4.544288
     42          1           0        4.357722   -1.091904    4.814786
     43          6           0        5.506950    0.576257    4.131786
     44          8           0        5.761299    1.325015    5.076381
     45          7           0        6.322688    0.409315    3.066819
     46          1           0        6.082589   -0.307008    2.395763
     47          6           0        7.597933    1.103541    2.942098
     48          1           0        7.892772    1.116738    1.892760
     49          1           0        7.455660    2.132091    3.290011
     50          6           0        8.748308    0.458527    3.732749
     51          8           0        9.765649    0.065196    3.179185
     52          7           0        8.517816    0.371420    5.073180
     53          1           0        7.694055    0.841762    5.439824
     54          6           0        9.550934   -0.074358    5.973200
     55          1           0        9.136054   -0.695180    6.772802
     56          1           0       10.250052   -0.690770    5.400143
     57          6           0       10.368633    1.027826    6.634755
     58          8           0       11.143324    0.829774    7.541747
     59          8           0       10.148766    2.247757    6.095073
     60          1           0       10.739675    2.859238    6.573940
 ---------------------------------------------------------------------

 SCF Done:  E(RB3LYP) =  -1740.98812116     A.U. after    2 cycles

 Alpha  occ. eigenvalues --  -19.29288 -19.23739 -19.23068 -19.22602 -19.21826
 Alpha  occ. eigenvalues --  -19.18686 -19.17303 -19.16880 -19.15013 -14.62639
 Alpha  occ. eigenvalues --  -14.51676 -14.47250 -14.46822 -14.45886 -14.42959
 Alpha  occ. eigenvalues --  -14.42380 -14.39067 -10.46084 -10.43122 -10.40969
 Alpha  occ. eigenvalues --  -10.39615 -10.39093 -10.36242 -10.36008 -10.35263
 Alpha  occ. eigenvalues --  -10.34724 -10.33450 -10.33049 -10.32277 -10.31369
 Alpha  occ. eigenvalues --  -10.28942 -10.27680 -10.26675  -1.21800  -1.16379
 Alpha  occ. eigenvalues --   -1.15723  -1.14617  -1.13815  -1.13636  -1.10656
 Alpha  occ. eigenvalues --   -1.09316  -1.08271  -1.06848  -1.04687  -1.03847
 Alpha  occ. eigenvalues --   -1.02769  -1.02335  -0.99690  -0.97812  -0.95719
 Alpha  occ. eigenvalues --   -0.92701  -0.87838  -0.85875  -0.83310  -0.81265
 Alpha  occ. eigenvalues --   -0.79478  -0.77570  -0.76581  -0.76479  -0.74922
 Alpha  occ. eigenvalues --   -0.74277  -0.70908  -0.69547  -0.68839  -0.68490
 Alpha  occ. eigenvalues --   -0.65946  -0.65717  -0.65351  -0.64375  -0.64088
 Alpha  occ. eigenvalues --   -0.63172  -0.62075  -0.61582  -0.60786  -0.60201
 Alpha  occ. eigenvalues --   -0.59960  -0.58648  -0.58209  -0.57921  -0.57083
 Alpha  occ. eigenvalues --   -0.56822  -0.56620  -0.55950  -0.55344  -0.54484
 Alpha  occ. eigenvalues --   -0.53736  -0.53467  -0.52371  -0.51368  -0.51256
 Alpha  occ. eigenvalues --   -0.50805  -0.50583  -0.50104  -0.49506  -0.48964
 Alpha  occ. eigenvalues --   -0.48932  -0.48856  -0.48308  -0.47725  -0.47067
 Alpha  occ. eigenvalues --   -0.46257  -0.45578  -0.45424  -0.44711  -0.44392
 Alpha  occ. eigenvalues --   -0.44243  -0.43013  -0.42311  -0.41626  -0.41553
 Alpha  occ. eigenvalues --   -0.40705  -0.38435  -0.37579  -0.37277  -0.36860
 Alpha  occ. eigenvalues --   -0.35751  -0.35101  -0.34818  -0.34037  -0.32845
 Alpha  occ. eigenvalues --   -0.32252  -0.31900  -0.30428  -0.28377  -0.27856
 Alpha virt. eigenvalues --   -0.14316  -0.13809  -0.09244  -0.08417  -0.08280
 Alpha virt. eigenvalues --   -0.06962  -0.06809  -0.05350  -0.03835  -0.03317
 Alpha virt. eigenvalues --   -0.02423  -0.02057  -0.01236  -0.01113  -0.00594

 Mulliken charges:
               1
     1  N   -0.750389
     2  H    0.424720
     3  H    0.441740
     4  H    0.424778
     5  C   -0.277155
     6  H    0.250787
     7  H    0.250758
     8  C    0.640747
     9  O   -0.523104
    10  N   -0.605304
    11  H    0.382247
    12  C   -0.211477
    13  H    0.216943
    14  H    0.217115
    15  C    0.621554
    16  O   -0.532469
    17  N   -0.622693
    18  H    0.370352
    19  C   -0.199411
    20  H    0.203356
    21  H    0.204435
    22  C    0.614044
    23  O   -0.527384
    24  N   -0.625255
    25  H    0.365404
    26  C   -0.192644
    27  H    0.202373
    28  H    0.205566
    29  C    0.611576
    30  O   -0.544149
    31  N   -0.588571
    32  H    0.355169
    33  C   -0.242245
    34  H    0.197021
    35  H    0.200754
    36  C    0.581572
    37  O   -0.479596
    38  N   -0.628568
    39  H    0.370265
    40  C   -0.227299
    41  H    0.183875
    42  H    0.228352
    43  C    0.602528
    44  O   -0.538253
    45  N   -0.573598
    46  H    0.344912
    47  C   -0.243146
    48  H    0.181632
    49  H    0.197827
    50  C    0.595496
    51  O   -0.503432
    52  N   -0.591373
    53  H    0.371423
    54  C   -0.233351
    55  H    0.191027
    56  H    0.226134
    57  C    0.580479
    58  O   -0.453584
    59  O   -0.556139
    60  H    0.413625
 Sum of Mulliken charges =   1.00000

 Dipole moment (field-independent basis, Debye):
    X=            -34.4246    Y=             30.9750    Z=             -1.7657  Tot=             46.3424
 Quadrupole moment (field-independent basis, Debye-Ang):
   XX=            -22.6999   YY=             82.2850   ZZ=           -209.5234
   XY=           -241.5724   XZ=            -39.1718   YZ=             13.5569

 Normal termination of Gaussian 16 at Tue Jul 19 19:28:51 2022.
