 Gaussian 16, Revision C.01,
 Gaussian 16:  ES64L-G16RevC.01  3-Jul-2019

 ----------------------------------------------------------------------
 # B3LYP/6-31G* empiricaldispersion=gd3bj guess=read geom=check nosymm
 integral(ultrafinegrid)
 ----------------------------------------------------------------------

 ------------------------------------------------------
 Candidate Structure: Conf:156 Charge calc in gas phase
 ------------------------------------------------------
 Structure from the checkpoint file:  "conf-156.chk"
 Charge =  1 Multiplicity = 1

                          Input orientation:
 ---------------------------------------------------------------------
 Center     Atomic      Atomic             Coordinates (Angstroms)
 Number     Number       Type             X           Y           Z
 ---------------------------------------------------------------------
      1          7           0       -1.647347    0.267814   -1.219249
      2          1           0       -1.882722   -0.584325   -0.702647
      3          1           0       -0.679279    0.112537   -1.574949
      4          1           0       -1.554064    1.051506   -0.530768
      5          6           0       -2.589481    0.595923   -2.335036
      6          1           0       -3.610583    0.566541   -1.955884
      7          1           0       -2.457814   -0.148376   -3.123347
      8          6           0       -2.285301    2.028934   -2.782357
      9          8           0       -2.808126    2.973611   -2.203359
     10          7           0       -1.369788    2.158995   -3.778166
     11          1           0       -0.792373    1.357210   -4.007144
     12          6           0       -0.769344    3.470920   -4.026747
     13          1           0       -0.341822    3.492343   -5.028411
     14          1           0       -1.550472    4.226964   -3.936104
     15          6           0        0.353612    3.656515   -3.005200
     16          8           0        1.527585    3.413125   -3.314626
     17          7           0       -0.051043    3.988458   -1.760919
     18          1           0       -1.052820    4.037046   -1.588636
     19          6           0        0.810721    3.876671   -0.601711
     20          1           0        0.758694    4.796420   -0.006611
     21          1           0        1.840668    3.757068   -0.940879
     22          6           0        0.351462    2.717654    0.288211
     23          8           0       -0.842101    2.381316    0.310871
     24          7           0        1.282080    2.153015    1.070098
     25          1           0        2.272099    2.338617    0.940467
     26          6           0        0.953537    1.127528    2.043230
     27          1           0        0.446016    1.561686    2.912703
     28          1           0        0.287340    0.387207    1.588650
     29          6           0        2.239714    0.418597    2.448892
     30          8           0        3.278471    0.570458    1.804752
     31          7           0        2.143845   -0.379863    3.540036
     32          1           0        1.222657   -0.602243    3.899083
     33          6           0        3.188044   -1.343213    3.852445
     34          1           0        3.299958   -1.423160    4.938223
     35          1           0        4.121643   -0.972219    3.428052
     36          6           0        2.774730   -2.707219    3.298164
     37          8           0        1.624340   -3.115998    3.475433
     38          7           0        3.711159   -3.398449    2.608086
     39          1           0        4.594963   -2.956474    2.395033
     40          6           0        3.405512   -4.678952    1.967586
     41          1           0        4.339433   -5.178133    1.711751
     42          1           0        2.839545   -5.294536    2.671109
     43          6           0        2.615437   -4.427308    0.676872
     44          8           0        3.159226   -4.396363   -0.427505
     45          7           0        1.295704   -4.169366    0.875989
     46          1           0        1.009420   -3.987585    1.837813
     47          6           0        0.467743   -3.649226   -0.203488
     48          1           0        0.654458   -4.237408   -1.105661
     49          1           0       -0.580769   -3.740621    0.080750
     50          6           0        0.792980   -2.168145   -0.427732
     51          8           0        0.101677   -1.264902    0.065943
     52          7           0        1.917868   -1.948449   -1.139400
     53          1           0        2.474727   -2.779159   -1.341952
     54          6           0        2.600874   -0.671543   -1.172812
     55          1           0        2.731898   -0.254950   -0.165915
     56          1           0        3.605441   -0.830770   -1.571105
     57          6           0        1.943936    0.408594   -2.011359
     58          8           0        0.804955    0.367559   -2.476468
     59          8           0        2.760212    1.432330   -2.145300
     60          1           0        2.323509    2.183737   -2.656519
 ---------------------------------------------------------------------

 SCF Done:  E(RB3LYP) =  -1741.07799287     A.U. after    3 cycles

 Alpha  occ. eigenvalues --  -19.29881 -19.26795 -19.24866 -19.24834 -19.24586
 Alpha  occ. eigenvalues --  -19.24456 -19.24310 -19.23835 -19.23051 -14.55383
 Alpha  occ. eigenvalues --  -14.49375 -14.49098 -14.48952 -14.48389 -14.48340
 Alpha  occ. eigenvalues --  -14.47864 -14.46955 -10.44740 -10.42309 -10.42022
 Alpha  occ. eigenvalues --  -10.41502 -10.41459 -10.41156 -10.40970 -10.39927
 Alpha  occ. eigenvalues --  -10.38000 -10.35097 -10.34692 -10.34535 -10.34527
 Alpha  occ. eigenvalues --  -10.34473 -10.34177 -10.34026  -1.22160  -1.17397
 Alpha  occ. eigenvalues --   -1.16865  -1.16376  -1.16070  -1.15922  -1.15586
 Alpha  occ. eigenvalues --   -1.14484  -1.13237  -1.10700  -1.05599  -1.05188
 Alpha  occ. eigenvalues --   -1.04704  -1.04606  -1.04542  -1.04494  -1.03188
 Alpha  occ. eigenvalues --   -0.89730  -0.88717  -0.88055  -0.86689  -0.84924
 Alpha  occ. eigenvalues --   -0.83340  -0.81512  -0.79957  -0.74482  -0.72695
 Alpha  occ. eigenvalues --   -0.72086  -0.71622  -0.70534  -0.70292  -0.70173
 Alpha  occ. eigenvalues --   -0.69643  -0.69357  -0.68754  -0.67344  -0.65507
 Alpha  occ. eigenvalues --   -0.64892  -0.64836  -0.63586  -0.62554  -0.61823
 Alpha  occ. eigenvalues --   -0.61770  -0.61267  -0.60818  -0.60160  -0.60016
 Alpha  occ. eigenvalues --   -0.59366  -0.59238  -0.58813  -0.58211  -0.57962
 Alpha  occ. eigenvalues --   -0.57285  -0.56960  -0.56170  -0.55151  -0.54292
 Alpha  occ. eigenvalues --   -0.53926  -0.53498  -0.53421  -0.53254  -0.52770
 Alpha  occ. eigenvalues --   -0.52656  -0.52113  -0.51935  -0.51225  -0.51065
 Alpha  occ. eigenvalues --   -0.50720  -0.50430  -0.50101  -0.49748  -0.49245
 Alpha  occ. eigenvalues --   -0.48846  -0.48580  -0.47912  -0.47476  -0.43791
 Alpha  occ. eigenvalues --   -0.41340  -0.40477  -0.39982  -0.39760  -0.39597
 Alpha  occ. eigenvalues --   -0.39498  -0.38899  -0.38760  -0.38323  -0.37913
 Alpha  occ. eigenvalues --   -0.37595  -0.36872  -0.36666  -0.36151  -0.35445
 Alpha virt. eigenvalues --   -0.13273  -0.11766  -0.11299  -0.11148  -0.10401
 Alpha virt. eigenvalues --   -0.10261  -0.09562  -0.08773  -0.04998  -0.03141
 Alpha virt. eigenvalues --   -0.02487  -0.02106  -0.01831  -0.00189   0.00045

 Mulliken charges:
               1
     1  N   -0.807419
     2  H    0.403055
     3  H    0.454138
     4  H    0.454873
     5  C   -0.250521
     6  H    0.236190
     7  H    0.210426
     8  C    0.588059
     9  O   -0.486387
    10  N   -0.561310
    11  H    0.363818
    12  C   -0.241227
    13  H    0.212516
    14  H    0.220226
    15  C    0.604269
    16  O   -0.552712
    17  N   -0.561054
    18  H    0.389531
    19  C   -0.253821
    20  H    0.220739
    21  H    0.203568
    22  C    0.620498
    23  O   -0.566361
    24  N   -0.593617
    25  H    0.370263
    26  C   -0.221032
    27  H    0.200349
    28  H    0.232976
    29  C    0.603354
    30  O   -0.522636
    31  N   -0.574199
    32  H    0.357223
    33  C   -0.247222
    34  H    0.213884
    35  H    0.203756
    36  C    0.621801
    37  O   -0.536365
    38  N   -0.581252
    39  H    0.358158
    40  C   -0.237586
    41  H    0.206901
    42  H    0.211255
    43  C    0.590898
    44  O   -0.521415
    45  N   -0.575821
    46  H    0.386072
    47  C   -0.229824
    48  H    0.205576
    49  H    0.183156
    50  C    0.577606
    51  O   -0.575080
    52  N   -0.565589
    53  H    0.391005
    54  C   -0.263102
    55  H    0.238374
    56  H    0.216024
    57  C    0.613936
    58  O   -0.545833
    59  O   -0.574095
    60  H    0.481004
 Sum of Mulliken charges =   1.00000

 Dipole moment (field-independent basis, Debye):
    X=              2.7864    Y=             -1.6005    Z=              0.0126  Tot=              3.2134
 Quadrupole moment (field-independent basis, Debye-Ang):
   XX=           -159.6535   YY=           -152.0950   ZZ=           -147.5104
   XY=            -10.4923   XZ=             31.3374   YZ=            -15.3464

 Normal termination of Gaussian 16 at Tue Jul 19 19:29:16 2022.
