 Gaussian 16, Revision C.01,
 Gaussian 16:  ES64L-G16RevC.01  3-Jul-2019

 ----------------------------------------------------------------------
 # B3LYP/6-31G* empiricaldispersion=gd3bj guess=read geom=check nosymm
 integral(ultrafinegrid)
 ----------------------------------------------------------------------

 ------------------------------------------------------
 Candidate Structure: Conf:521 Charge calc in gas phase
 ------------------------------------------------------
 Structure from the checkpoint file:  "conf-521.chk"
 Charge =  1 Multiplicity = 1

                          Input orientation:
 ---------------------------------------------------------------------
 Center     Atomic      Atomic             Coordinates (Angstroms)
 Number     Number       Type             X           Y           Z
 ---------------------------------------------------------------------
      1          7           0       -1.686268   -1.657255    0.541469
      2          1           0       -2.071782   -2.530387    0.904948
      3          1           0       -0.618475   -1.655766    0.684880
      4          1           0       -2.073653   -0.844231    1.061404
      5          6           0       -2.030643   -1.411288   -0.891978
      6          1           0       -2.835640   -2.079698   -1.204179
      7          1           0       -1.139653   -1.569269   -1.505290
      8          6           0       -2.465538    0.060203   -0.966940
      9          8           0       -2.482604    0.730681    0.069803
     10          7           0       -2.813170    0.512747   -2.180247
     11          1           0       -2.605843   -0.039439   -3.006804
     12          6           0       -3.086552    1.923860   -2.435003
     13          1           0       -4.093477    2.041633   -2.849585
     14          1           0       -3.032478    2.455674   -1.484377
     15          6           0       -2.062341    2.392158   -3.467262
     16          8           0       -1.845677    1.688046   -4.455960
     17          7           0       -1.411442    3.548606   -3.211415
     18          1           0       -1.552436    4.006677   -2.321192
     19          6           0       -0.270726    3.976933   -4.027292
     20          1           0       -0.047427    5.019070   -3.802277
     21          1           0       -0.535774    3.875550   -5.081947
     22          6           0        0.936988    3.110113   -3.646111
     23          8           0        1.740736    3.462006   -2.781693
     24          7           0        0.966939    1.901412   -4.263388
     25          1           0        0.128652    1.632324   -4.773000
     26          6           0        1.838640    0.837120   -3.782175
     27          1           0        1.847409    0.024482   -4.507285
     28          1           0        2.853293    1.222864   -3.665503
     29          6           0        1.317100    0.287654   -2.454953
     30          8           0        0.622753   -0.727296   -2.371939
     31          7           0        1.670316    1.009405   -1.354190
     32          1           0        2.029907    1.951789   -1.505335
     33          6           0        1.222689    0.566197   -0.048192
     34          1           0        0.134513    0.614438    0.061108
     35          1           0        1.664051    1.218949    0.710694
     36          6           0        1.673344   -0.878262    0.200342
     37          8           0        0.945698   -1.723907    0.752636
     38          7           0        2.925076   -1.145748   -0.194833
     39          1           0        3.355001   -0.450513   -0.801592
     40          6           0        3.390245   -2.488512   -0.468746
     41          1           0        4.218969   -2.765759    0.194334
     42          1           0        2.570234   -3.189958   -0.291601
     43          6           0        3.855632   -2.518106   -1.936171
     44          8           0        3.914367   -1.482284   -2.594346
     45          7           0        4.214488   -3.737410   -2.405338
     46          1           0        4.080900   -4.546272   -1.811749
     47          6           0        4.611435   -3.967164   -3.788301
     48          1           0        3.880645   -4.594347   -4.306444
     49          1           0        4.629053   -2.990591   -4.279336
     50          6           0        5.981306   -4.625311   -3.969747
     51          8           0        6.236507   -5.233654   -4.994843
     52          7           0        6.854962   -4.481310   -2.925563
     53          1           0        6.635513   -3.770897   -2.240536
     54          6           0        8.248047   -4.829702   -3.106029
     55          1           0        8.682653   -5.180065   -2.165212
     56          1           0        8.296097   -5.653684   -3.822018
     57          6           0        9.138331   -3.714220   -3.641288
     58          8           0       10.326328   -3.835809   -3.811749
     59          8           0        8.454079   -2.572747   -3.893378
     60          1           0        9.108285   -1.940930   -4.248257
 ---------------------------------------------------------------------

 SCF Done:  E(RB3LYP) =  -1741.03521344     A.U. after    1 cycles

 Alpha  occ. eigenvalues --  -19.26915 -19.26771 -19.26029 -19.24646 -19.24070
 Alpha  occ. eigenvalues --  -19.23522 -19.22971 -19.20456 -19.19321 -14.56543
 Alpha  occ. eigenvalues --  -14.50565 -14.49648 -14.48262 -14.47926 -14.47742
 Alpha  occ. eigenvalues --  -14.46854 -14.44348 -10.44004 -10.42468 -10.41904
 Alpha  occ. eigenvalues --  -10.40780 -10.40587 -10.39911 -10.38929 -10.38555
 Alpha  occ. eigenvalues --  -10.36929 -10.35876 -10.35551 -10.34862 -10.34327
 Alpha  occ. eigenvalues --  -10.33253 -10.32075 -10.30729  -1.19091  -1.17486
 Alpha  occ. eigenvalues --   -1.17422  -1.16786  -1.15666  -1.15378  -1.14448
 Alpha  occ. eigenvalues --   -1.11546  -1.11430  -1.08386  -1.06819  -1.05850
 Alpha  occ. eigenvalues --   -1.05318  -1.03999  -1.03756  -1.03067  -1.00450
 Alpha  occ. eigenvalues --   -0.90227  -0.88694  -0.87055  -0.85609  -0.83635
 Alpha  occ. eigenvalues --   -0.82335  -0.80537  -0.79294  -0.73278  -0.72798
 Alpha  occ. eigenvalues --   -0.72542  -0.71592  -0.70986  -0.70302  -0.69301
 Alpha  occ. eigenvalues --   -0.69186  -0.68693  -0.67016  -0.66889  -0.65453
 Alpha  occ. eigenvalues --   -0.65096  -0.64077  -0.62984  -0.61932  -0.61716
 Alpha  occ. eigenvalues --   -0.61041  -0.60715  -0.60577  -0.59089  -0.58971
 Alpha  occ. eigenvalues --   -0.58256  -0.57855  -0.57529  -0.56674  -0.56483
 Alpha  occ. eigenvalues --   -0.55574  -0.55385  -0.54650  -0.54213  -0.53893
 Alpha  occ. eigenvalues --   -0.53693  -0.53116  -0.52735  -0.52530  -0.52405
 Alpha  occ. eigenvalues --   -0.51851  -0.51510  -0.50949  -0.50569  -0.50321
 Alpha  occ. eigenvalues --   -0.49701  -0.49027  -0.48902  -0.48749  -0.48287
 Alpha  occ. eigenvalues --   -0.47468  -0.46728  -0.45974  -0.44603  -0.41600
 Alpha  occ. eigenvalues --   -0.40973  -0.40673  -0.40063  -0.39447  -0.39160
 Alpha  occ. eigenvalues --   -0.38456  -0.38104  -0.37898  -0.37755  -0.37451
 Alpha  occ. eigenvalues --   -0.36472  -0.36108  -0.35299  -0.32994  -0.32299
 Alpha virt. eigenvalues --   -0.12484  -0.11573  -0.11009  -0.10300  -0.09087
 Alpha virt. eigenvalues --   -0.08803  -0.08079  -0.05899  -0.05516  -0.04057
 Alpha virt. eigenvalues --   -0.03730  -0.02900  -0.01844  -0.00936   0.00113

 Mulliken charges:
               1
     1  N   -0.784461
     2  H    0.401169
     3  H    0.459377
     4  H    0.412830
     5  C   -0.292662
     6  H    0.224609
     7  H    0.280237
     8  C    0.624421
     9  O   -0.522482
    10  N   -0.579053
    11  H    0.370235
    12  C   -0.233632
    13  H    0.220696
    14  H    0.207035
    15  C    0.618170
    16  O   -0.531450
    17  N   -0.579159
    18  H    0.357050
    19  C   -0.239623
    20  H    0.208197
    21  H    0.212539
    22  C    0.587840
    23  O   -0.523627
    24  N   -0.573625
    25  H    0.381758
    26  C   -0.230141
    27  H    0.202807
    28  H    0.210706
    29  C    0.602906
    30  O   -0.543575
    31  N   -0.614793
    32  H    0.389552
    33  C   -0.226435
    34  H    0.173450
    35  H    0.210157
    36  C    0.627118
    37  O   -0.585227
    38  N   -0.540975
    39  H    0.371861
    40  C   -0.238162
    41  H    0.202677
    42  H    0.205480
    43  C    0.609940
    44  O   -0.519190
    45  N   -0.613671
    46  H    0.347605
    47  C   -0.235397
    48  H    0.201246
    49  H    0.229219
    50  C    0.594221
    51  O   -0.488507
    52  N   -0.576828
    53  H    0.331755
    54  C   -0.241717
    55  H    0.198396
    56  H    0.239245
    57  C    0.584737
    58  O   -0.437080
    59  O   -0.568733
    60  H    0.420965
 Sum of Mulliken charges =   1.00000

 Dipole moment (field-independent basis, Debye):
    X=             -2.9542    Y=             -1.6377    Z=             -3.2135  Tot=              4.6622
 Quadrupole moment (field-independent basis, Debye-Ang):
   XX=           -162.8940   YY=           -149.5702   ZZ=           -184.1975
   XY=              0.0377   XZ=             19.7267   YZ=            -30.1860

 Normal termination of Gaussian 16 at Tue Jul 19 19:28:55 2022.
