 Gaussian 16, Revision C.01,
 Gaussian 16:  ES64L-G16RevC.01  3-Jul-2019

 ----------------------------------------------------------------------
 # B3LYP/6-31G* empiricaldispersion=gd3bj guess=read geom=check nosymm
 integral(ultrafinegrid)
 ----------------------------------------------------------------------

 -----------------------------------------------------
 Candidate Structure: Conf:90 Charge calc in gas phase
 -----------------------------------------------------
 Structure from the checkpoint file:  "conf-90.chk"
 Charge =  1 Multiplicity = 1

                          Input orientation:
 ---------------------------------------------------------------------
 Center     Atomic      Atomic             Coordinates (Angstroms)
 Number     Number       Type             X           Y           Z
 ---------------------------------------------------------------------
      1          7           0       -0.503939   10.038751    2.759393
      2          1           0        0.243208   10.732234    2.662241
      3          1           0       -0.123410    9.044904    2.795439
      4          1           0       -1.121170   10.078697    1.938727
      5          6           0       -1.352973   10.224002    3.997328
      6          1           0       -1.942333   11.135088    3.892503
      7          1           0       -0.685580   10.292805    4.857536
      8          6           0       -2.221187    8.959581    3.935480
      9          8           0       -2.953378    8.821153    2.968823
     10          7           0       -1.943936    7.989817    4.851067
     11          1           0       -1.223731    8.203034    5.529996
     12          6           0       -1.933484    6.625167    4.356158
     13          1           0       -1.906336    5.923829    5.193345
     14          1           0       -2.852060    6.449399    3.791739
     15          6           0       -0.710953    6.429305    3.426877
     16          8           0       -0.019783    7.391992    3.031943
     17          7           0       -0.455056    5.174766    3.085068
     18          1           0       -1.001669    4.378391    3.424361
     19          6           0        0.615844    4.761974    2.199271
     20          1           0        1.589106    5.073302    2.594935
     21          1           0        0.498737    5.215852    1.208681
     22          6           0        0.520981    3.227698    2.115844
     23          8           0       -0.352973    2.631902    2.749207
     24          7           0        1.429781    2.638471    1.332783
     25          1           0        2.141852    3.149682    0.812252
     26          6           0        1.493952    1.207657    1.127603
     27          1           0        1.661548    0.682863    2.075769
     28          1           0        0.553306    0.829724    0.709535
     29          6           0        2.658107    0.961421    0.157158
     30          8           0        3.319376    1.906116   -0.279208
     31          7           0        2.880430   -0.321834   -0.159228
     32          1           0        2.327479   -1.092963    0.209948
     33          6           0        3.933390   -0.738930   -1.056962
     34          1           0        4.915447   -0.424993   -0.682230
     35          1           0        3.807316   -0.284491   -2.047422
     36          6           0        3.856042   -2.267865   -1.151423
     37          8           0        3.004402   -2.897106   -0.522371
     38          7           0        4.768325   -2.841040   -1.953399
     39          1           0        5.466746   -2.312950   -2.470985
     40          6           0        4.836664   -4.269198   -2.157912
     41          1           0        5.008677   -4.793754   -1.209626
     42          1           0        3.893638   -4.652379   -2.567573
     43          6           0        5.990128   -4.530010   -3.132082
     44          8           0        6.661025   -3.603422   -3.587090
     45          7           0        6.201956   -5.822277   -3.439868
     46          1           0        5.644739   -6.582954   -3.060281
     47          6           0        7.248573   -6.238691   -4.342554
     48          1           0        7.117734   -5.782658   -5.332270
     49          1           0        8.233023   -5.922075   -3.974808
     50          6           0        7.181559   -7.764511   -4.444194
     51          8           0        6.343038   -8.412548   -3.821350
     52          7           0        8.098613   -8.330583   -5.256247
     53          1           0        8.784581   -7.783345   -5.764155
     54          6           0        8.156863   -9.761235   -5.451013
     55          1           0        8.327669  -10.289323   -4.504990
     56          1           0        7.215320  -10.150492   -5.857184
     57          6           0        9.286223  -10.066262   -6.411331
     58          8           0       10.001677   -9.226330   -6.913555
     59          8           0        9.395972  -11.385183   -6.637081
     60          1           0       10.137475  -11.509104   -7.259763
 ---------------------------------------------------------------------

 SCF Done:  E(RB3LYP) =  -1741.00400951     A.U. after    1 cycles

 Alpha  occ. eigenvalues --  -19.26728 -19.26130 -19.26072 -19.21256 -19.20759
 Alpha  occ. eigenvalues --  -19.19249 -19.18113 -19.17953 -19.17708 -14.60415
 Alpha  occ. eigenvalues --  -14.50521 -14.48455 -14.44820 -14.43001 -14.42332
 Alpha  occ. eigenvalues --  -14.42046 -14.41764 -10.44183 -10.42480 -10.40981
 Alpha  occ. eigenvalues --  -10.38914 -10.38532 -10.36477 -10.36255 -10.35359
 Alpha  occ. eigenvalues --  -10.35207 -10.34944 -10.33824 -10.31016 -10.29689
 Alpha  occ. eigenvalues --  -10.29682 -10.29015 -10.29003  -1.19664  -1.17271
 Alpha  occ. eigenvalues --   -1.16911  -1.14489  -1.13301  -1.11269  -1.10402
 Alpha  occ. eigenvalues --   -1.10013  -1.09280  -1.08392  -1.07131  -1.04891
 Alpha  occ. eigenvalues --   -1.01408  -0.99590  -0.98959  -0.98640  -0.98168
 Alpha  occ. eigenvalues --   -0.90780  -0.87457  -0.84321  -0.83305  -0.82143
 Alpha  occ. eigenvalues --   -0.80349  -0.78028  -0.75517  -0.75133  -0.73760
 Alpha  occ. eigenvalues --   -0.72889  -0.70933  -0.68567  -0.68153  -0.67225
 Alpha  occ. eigenvalues --   -0.66479  -0.65757  -0.65493  -0.65064  -0.64273
 Alpha  occ. eigenvalues --   -0.63406  -0.62224  -0.60902  -0.60222  -0.59251
 Alpha  occ. eigenvalues --   -0.59138  -0.57355  -0.56893  -0.56277  -0.55680
 Alpha  occ. eigenvalues --   -0.55504  -0.55276  -0.55188  -0.54712  -0.54526
 Alpha  occ. eigenvalues --   -0.54285  -0.54109  -0.53520  -0.53077  -0.52778
 Alpha  occ. eigenvalues --   -0.52500  -0.51534  -0.51291  -0.51174  -0.50863
 Alpha  occ. eigenvalues --   -0.49653  -0.49418  -0.48595  -0.47747  -0.46814
 Alpha  occ. eigenvalues --   -0.46656  -0.46049  -0.45446  -0.45145  -0.44774
 Alpha  occ. eigenvalues --   -0.44561  -0.43419  -0.42091  -0.41817  -0.40888
 Alpha  occ. eigenvalues --   -0.40662  -0.39428  -0.38694  -0.38379  -0.35876
 Alpha  occ. eigenvalues --   -0.34842  -0.34788  -0.33822  -0.33088  -0.32895
 Alpha  occ. eigenvalues --   -0.32492  -0.32216  -0.31633  -0.31242  -0.30586
 Alpha virt. eigenvalues --   -0.14902  -0.11095  -0.09793  -0.06737  -0.06327
 Alpha virt. eigenvalues --   -0.05388  -0.04790  -0.04688  -0.03939  -0.03421
 Alpha virt. eigenvalues --   -0.02503  -0.02208  -0.00548  -0.00005   0.00997

 Mulliken charges:
               1
     1  N   -0.754808
     2  H    0.414701
     3  H    0.458520
     4  H    0.423476
     5  C   -0.265575
     6  H    0.247434
     7  H    0.217254
     8  C    0.581067
     9  O   -0.469398
    10  N   -0.532270
    11  H    0.346436
    12  C   -0.271151
    13  H    0.212822
    14  H    0.247710
    15  C    0.643893
    16  O   -0.594260
    17  N   -0.596583
    18  H    0.380496
    19  C   -0.205941
    20  H    0.202690
    21  H    0.200668
    22  C    0.617255
    23  O   -0.530661
    24  N   -0.622566
    25  H    0.364440
    26  C   -0.198238
    27  H    0.200049
    28  H    0.200749
    29  C    0.611464
    30  O   -0.537455
    31  N   -0.622746
    32  H    0.364505
    33  C   -0.194377
    34  H    0.195309
    35  H    0.195167
    36  C    0.609398
    37  O   -0.533502
    38  N   -0.623869
    39  H    0.361902
    40  C   -0.192414
    41  H    0.194884
    42  H    0.195075
    43  C    0.608284
    44  O   -0.533243
    45  N   -0.624444
    46  H    0.362445
    47  C   -0.191643
    48  H    0.194600
    49  H    0.194628
    50  C    0.609152
    51  O   -0.525450
    52  N   -0.626314
    53  H    0.360105
    54  C   -0.176464
    55  H    0.212181
    56  H    0.212209
    57  C    0.568670
    58  O   -0.457611
    59  O   -0.554803
    60  H    0.426146
 Sum of Mulliken charges =   1.00000

 Dipole moment (field-independent basis, Debye):
    X=              6.2372    Y=             28.8019    Z=              9.4096  Tot=             30.9353
 Quadrupole moment (field-independent basis, Debye-Ang):
   XX=           -128.4294   YY=            246.6587   ZZ=            -96.1583
   XY=            -90.2590   XZ=            -48.4433   YZ=            185.0815

 Normal termination of Gaussian 16 at Tue Jul 19 19:28:44 2022.
