 Gaussian 16, Revision C.01,
 Gaussian 16:  ES64L-G16RevC.01  3-Jul-2019

 ----------------------------------------------------------------------
 # B3LYP/6-31G* empiricaldispersion=gd3bj guess=read geom=check nosymm
 integral(ultrafinegrid)
 ----------------------------------------------------------------------

 ------------------------------------------------------
 Candidate Structure: Conf:607 Charge calc in gas phase
 ------------------------------------------------------
 Structure from the checkpoint file:  "conf-607.chk"
 Charge =  1 Multiplicity = 1

                          Input orientation:
 ---------------------------------------------------------------------
 Center     Atomic      Atomic             Coordinates (Angstroms)
 Number     Number       Type             X           Y           Z
 ---------------------------------------------------------------------
      1          7           0       -0.694798    1.622446   -4.617848
      2          1           0       -0.015952    1.321239   -3.871762
      3          1           0       -1.590900    1.177454   -4.352651
      4          1           0       -0.354772    1.136197   -5.465424
      5          6           0       -0.775659    3.093063   -4.782379
      6          1           0       -1.574568    3.328086   -5.490820
      7          1           0        0.172961    3.444761   -5.194413
      8          6           0       -1.084879    3.682876   -3.406716
      9          8           0       -1.845212    3.102182   -2.649360
     10          7           0       -0.450958    4.854290   -3.095025
     11          1           0        0.329487    5.121762   -3.680405
     12          6           0       -0.321629    5.165088   -1.687451
     13          1           0        0.162091    6.139254   -1.571005
     14          1           0       -1.316297    5.222535   -1.237460
     15          6           0        0.492381    4.054414   -0.990237
     16          8           0        1.026367    3.163028   -1.645072
     17          7           0        0.574185    4.121503    0.365384
     18          1           0        0.003175    4.819652    0.827118
     19          6           0        0.872999    2.921055    1.152299
     20          1           0        0.061850    2.191388    1.072381
     21          1           0        0.961883    3.224709    2.199867
     22          6           0        2.144535    2.175748    0.747207
     23          8           0        2.157140    0.951378    0.706655
     24          7           0        3.250703    2.920250    0.484364
     25          1           0        3.207469    3.927337    0.546677
     26          6           0        4.497279    2.251016    0.139086
     27          1           0        5.253453    3.013371   -0.067291
     28          1           0        4.848638    1.623368    0.961383
     29          6           0        4.353054    1.327801   -1.077256
     30          8           0        4.961767    0.265212   -1.148279
     31          7           0        3.540975    1.790583   -2.073366
     32          1           0        2.847600    2.491234   -1.824451
     33          6           0        3.136502    0.871045   -3.127416
     34          1           0        4.007727    0.277008   -3.412135
     35          1           0        2.778538    1.431065   -3.992758
     36          6           0        2.005052   -0.013845   -2.609683
     37          8           0        0.810737    0.215893   -2.877838
     38          7           0        2.370266   -1.009914   -1.789175
     39          1           0        3.345488   -1.029478   -1.497029
     40          6           0        1.385235   -1.683382   -0.946702
     41          1           0        1.899736   -2.484187   -0.413051
     42          1           0        0.988046   -0.972245   -0.215160
     43          6           0        0.283071   -2.324001   -1.792521
     44          8           0        0.508662   -3.285475   -2.523636
     45          7           0       -0.953521   -1.768086   -1.646744
     46          1           0       -0.970706   -0.817414   -1.301065
     47          6           0       -2.038448   -2.147150   -2.543356
     48          1           0       -2.115987   -3.236766   -2.551550
     49          1           0       -2.970322   -1.722005   -2.170140
     50          6           0       -1.801296   -1.607111   -3.960254
     51          8           0       -2.308436   -0.553255   -4.358682
     52          7           0       -0.988097   -2.380863   -4.720777
     53          1           0       -0.453693   -3.098226   -4.228331
     54          6           0       -0.567178   -1.970204   -6.047288
     55          1           0       -0.472693   -2.850960   -6.688004
     56          1           0       -1.319267   -1.295667   -6.454825
     57          6           0        0.771988   -1.247190   -5.991571
     58          8           0        0.934565   -0.041611   -6.104713
     59          8           0        1.777464   -2.095716   -5.768898
     60          1           0        2.607506   -1.585118   -5.708503
 ---------------------------------------------------------------------

 SCF Done:  E(RB3LYP) =  -1741.05949353     A.U. after    1 cycles

 Alpha  occ. eigenvalues --  -19.31820 -19.27035 -19.25795 -19.24760 -19.24130
 Alpha  occ. eigenvalues --  -19.22888 -19.22798 -19.21910 -19.21701 -14.53212
 Alpha  occ. eigenvalues --  -14.49938 -14.49218 -14.47610 -14.46842 -14.46778
 Alpha  occ. eigenvalues --  -14.46285 -14.45781 -10.44713 -10.42605 -10.42161
 Alpha  occ. eigenvalues --  -10.40288 -10.40228 -10.39790 -10.38953 -10.38929
 Alpha  occ. eigenvalues --  -10.37582 -10.36164 -10.35183 -10.34337 -10.33493
 Alpha  occ. eigenvalues --  -10.33279 -10.32736 -10.32423  -1.23136  -1.18194
 Alpha  occ. eigenvalues --   -1.16719  -1.15615  -1.14971  -1.14603  -1.14054
 Alpha  occ. eigenvalues --   -1.13529  -1.13381  -1.09009  -1.05955  -1.05643
 Alpha  occ. eigenvalues --   -1.03832  -1.03445  -1.03262  -1.02407  -1.01754
 Alpha  occ. eigenvalues --   -0.89414  -0.87652  -0.87119  -0.85834  -0.83830
 Alpha  occ. eigenvalues --   -0.82327  -0.80835  -0.79009  -0.74001  -0.73152
 Alpha  occ. eigenvalues --   -0.71750  -0.70939  -0.70186  -0.69470  -0.69178
 Alpha  occ. eigenvalues --   -0.68394  -0.67605  -0.67252  -0.66208  -0.64702
 Alpha  occ. eigenvalues --   -0.64029  -0.63581  -0.63491  -0.62340  -0.61819
 Alpha  occ. eigenvalues --   -0.61095  -0.60746  -0.60540  -0.59967  -0.58639
 Alpha  occ. eigenvalues --   -0.58495  -0.58128  -0.57711  -0.57237  -0.56697
 Alpha  occ. eigenvalues --   -0.56370  -0.55711  -0.54903  -0.54700  -0.54066
 Alpha  occ. eigenvalues --   -0.53477  -0.53122  -0.52837  -0.52499  -0.52087
 Alpha  occ. eigenvalues --   -0.51763  -0.51701  -0.50935  -0.50767  -0.50352
 Alpha  occ. eigenvalues --   -0.50281  -0.49341  -0.49025  -0.48828  -0.48469
 Alpha  occ. eigenvalues --   -0.48180  -0.47860  -0.46856  -0.46389  -0.44187
 Alpha  occ. eigenvalues --   -0.41691  -0.40735  -0.39766  -0.39453  -0.39102
 Alpha  occ. eigenvalues --   -0.38477  -0.38275  -0.37957  -0.37760  -0.36601
 Alpha  occ. eigenvalues --   -0.36378  -0.35713  -0.35183  -0.34618  -0.34149
 Alpha virt. eigenvalues --   -0.12362  -0.12210  -0.11192  -0.10356  -0.09545
 Alpha virt. eigenvalues --   -0.09292  -0.08089  -0.07824  -0.05887  -0.04457
 Alpha virt. eigenvalues --   -0.04202  -0.01966  -0.01614  -0.00754   0.00509

 Mulliken charges:
               1
     1  N   -0.796962
     2  H    0.438627
     3  H    0.435091
     4  H    0.420430
     5  C   -0.261581
     6  H    0.234450
     7  H    0.194504
     8  C    0.631076
     9  O   -0.491278
    10  N   -0.559314
    11  H    0.343106
    12  C   -0.263352
    13  H    0.204493
    14  H    0.223139
    15  C    0.621763
    16  O   -0.523906
    17  N   -0.603841
    18  H    0.353701
    19  C   -0.234181
    20  H    0.205560
    21  H    0.202305
    22  C    0.620648
    23  O   -0.509212
    24  N   -0.600435
    25  H    0.344100
    26  C   -0.212863
    27  H    0.193339
    28  H    0.216068
    29  C    0.605633
    30  O   -0.522562
    31  N   -0.589939
    32  H    0.385415
    33  C   -0.243073
    34  H    0.201388
    35  H    0.166892
    36  C    0.621172
    37  O   -0.588652
    38  N   -0.558462
    39  H    0.389486
    40  C   -0.227759
    41  H    0.204938
    42  H    0.200423
    43  C    0.607970
    44  O   -0.520012
    45  N   -0.551841
    46  H    0.348001
    47  C   -0.239583
    48  H    0.206149
    49  H    0.198743
    50  C    0.605836
    51  O   -0.560633
    52  N   -0.575337
    53  H    0.394577
    54  C   -0.211800
    55  H    0.211233
    56  H    0.206116
    57  C    0.604140
    58  O   -0.500365
    59  O   -0.521314
    60  H    0.427746
 Sum of Mulliken charges =   1.00000

 Dipole moment (field-independent basis, Debye):
    X=              2.9949    Y=             13.4837    Z=            -12.6334  Tot=             18.7185
 Quadrupole moment (field-independent basis, Debye-Ang):
   XX=           -176.6593   YY=           -108.3335   ZZ=           -101.7485
   XY=             20.7810   XZ=             -3.6574   YZ=             -8.1383

 Normal termination of Gaussian 16 at Tue Jul 19 19:28:54 2022.
