 Gaussian 16, Revision C.01,
 Gaussian 16:  ES64L-G16RevC.01  3-Jul-2019

 ----------------------------------------------------------------------
 # B3LYP/6-31G* empiricaldispersion=gd3bj guess=read geom=check nosymm
 integral(ultrafinegrid)
 ----------------------------------------------------------------------

 ------------------------------------------------------
 Candidate Structure: Conf:394 Charge calc in gas phase
 ------------------------------------------------------
 Structure from the checkpoint file:  "conf-394.chk"
 Charge =  1 Multiplicity = 1

                          Input orientation:
 ---------------------------------------------------------------------
 Center     Atomic      Atomic             Coordinates (Angstroms)
 Number     Number       Type             X           Y           Z
 ---------------------------------------------------------------------
      1          7           0       -3.764747    0.120898   -0.119686
      2          1           0       -3.858221   -0.866693   -0.366063
      3          1           0       -3.391803    0.677538   -0.908764
      4          1           0       -3.079891    0.270911    0.681166
      5          6           0       -5.056325    0.772504    0.261428
      6          1           0       -5.326327    0.451082    1.267976
      7          1           0       -5.832893    0.475072   -0.448006
      8          6           0       -4.745556    2.275549    0.160424
      9          8           0       -3.846243    2.626764   -0.598387
     10          7           0       -5.433138    3.114647    0.956801
     11          1           0       -6.172509    2.763805    1.550955
     12          6           0       -4.981722    4.502204    1.091649
     13          1           0       -4.982511    5.002187    0.122354
     14          1           0       -5.671594    5.023199    1.759655
     15          6           0       -3.539111    4.580707    1.633139
     16          8           0       -2.774327    5.451883    1.270136
     17          7           0       -3.225726    3.616659    2.561577
     18          1           0       -3.874321    2.848602    2.664206
     19          6           0       -1.850427    3.252074    2.804372
     20          1           0       -1.631962    3.221830    3.879687
     21          1           0       -1.213492    4.018719    2.354923
     22          6           0       -1.559834    1.869897    2.213649
     23          8           0       -2.501475    1.076111    1.974218
     24          7           0       -0.282031    1.565865    2.026960
     25          1           0        0.473422    2.215552    2.258721
     26          6           0        0.212472    0.270034    1.612214
     27          1           0       -0.217186   -0.524988    2.232009
     28          1           0       -0.048707    0.062305    0.566581
     29          6           0        1.744847    0.325947    1.767639
     30          8           0        2.286195    1.364850    2.144152
     31          7           0        2.391576   -0.805087    1.463282
     32          1           0        1.925881   -1.655167    1.149041
     33          6           0        3.829746   -0.941284    1.541403
     34          1           0        4.186219   -0.752328    2.561035
     35          1           0        4.327692   -0.218052    0.884289
     36          6           0        4.152397   -2.377969    1.107615
     37          8           0        3.252090   -3.143029    0.755200
     38          7           0        5.450492   -2.712851    1.146455
     39          1           0        6.175013   -2.073657    1.461664
     40          6           0        5.928506   -4.029806    0.787609
     41          1           0        5.324122   -4.801793    1.275854
     42          1           0        5.872591   -4.188629   -0.296476
     43          6           0        7.392848   -4.114639    1.205563
     44          8           0        8.002000   -3.111403    1.587110
     45          7           0        7.953468   -5.343426    1.131089
     46          1           0        7.450769   -6.061089    0.623581
     47          6           0        9.402713   -5.519635    1.246130
     48          1           0        9.755634   -4.892969    2.067668
     49          1           0        9.615695   -6.566473    1.461441
     50          6           0       10.049800   -5.143590   -0.091601
     51          8           0       10.330605   -5.979295   -0.936344
     52          7           0       10.198977   -3.791772   -0.275746
     53          1           0        9.710145   -3.200372    0.390981
     54          6           0       10.305086   -3.303472   -1.627835
     55          1           0       10.697539   -2.282153   -1.639707
     56          1           0       11.000122   -3.934107   -2.187141
     57          6           0        8.955870   -3.327216   -2.338913
     58          8           0        7.900285   -3.651057   -1.836429
     59          8           0        9.076957   -2.928070   -3.618427
     60          1           0        8.188712   -2.976012   -4.019445
 ---------------------------------------------------------------------

 SCF Done:  E(RB3LYP) =  -1741.01580135     A.U. after    1 cycles

 Alpha  occ. eigenvalues --  -19.27221 -19.26392 -19.26296 -19.22087 -19.21918
 Alpha  occ. eigenvalues --  -19.21073 -19.20536 -19.20396 -19.17525 -14.59337
 Alpha  occ. eigenvalues --  -14.51474 -14.48950 -14.46539 -14.45763 -14.44613
 Alpha  occ. eigenvalues --  -14.44291 -14.41435 -10.44636 -10.42477 -10.41062
 Alpha  occ. eigenvalues --  -10.39461 -10.39455 -10.38915 -10.37636 -10.37511
 Alpha  occ. eigenvalues --  -10.35039 -10.34961 -10.34562 -10.34214 -10.32032
 Alpha  occ. eigenvalues --  -10.30782 -10.29561 -10.29472  -1.19961  -1.17429
 Alpha  occ. eigenvalues --   -1.17271  -1.14240  -1.14213  -1.13605  -1.12724
 Alpha  occ. eigenvalues --   -1.11975  -1.09527  -1.08364  -1.07506  -1.05384
 Alpha  occ. eigenvalues --   -1.03090  -1.02369  -1.00920  -1.00577  -0.98263
 Alpha  occ. eigenvalues --   -0.90800  -0.88194  -0.85598  -0.84461  -0.82724
 Alpha  occ. eigenvalues --   -0.81137  -0.79425  -0.76718  -0.74997  -0.74261
 Alpha  occ. eigenvalues --   -0.73488  -0.71407  -0.69468  -0.69076  -0.68821
 Alpha  occ. eigenvalues --   -0.67417  -0.67098  -0.66467  -0.66215  -0.63902
 Alpha  occ. eigenvalues --   -0.63663  -0.63145  -0.61491  -0.61225  -0.60061
 Alpha  occ. eigenvalues --   -0.59889  -0.59216  -0.58611  -0.58207  -0.57192
 Alpha  occ. eigenvalues --   -0.56896  -0.56521  -0.56389  -0.55682  -0.55390
 Alpha  occ. eigenvalues --   -0.55112  -0.55039  -0.54316  -0.54130  -0.53696
 Alpha  occ. eigenvalues --   -0.53362  -0.52532  -0.52349  -0.51603  -0.51465
 Alpha  occ. eigenvalues --   -0.50402  -0.49795  -0.49336  -0.48695  -0.47899
 Alpha  occ. eigenvalues --   -0.47327  -0.47139  -0.46909  -0.46742  -0.46500
 Alpha  occ. eigenvalues --   -0.45692  -0.44463  -0.43759  -0.43100  -0.41827
 Alpha  occ. eigenvalues --   -0.41326  -0.40773  -0.39420  -0.38697  -0.36790
 Alpha  occ. eigenvalues --   -0.36322  -0.35962  -0.35533  -0.35340  -0.35152
 Alpha  occ. eigenvalues --   -0.34850  -0.34087  -0.33529  -0.32046  -0.30253
 Alpha virt. eigenvalues --   -0.13787  -0.11142  -0.09705  -0.08610  -0.07632
 Alpha virt. eigenvalues --   -0.06678  -0.06589  -0.05589  -0.05527  -0.03854
 Alpha virt. eigenvalues --   -0.03743  -0.02324  -0.01603  -0.00876  -0.00208

 Mulliken charges:
               1
     1  N   -0.752009
     2  H    0.406351
     3  H    0.418376
     4  H    0.446038
     5  C   -0.278844
     6  H    0.225794
     7  H    0.242134
     8  C    0.646078
     9  O   -0.498982
    10  N   -0.610889
    11  H    0.356184
    12  C   -0.233457
    13  H    0.233869
    14  H    0.208632
    15  C    0.596293
    16  O   -0.467821
    17  N   -0.565087
    18  H    0.322763
    19  C   -0.243097
    20  H    0.209954
    21  H    0.229402
    22  C    0.639716
    23  O   -0.617390
    24  N   -0.584696
    25  H    0.385941
    26  C   -0.212499
    27  H    0.199278
    28  H    0.178478
    29  C    0.620018
    30  O   -0.520951
    31  N   -0.623366
    32  H    0.360427
    33  C   -0.198118
    34  H    0.201826
    35  H    0.201939
    36  C    0.612528
    37  O   -0.538503
    38  N   -0.622838
    39  H    0.363512
    40  C   -0.198878
    41  H    0.193906
    42  H    0.222030
    43  C    0.627099
    44  O   -0.549139
    45  N   -0.582567
    46  H    0.351310
    47  C   -0.244993
    48  H    0.199758
    49  H    0.193118
    50  C    0.587153
    51  O   -0.495307
    52  N   -0.569515
    53  H    0.364674
    54  C   -0.240984
    55  H    0.197319
    56  H    0.229959
    57  C    0.589280
    58  O   -0.478992
    59  O   -0.549272
    60  H    0.417052
 Sum of Mulliken charges =   1.00000

 Dipole moment (field-independent basis, Debye):
    X=            -11.5269    Y=             -1.6908    Z=              3.9402  Tot=             12.2986
 Quadrupole moment (field-independent basis, Debye-Ang):
   XX=            -47.9488   YY=           -185.8352   ZZ=           -168.5894
   XY=            -30.9799   XZ=            -11.5335   YZ=              2.8920

 Normal termination of Gaussian 16 at Tue Jul 19 19:28:46 2022.
