 Gaussian 16, Revision C.01,
 Gaussian 16:  ES64L-G16RevC.01  3-Jul-2019

 ----------------------------------------------------------------------
 # B3LYP/6-31G* empiricaldispersion=gd3bj guess=read geom=check nosymm
 integral(ultrafinegrid)
 ----------------------------------------------------------------------

 ------------------------------------------------------
 Candidate Structure: Conf:549 Charge calc in gas phase
 ------------------------------------------------------
 Structure from the checkpoint file:  "conf-549.chk"
 Charge =  1 Multiplicity = 1

                          Input orientation:
 ---------------------------------------------------------------------
 Center     Atomic      Atomic             Coordinates (Angstroms)
 Number     Number       Type             X           Y           Z
 ---------------------------------------------------------------------
      1          7           0       -0.756087    1.072457   -3.978684
      2          1           0       -1.375310    0.521752   -4.575995
      3          1           0        0.229182    0.954194   -4.334355
      4          1           0       -0.760345    0.697455   -3.001465
      5          6           0       -1.176217    2.495651   -3.826408
      6          1           0       -2.223550    2.602537   -4.118624
      7          1           0       -0.544229    3.131096   -4.445488
      8          6           0       -0.974185    2.801268   -2.329636
      9          8           0       -0.732687    1.864112   -1.575190
     10          7           0       -1.137523    4.084935   -1.942646
     11          1           0       -1.202646    4.771508   -2.684333
     12          6           0       -0.523542    4.568310   -0.698123
     13          1           0        0.555307    4.393597   -0.731521
     14          1           0       -0.701842    5.644760   -0.637021
     15          6           0       -1.016116    3.914544    0.590435
     16          8           0       -0.318094    3.997046    1.596613
     17          7           0       -2.218463    3.285067    0.557829
     18          1           0       -2.629632    3.127121   -0.350726
     19          6           0       -2.548894    2.306257    1.592511
     20          1           0       -3.601432    2.038511    1.503557
     21          1           0       -2.369191    2.761720    2.568532
     22          6           0       -1.701988    1.038684    1.392608
     23          8           0       -2.126159    0.052217    0.807109
     24          7           0       -0.434811    1.145478    1.896376
     25          1           0       -0.130039    2.072105    2.182949
     26          6           0        0.556310    0.140944    1.617977
     27          1           0        0.873700   -0.367675    2.537899
     28          1           0        0.078884   -0.608073    0.974327
     29          6           0        1.775325    0.696169    0.886051
     30          8           0        1.696971    1.631005    0.081748
     31          7           0        2.943042    0.090742    1.211961
     32          1           0        2.898540   -0.736200    1.792427
     33          6           0        4.185329    0.355356    0.532952
     34          1           0        5.008179    0.343096    1.256153
     35          1           0        4.133572    1.361252    0.107868
     36          6           0        4.457201   -0.661392   -0.584647
     37          8           0        3.622254   -1.497477   -0.922491
     38          7           0        5.693059   -0.579456   -1.136822
     39          1           0        6.303828    0.187019   -0.889401
     40          6           0        6.121069   -1.494669   -2.189382
     41          1           0        7.203310   -1.422778   -2.296408
     42          1           0        5.850858   -2.513325   -1.898685
     43          6           0        5.487929   -1.115596   -3.530345
     44          8           0        6.060968   -0.371077   -4.329789
     45          7           0        4.251198   -1.631010   -3.739785
     46          1           0        3.761170   -1.982481   -2.919174
     47          6           0        3.492839   -1.307495   -4.939259
     48          1           0        4.171372   -1.350927   -5.796260
     49          1           0        2.698764   -2.042230   -5.070512
     50          6           0        2.851681    0.077782   -4.850958
     51          8           0        1.617037    0.212302   -4.802672
     52          7           0        3.711273    1.105956   -4.799908
     53          1           0        4.707338    0.875442   -4.776146
     54          6           0        3.251824    2.447237   -4.515880
     55          1           0        4.124532    3.105071   -4.468978
     56          1           0        2.595144    2.817537   -5.307093
     57          6           0        2.484726    2.564041   -3.198711
     58          8           0        1.539052    3.327056   -3.080698
     59          8           0        2.967311    1.786936   -2.242036
     60          1           0        2.422720    1.842904   -1.397663
 ---------------------------------------------------------------------

 SCF Done:  E(RB3LYP) =  -1741.05342276     A.U. after    1 cycles

 Alpha  occ. eigenvalues --  -19.29109 -19.26190 -19.25072 -19.24936 -19.23527
 Alpha  occ. eigenvalues --  -19.23450 -19.22793 -19.20879 -19.19381 -14.56726
 Alpha  occ. eigenvalues --  -14.49523 -14.48067 -14.47814 -14.47544 -14.46852
 Alpha  occ. eigenvalues --  -14.45581 -14.43618 -10.43292 -10.43184 -10.41167
 Alpha  occ. eigenvalues --  -10.40453 -10.40349 -10.39655 -10.38889 -10.38518
 Alpha  occ. eigenvalues --  -10.36529 -10.34655 -10.34430 -10.33795 -10.33685
 Alpha  occ. eigenvalues --  -10.33606 -10.32001 -10.31114  -1.20805  -1.18686
 Alpha  occ. eigenvalues --   -1.16259  -1.15675  -1.14876  -1.14263  -1.13151
 Alpha  occ. eigenvalues --   -1.12046  -1.11523  -1.11134  -1.05858  -1.04554
 Alpha  occ. eigenvalues --   -1.04113  -1.04011  -1.02932  -1.01702  -1.00253
 Alpha  occ. eigenvalues --   -0.89049  -0.88468  -0.86948  -0.84904  -0.83898
 Alpha  occ. eigenvalues --   -0.81983  -0.80340  -0.78001  -0.73865  -0.72333
 Alpha  occ. eigenvalues --   -0.72130  -0.71562  -0.71027  -0.70165  -0.69498
 Alpha  occ. eigenvalues --   -0.68576  -0.68174  -0.66168  -0.65678  -0.65478
 Alpha  occ. eigenvalues --   -0.64920  -0.63562  -0.62498  -0.61996  -0.61301
 Alpha  occ. eigenvalues --   -0.61044  -0.59894  -0.59716  -0.58984  -0.58850
 Alpha  occ. eigenvalues --   -0.58455  -0.57902  -0.57203  -0.57037  -0.56314
 Alpha  occ. eigenvalues --   -0.55551  -0.55137  -0.54827  -0.53835  -0.53633
 Alpha  occ. eigenvalues --   -0.53407  -0.53054  -0.52639  -0.52527  -0.51824
 Alpha  occ. eigenvalues --   -0.51477  -0.51115  -0.50893  -0.49739  -0.49617
 Alpha  occ. eigenvalues --   -0.49161  -0.48870  -0.48376  -0.48347  -0.47745
 Alpha  occ. eigenvalues --   -0.47582  -0.46773  -0.46010  -0.44892  -0.42430
 Alpha  occ. eigenvalues --   -0.40890  -0.40169  -0.40093  -0.39438  -0.39104
 Alpha  occ. eigenvalues --   -0.38266  -0.37635  -0.36993  -0.36816  -0.36431
 Alpha  occ. eigenvalues --   -0.35998  -0.35213  -0.34796  -0.33535  -0.32199
 Alpha virt. eigenvalues --   -0.12237  -0.11046  -0.09994  -0.09408  -0.09213
 Alpha virt. eigenvalues --   -0.08544  -0.08080  -0.07726  -0.05571  -0.04445
 Alpha virt. eigenvalues --   -0.02725  -0.02218  -0.01986  -0.00758   0.00720

 Mulliken charges:
               1
     1  N   -0.774367
     2  H    0.403595
     3  H    0.455769
     4  H    0.423204
     5  C   -0.268349
     6  H    0.224245
     7  H    0.238234
     8  C    0.638972
     9  O   -0.494567
    10  N   -0.602992
    11  H    0.354156
    12  C   -0.233609
    13  H    0.227586
    14  H    0.203386
    15  C    0.633986
    16  O   -0.530124
    17  N   -0.558990
    18  H    0.340463
    19  C   -0.246191
    20  H    0.190605
    21  H    0.201863
    22  C    0.602243
    23  O   -0.513584
    24  N   -0.585825
    25  H    0.376433
    26  C   -0.224192
    27  H    0.169611
    28  H    0.227767
    29  C    0.624427
    30  O   -0.550058
    31  N   -0.556496
    32  H    0.354642
    33  C   -0.262106
    34  H    0.197600
    35  H    0.212276
    36  C    0.626605
    37  O   -0.525711
    38  N   -0.585632
    39  H    0.352482
    40  C   -0.232404
    41  H    0.203786
    42  H    0.202632
    43  C    0.600978
    44  O   -0.527733
    45  N   -0.572017
    46  H    0.381894
    47  C   -0.244465
    48  H    0.215188
    49  H    0.195043
    50  C    0.624832
    51  O   -0.585960
    52  N   -0.569085
    53  H    0.398504
    54  C   -0.219302
    55  H    0.209604
    56  H    0.192767
    57  C    0.589317
    58  O   -0.510372
    59  O   -0.595461
    60  H    0.474898
 Sum of Mulliken charges =   1.00000

 Dipole moment (field-independent basis, Debye):
    X=              7.0364    Y=              6.7386    Z=            -13.3386  Tot=             16.5178
 Quadrupole moment (field-independent basis, Debye-Ang):
   XX=           -117.8446   YY=           -153.4275   ZZ=           -117.0540
   XY=            -18.8614   XZ=              6.9328   YZ=            -27.3375

 Normal termination of Gaussian 16 at Tue Jul 19 19:29:00 2022.
