 Gaussian 16, Revision C.01,
 Gaussian 16:  ES64L-G16RevC.01  3-Jul-2019

 ----------------------------------------------------------------------
 # B3LYP/6-31G* empiricaldispersion=gd3bj guess=read geom=check nosymm
 integral(ultrafinegrid)
 ----------------------------------------------------------------------

 ------------------------------------------------------
 Candidate Structure: Conf:474 Charge calc in gas phase
 ------------------------------------------------------
 Structure from the checkpoint file:  "conf-474.chk"
 Charge =  1 Multiplicity = 1

                          Input orientation:
 ---------------------------------------------------------------------
 Center     Atomic      Atomic             Coordinates (Angstroms)
 Number     Number       Type             X           Y           Z
 ---------------------------------------------------------------------
      1          7           0       -4.435633    0.859694   -1.880570
      2          1           0       -3.667027    0.181787   -2.223437
      3          1           0       -5.208691    0.253905   -1.544633
      4          1           0       -4.749983    1.465538   -2.640595
      5          6           0       -3.971464    1.601921   -0.673138
      6          1           0       -4.585099    2.496222   -0.537896
      7          1           0       -2.928162    1.895907   -0.796566
      8          6           0       -4.191301    0.624214    0.497329
      9          8           0       -5.044463   -0.249484    0.362160
     10          7           0       -3.439036    0.843677    1.589709
     11          1           0       -2.613301    1.439025    1.497912
     12          6           0       -3.341483   -0.171463    2.645138
     13          1           0       -3.506446    0.285045    3.625975
     14          1           0       -4.098349   -0.932620    2.460741
     15          6           0       -1.936327   -0.751237    2.467143
     16          8           0       -1.690375   -1.539289    1.565641
     17          7           0       -0.973820   -0.189190    3.263354
     18          1           0       -1.280642    0.541480    3.893059
     19          6           0        0.359596   -0.031044    2.727699
     20          1           0        0.584531   -0.903113    2.103546
     21          1           0        1.097633    0.015358    3.533386
     22          6           0        0.424687    1.228909    1.843334
     23          8           0       -0.594514    1.763924    1.387598
     24          7           0        1.669884    1.686133    1.603644
     25          1           0        2.469173    1.116994    1.865538
     26          6           0        1.960618    2.705720    0.613850
     27          1           0        1.027559    2.971108    0.112413
     28          1           0        2.359978    3.609589    1.091379
     29          6           0        3.007033    2.139805   -0.347478
     30          8           0        3.800581    1.282913    0.042229
     31          7           0        3.004622    2.638199   -1.607564
     32          1           0        2.218884    3.202177   -1.902583
     33          6           0        3.800673    2.003857   -2.663339
     34          1           0        4.815378    1.848836   -2.292341
     35          1           0        3.822521    2.661018   -3.532173
     36          6           0        3.091851    0.695360   -3.030468
     37          8           0        2.173620    0.677157   -3.852495
     38          7           0        3.464917   -0.370990   -2.280451
     39          1           0        4.038272   -0.164816   -1.467790
     40          6           0        2.655793   -1.581837   -2.223694
     41          1           0        2.354357   -1.860858   -3.237064
     42          1           0        3.247083   -2.388343   -1.791144
     43          6           0        1.401269   -1.406113   -1.362185
     44          8           0        1.192739   -2.075577   -0.349237
     45          7           0        0.540069   -0.448146   -1.804856
     46          1           0        0.715050   -0.066043   -2.733642
     47          6           0       -0.765066   -0.272788   -1.188969
     48          1           0       -0.673332   -0.376720   -0.109316
     49          1           0       -1.130999    0.726655   -1.427920
     50          6           0       -1.751644   -1.315211   -1.711904
     51          8           0       -2.703512   -1.020717   -2.468067
     52          7           0       -1.473892   -2.569991   -1.348539
     53          1           0       -0.655113   -2.694605   -0.752510
     54          6           0       -1.984772   -3.711094   -2.067374
     55          1           0       -2.092804   -4.568681   -1.397831
     56          1           0       -2.970465   -3.476021   -2.475019
     57          6           0       -1.038390   -4.068954   -3.211873
     58          8           0       -0.036308   -3.452043   -3.496243
     59          8           0       -1.469702   -5.161699   -3.861926
     60          1           0       -0.834327   -5.346595   -4.579892
 ---------------------------------------------------------------------

 SCF Done:  E(RB3LYP) =  -1741.04575142     A.U. after    2 cycles

 Alpha  occ. eigenvalues --  -19.28829 -19.25387 -19.24480 -19.24387 -19.23825
 Alpha  occ. eigenvalues --  -19.23481 -19.22760 -19.22105 -19.21793 -14.56552
 Alpha  occ. eigenvalues --  -14.48917 -14.48460 -14.48093 -14.47314 -14.46544
 Alpha  occ. eigenvalues --  -14.46081 -14.45894 -10.42684 -10.41577 -10.41108
 Alpha  occ. eigenvalues --  -10.40923 -10.40563 -10.40013 -10.39036 -10.38917
 Alpha  occ. eigenvalues --  -10.38846 -10.34644 -10.34085 -10.33954 -10.33482
 Alpha  occ. eigenvalues --  -10.33402 -10.33160 -10.31924  -1.19901  -1.17817
 Alpha  occ. eigenvalues --   -1.16303  -1.15652  -1.15607  -1.14621  -1.14003
 Alpha  occ. eigenvalues --   -1.13232  -1.11284  -1.11026  -1.05490  -1.04484
 Alpha  occ. eigenvalues --   -1.04220  -1.03851  -1.03653  -1.02681  -1.01758
 Alpha  occ. eigenvalues --   -0.89319  -0.88057  -0.87121  -0.85392  -0.83902
 Alpha  occ. eigenvalues --   -0.82357  -0.80299  -0.78899  -0.72901  -0.72336
 Alpha  occ. eigenvalues --   -0.71822  -0.71202  -0.70830  -0.70088  -0.69794
 Alpha  occ. eigenvalues --   -0.68813  -0.67894  -0.67588  -0.66418  -0.64791
 Alpha  occ. eigenvalues --   -0.64085  -0.63318  -0.62336  -0.61749  -0.61007
 Alpha  occ. eigenvalues --   -0.60883  -0.60346  -0.59955  -0.59265  -0.59080
 Alpha  occ. eigenvalues --   -0.58215  -0.57875  -0.57354  -0.57059  -0.56576
 Alpha  occ. eigenvalues --   -0.56293  -0.55763  -0.55396  -0.54418  -0.54168
 Alpha  occ. eigenvalues --   -0.52992  -0.52877  -0.52404  -0.52102  -0.51661
 Alpha  occ. eigenvalues --   -0.51442  -0.51176  -0.51139  -0.50626  -0.49825
 Alpha  occ. eigenvalues --   -0.49451  -0.49152  -0.48744  -0.48407  -0.48019
 Alpha  occ. eigenvalues --   -0.47767  -0.47510  -0.47029  -0.46678  -0.41104
 Alpha  occ. eigenvalues --   -0.40302  -0.39857  -0.39591  -0.39196  -0.39113
 Alpha  occ. eigenvalues --   -0.38550  -0.37993  -0.37766  -0.37063  -0.36962
 Alpha  occ. eigenvalues --   -0.36538  -0.35714  -0.35324  -0.34793  -0.33903
 Alpha virt. eigenvalues --   -0.12549  -0.10912  -0.10437  -0.09759  -0.08947
 Alpha virt. eigenvalues --   -0.08578  -0.08122  -0.07274  -0.06859  -0.04363
 Alpha virt. eigenvalues --   -0.02891  -0.02770  -0.01658  -0.01082  -0.00637

 Mulliken charges:
               1
     1  N   -0.765792
     2  H    0.453230
     3  H    0.417366
     4  H    0.399851
     5  C   -0.286816
     6  H    0.237572
     7  H    0.218863
     8  C    0.630932
     9  O   -0.503290
    10  N   -0.603814
    11  H    0.385499
    12  C   -0.235485
    13  H    0.181471
    14  H    0.234053
    15  C    0.574549
    16  O   -0.489392
    17  N   -0.540559
    18  H    0.339080
    19  C   -0.281262
    20  H    0.255798
    21  H    0.194757
    22  C    0.619171
    23  O   -0.561046
    24  N   -0.577696
    25  H    0.367244
    26  C   -0.227564
    27  H    0.187915
    28  H    0.213105
    29  C    0.619689
    30  O   -0.529244
    31  N   -0.578993
    32  H    0.346797
    33  C   -0.238088
    34  H    0.206767
    35  H    0.202688
    36  C    0.589998
    37  O   -0.530576
    38  N   -0.561769
    39  H    0.374725
    40  C   -0.250507
    41  H    0.228029
    42  H    0.198927
    43  C    0.602357
    44  O   -0.531302
    45  N   -0.593593
    46  H    0.383169
    47  C   -0.265331
    48  H    0.233616
    49  H    0.143087
    50  C    0.639235
    51  O   -0.597230
    52  N   -0.536185
    53  H    0.400931
    54  C   -0.247417
    55  H    0.216977
    56  H    0.224610
    57  C    0.589347
    58  O   -0.458769
    59  O   -0.547854
    60  H    0.428169
 Sum of Mulliken charges =   1.00000

 Dipole moment (field-independent basis, Debye):
    X=             -6.3687    Y=              5.9693    Z=             -2.9442  Tot=              9.2121
 Quadrupole moment (field-independent basis, Debye-Ang):
   XX=           -127.8194   YY=           -147.9542   ZZ=           -151.0353
   XY=             -7.9624   XZ=             10.3081   YZ=              7.3480

 Normal termination of Gaussian 16 at Tue Jul 19 19:29:04 2022.
