 Gaussian 16, Revision C.01,
 Gaussian 16:  ES64L-G16RevC.01  3-Jul-2019

 ----------------------------------------------------------------------
 # B3LYP/6-31G* empiricaldispersion=gd3bj guess=read geom=check nosymm
 integral(ultrafinegrid)
 ----------------------------------------------------------------------

 ------------------------------------------------------
 Candidate Structure: Conf:304 Charge calc in gas phase
 ------------------------------------------------------
 Structure from the checkpoint file:  "conf-304.chk"
 Charge =  1 Multiplicity = 1

                          Input orientation:
 ---------------------------------------------------------------------
 Center     Atomic      Atomic             Coordinates (Angstroms)
 Number     Number       Type             X           Y           Z
 ---------------------------------------------------------------------
      1          7           0        1.805371    1.476541    4.149387
      2          1           0        2.119962    1.056021    5.025341
      3          1           0        0.769411    1.592341    4.142638
      4          1           0        2.033983    0.819953    3.341458
      5          6           0        2.333600    2.858305    3.927146
      6          1           0        3.134387    2.835273    3.186910
      7          1           0        2.707876    3.281719    4.860199
      8          6           0        1.147513    3.648774    3.358913
      9          8           0        0.056519    3.072298    3.240083
     10          7           0        1.385101    4.901814    2.964850
     11          1           0        2.317841    5.287590    3.104064
     12          6           0        0.386642    5.596605    2.153220
     13          1           0       -0.562873    5.665646    2.685574
     14          1           0        0.752796    6.605992    1.950623
     15          6           0        0.109054    4.844330    0.834768
     16          8           0       -1.019123    4.741017    0.380266
     17          7           0        1.220267    4.305142    0.256182
     18          1           0        2.113575    4.319468    0.737493
     19          6           0        1.143661    3.364716   -0.838266
     20          1           0        1.919760    3.561558   -1.580521
     21          1           0        0.166424    3.485769   -1.317457
     22          6           0        1.286024    1.912724   -0.375768
     23          8           0        1.993353    1.085554   -0.952597
     24          7           0        0.540869    1.567350    0.711870
     25          1           0       -0.085069    2.247571    1.127796
     26          6           0        0.283031    0.168425    0.971376
     27          1           0       -0.372992    0.103246    1.845329
     28          1           0       -0.246632   -0.292900    0.128768
     29          6           0        1.540948   -0.636790    1.287185
     30          8           0        2.342096   -0.304507    2.189780
     31          7           0        1.671294   -1.782705    0.610287
     32          1           0        1.107414   -1.906648   -0.220419
     33          6           0        2.712991   -2.773461    0.867470
     34          1           0        2.365120   -3.738529    0.500166
     35          1           0        2.864141   -2.831020    1.948911
     36          6           0        4.035758   -2.453081    0.150248
     37          8           0        4.415568   -3.087506   -0.817942
     38          7           0        4.713290   -1.401220    0.699496
     39          1           0        4.310281   -0.951221    1.513538
     40          6           0        6.014953   -0.985342    0.217339
     41          1           0        6.815206   -1.247395    0.916563
     42          1           0        6.196922   -1.522198   -0.719352
     43          6           0        6.100660    0.516402   -0.017281
     44          8           0        7.143454    1.140066    0.192317
     45          7           0        4.968666    1.118567   -0.460495
     46          1           0        4.097508    0.611361   -0.575246
     47          6           0        4.949749    2.553475   -0.675686
     48          1           0        5.854182    2.857619   -1.208932
     49          1           0        4.071302    2.800522   -1.268271
     50          6           0        4.853221    3.255089    0.675547
     51          8           0        3.765758    3.567705    1.191631
     52          7           0        6.013738    3.471681    1.319575
     53          1           0        6.837718    2.984994    0.965599
     54          6           0        5.992949    3.996577    2.673029
     55          1           0        5.624534    3.260268    3.394507
     56          1           0        7.013759    4.275603    2.948177
     57          6           0        5.103062    5.229466    2.789343
     58          8           0        4.219621    5.366602    3.618140
     59          8           0        5.442245    6.170733    1.904622
     60          1           0        4.872482    6.948837    2.056319
 ---------------------------------------------------------------------

 SCF Done:  E(RB3LYP) =  -1741.06139055     A.U. after    2 cycles

 Alpha  occ. eigenvalues --  -19.32408 -19.27551 -19.27201 -19.26783 -19.25560
 Alpha  occ. eigenvalues --  -19.24238 -19.22394 -19.21762 -19.21575 -14.57429
 Alpha  occ. eigenvalues --  -14.50744 -14.49629 -14.48849 -14.48271 -14.47004
 Alpha  occ. eigenvalues --  -14.46509 -14.45829 -10.45715 -10.43837 -10.43496
 Alpha  occ. eigenvalues --  -10.41791 -10.40872 -10.39495 -10.39211 -10.39085
 Alpha  occ. eigenvalues --  -10.38665 -10.36641 -10.36351 -10.34658 -10.34291
 Alpha  occ. eigenvalues --  -10.34094 -10.33364 -10.32568  -1.23730  -1.18999
 Alpha  occ. eigenvalues --   -1.18517  -1.17092  -1.15836  -1.14575  -1.14357
 Alpha  occ. eigenvalues --   -1.13725  -1.13652  -1.12102  -1.06690  -1.06322
 Alpha  occ. eigenvalues --   -1.05336  -1.04893  -1.03767  -1.02323  -1.02154
 Alpha  occ. eigenvalues --   -0.89661  -0.89346  -0.88637  -0.86123  -0.84682
 Alpha  occ. eigenvalues --   -0.83214  -0.81042  -0.80114  -0.75526  -0.74017
 Alpha  occ. eigenvalues --   -0.73043  -0.72706  -0.71343  -0.71267  -0.70502
 Alpha  occ. eigenvalues --   -0.69642  -0.69121  -0.68905  -0.66489  -0.65968
 Alpha  occ. eigenvalues --   -0.65665  -0.65217  -0.64291  -0.63123  -0.62996
 Alpha  occ. eigenvalues --   -0.62030  -0.61660  -0.61190  -0.60518  -0.59568
 Alpha  occ. eigenvalues --   -0.59480  -0.58539  -0.58394  -0.58011  -0.56971
 Alpha  occ. eigenvalues --   -0.56863  -0.56063  -0.55899  -0.55617  -0.55362
 Alpha  occ. eigenvalues --   -0.54362  -0.53989  -0.53729  -0.53264  -0.52839
 Alpha  occ. eigenvalues --   -0.52770  -0.52129  -0.51951  -0.51634  -0.51165
 Alpha  occ. eigenvalues --   -0.50705  -0.50485  -0.50087  -0.49820  -0.49265
 Alpha  occ. eigenvalues --   -0.48312  -0.47693  -0.47147  -0.46630  -0.44873
 Alpha  occ. eigenvalues --   -0.42334  -0.41513  -0.41237  -0.41204  -0.40476
 Alpha  occ. eigenvalues --   -0.40282  -0.39086  -0.38947  -0.38434  -0.37417
 Alpha  occ. eigenvalues --   -0.36016  -0.35421  -0.35057  -0.34866  -0.34660
 Alpha virt. eigenvalues --   -0.12867  -0.12787  -0.12324  -0.11567  -0.10780
 Alpha virt. eigenvalues --   -0.08965  -0.08648  -0.08261  -0.07732  -0.04903
 Alpha virt. eigenvalues --   -0.04441  -0.02820  -0.01948  -0.01023  -0.00782

 Mulliken charges:
               1
     1  N   -0.786408
     2  H    0.399377
     3  H    0.409583
     4  H    0.454077
     5  C   -0.287847
     6  H    0.257631
     7  H    0.235113
     8  C    0.623022
     9  O   -0.543618
    10  N   -0.612215
    11  H    0.397373
    12  C   -0.232691
    13  H    0.225524
    14  H    0.196927
    15  C    0.583605
    16  O   -0.496331
    17  N   -0.608786
    18  H    0.383420
    19  C   -0.247045
    20  H    0.190222
    21  H    0.229460
    22  C    0.609729
    23  O   -0.544592
    24  N   -0.594126
    25  H    0.391091
    26  C   -0.241605
    27  H    0.196414
    28  H    0.189728
    29  C    0.671730
    30  O   -0.600757
    31  N   -0.556262
    32  H    0.370598
    33  C   -0.253532
    34  H    0.214248
    35  H    0.195752
    36  C    0.598579
    37  O   -0.470123
    38  N   -0.619863
    39  H    0.351418
    40  C   -0.213202
    41  H    0.196915
    42  H    0.237270
    43  C    0.590837
    44  O   -0.537798
    45  N   -0.591545
    46  H    0.386288
    47  C   -0.230478
    48  H    0.207512
    49  H    0.196981
    50  C    0.604801
    51  O   -0.572701
    52  N   -0.566114
    53  H    0.394707
    54  C   -0.190363
    55  H    0.180103
    56  H    0.217817
    57  C    0.604283
    58  O   -0.500075
    59  O   -0.522006
    60  H    0.427944
 Sum of Mulliken charges =   1.00000

 Dipole moment (field-independent basis, Debye):
    X=             13.5016    Y=             10.1621    Z=             14.4178  Tot=             22.2135
 Quadrupole moment (field-independent basis, Debye-Ang):
   XX=           -143.3568   YY=           -123.4874   ZZ=           -131.7969
   XY=             56.8325   XZ=             43.4401   YZ=             24.3045

 Normal termination of Gaussian 16 at Tue Jul 19 19:29:06 2022.
