 Gaussian 16, Revision C.01,
 Gaussian 16:  ES64L-G16RevC.01  3-Jul-2019

 ----------------------------------------------------------------------
 # B3LYP/6-31G* empiricaldispersion=gd3bj guess=read geom=check nosymm
 integral(ultrafinegrid)
 ----------------------------------------------------------------------

 ------------------------------------------------------
 Candidate Structure: Conf:578 Charge calc in gas phase
 ------------------------------------------------------
 Structure from the checkpoint file:  "conf-578.chk"
 Charge =  1 Multiplicity = 1

                          Input orientation:
 ---------------------------------------------------------------------
 Center     Atomic      Atomic             Coordinates (Angstroms)
 Number     Number       Type             X           Y           Z
 ---------------------------------------------------------------------
      1          7           0       -0.879300   -0.241495    0.434031
      2          1           0       -0.807320   -1.159196   -0.010303
      3          1           0       -1.167406    0.445564   -0.291606
      4          1           0        0.098179   -0.016209    0.803395
      5          6           0       -1.964047   -0.185173    1.454856
      6          1           0       -1.555740    0.240380    2.371345
      7          1           0       -2.348000   -1.188557    1.650503
      8          6           0       -3.039882    0.753025    0.879222
      9          8           0       -2.865122    1.260473   -0.227107
     10          7           0       -4.107332    1.014766    1.658008
     11          1           0       -4.221953    0.531518    2.538954
     12          6           0       -5.060522    2.058922    1.269806
     13          1           0       -5.511983    1.829141    0.303622
     14          1           0       -5.844791    2.100628    2.029699
     15          6           0       -4.365422    3.427239    1.123330
     16          8           0       -4.608281    4.172420    0.195384
     17          7           0       -3.466739    3.723735    2.128892
     18          1           0       -3.201437    2.943102    2.716816
     19          6           0       -2.337978    4.583533    1.809327
     20          1           0       -1.950478    5.045272    2.722674
     21          1           0       -2.685367    5.365608    1.133120
     22          6           0       -1.259460    3.691714    1.185393
     23          8           0       -1.006908    2.589118    1.703504
     24          7           0       -0.647688    4.126810    0.070556
     25          1           0       -0.954111    5.013968   -0.307181
     26          6           0        0.095824    3.260993   -0.847105
     27          1           0       -0.570431    2.460684   -1.192355
     28          1           0        0.350549    3.853766   -1.726206
     29          6           0        1.409464    2.606784   -0.395862
     30          8           0        2.156641    2.149434   -1.250126
     31          7           0        1.675708    2.537716    0.937219
     32          1           0        0.890904    2.618836    1.575370
     33          6           0        2.845376    1.806911    1.361216
     34          1           0        2.984666    1.970120    2.434901
     35          1           0        3.725108    2.195737    0.842270
     36          6           0        2.730984    0.298870    1.117306
     37          8           0        1.637287   -0.303997    1.117451
     38          7           0        3.884821   -0.345431    0.976447
     39          1           0        4.783517    0.136347    0.939185
     40          6           0        4.001723   -1.774802    0.787271
     41          1           0        3.583947   -2.318421    1.642813
     42          1           0        3.452506   -2.093534   -0.106688
     43          6           0        5.501985   -2.071073    0.634528
     44          8           0        6.325981   -1.158331    0.685536
     45          7           0        5.816534   -3.361570    0.448517
     46          1           0        5.123573   -4.104671    0.393792
     47          6           0        7.176782   -3.815873    0.268169
     48          1           0        7.646550   -3.313409   -0.586366
     49          1           0        7.787430   -3.587583    1.150604
     50          6           0        7.111357   -5.329234    0.036278
     51          8           0        6.034775   -5.925023    0.032875
     52          7           0        8.297158   -5.937073   -0.157449
     53          1           0        9.174862   -5.428315   -0.152781
     54          6           0        8.395773   -7.360983   -0.389841
     55          1           0        7.981061   -7.934361    0.447844
     56          1           0        7.834509   -7.662040   -1.282493
     57          6           0        9.858750   -7.709680   -0.568620
     58          8           0       10.760939   -6.901757   -0.517909
     59          8           0       10.026382   -9.021926   -0.789295
     60          1           0       10.984341   -9.178072   -0.895198
 ---------------------------------------------------------------------

 SCF Done:  E(RB3LYP) =  -1741.02722063     A.U. after    1 cycles

 Alpha  occ. eigenvalues --  -19.27584 -19.26827 -19.24920 -19.24065 -19.22242
 Alpha  occ. eigenvalues --  -19.22237 -19.21504 -19.20785 -19.20115 -14.56221
 Alpha  occ. eigenvalues --  -14.50903 -14.49389 -14.46852 -14.46498 -14.45807
 Alpha  occ. eigenvalues --  -14.44656 -14.44330 -10.43941 -10.41716 -10.40435
 Alpha  occ. eigenvalues --  -10.40425 -10.39495 -10.39158 -10.39103 -10.38091
 Alpha  occ. eigenvalues --  -10.37358 -10.34841 -10.34544 -10.34135 -10.33504
 Alpha  occ. eigenvalues --  -10.32978 -10.31392 -10.31378  -1.19205  -1.18749
 Alpha  occ. eigenvalues --   -1.16685  -1.15412  -1.14224  -1.13586  -1.12948
 Alpha  occ. eigenvalues --   -1.11981  -1.11267  -1.09919  -1.06935  -1.05135
 Alpha  occ. eigenvalues --   -1.03333  -1.03046  -1.02363  -1.01322  -1.00751
 Alpha  occ. eigenvalues --   -0.89665  -0.87688  -0.86412  -0.84866  -0.83946
 Alpha  occ. eigenvalues --   -0.81823  -0.80488  -0.78353  -0.73742  -0.72487
 Alpha  occ. eigenvalues --   -0.71755  -0.71208  -0.70356  -0.69297  -0.68569
 Alpha  occ. eigenvalues --   -0.68436  -0.67934  -0.66875  -0.66194  -0.65402
 Alpha  occ. eigenvalues --   -0.64854  -0.62656  -0.61862  -0.61658  -0.60594
 Alpha  occ. eigenvalues --   -0.60361  -0.59645  -0.59078  -0.58331  -0.57960
 Alpha  occ. eigenvalues --   -0.57098  -0.56864  -0.56744  -0.56104  -0.55861
 Alpha  occ. eigenvalues --   -0.55299  -0.54824  -0.54649  -0.54481  -0.54254
 Alpha  occ. eigenvalues --   -0.53534  -0.53351  -0.52912  -0.52366  -0.52260
 Alpha  occ. eigenvalues --   -0.51659  -0.50543  -0.50288  -0.50004  -0.49511
 Alpha  occ. eigenvalues --   -0.48942  -0.48559  -0.47826  -0.47474  -0.47306
 Alpha  occ. eigenvalues --   -0.46650  -0.46409  -0.45641  -0.43692  -0.41455
 Alpha  occ. eigenvalues --   -0.41048  -0.39836  -0.39656  -0.39598  -0.38959
 Alpha  occ. eigenvalues --   -0.37258  -0.36660  -0.36402  -0.35947  -0.35411
 Alpha  occ. eigenvalues --   -0.35330  -0.34825  -0.34676  -0.33973  -0.33337
 Alpha virt. eigenvalues --   -0.12851  -0.10899  -0.09281  -0.09071  -0.08111
 Alpha virt. eigenvalues --   -0.07756  -0.06925  -0.06394  -0.05918  -0.05155
 Alpha virt. eigenvalues --   -0.03811  -0.02619  -0.01537   0.00312   0.00539

 Mulliken charges:
               1
     1  N   -0.778500
     2  H    0.399839
     3  H    0.423341
     4  H    0.456197
     5  C   -0.251805
     6  H    0.243869
     7  H    0.220577
     8  C    0.643404
     9  O   -0.513474
    10  N   -0.610826
    11  H    0.355096
    12  C   -0.232676
    13  H    0.229721
    14  H    0.205220
    15  C    0.594519
    16  O   -0.469087
    17  N   -0.551570
    18  H    0.326100
    19  C   -0.243737
    20  H    0.203152
    21  H    0.208815
    22  C    0.624271
    23  O   -0.598023
    24  N   -0.569335
    25  H    0.365556
    26  C   -0.251258
    27  H    0.203262
    28  H    0.216407
    29  C    0.584363
    30  O   -0.496899
    31  N   -0.591017
    32  H    0.371886
    33  C   -0.248297
    34  H    0.198572
    35  H    0.208048
    36  C    0.665661
    37  O   -0.610414
    38  N   -0.590126
    39  H    0.378198
    40  C   -0.200489
    41  H    0.194756
    42  H    0.194527
    43  C    0.615262
    44  O   -0.525449
    45  N   -0.624245
    46  H    0.361688
    47  C   -0.195975
    48  H    0.201387
    49  H    0.199806
    50  C    0.611922
    51  O   -0.529347
    52  N   -0.625132
    53  H    0.363215
    54  C   -0.179012
    55  H    0.213436
    56  H    0.213542
    57  C    0.570934
    58  O   -0.455406
    59  O   -0.553497
    60  H    0.429048
 Sum of Mulliken charges =   1.00000

 Dipole moment (field-independent basis, Debye):
    X=              2.0587    Y=             -3.2536    Z=              7.4861  Tot=              8.4181
 Quadrupole moment (field-independent basis, Debye-Ang):
   XX=            -86.1244   YY=           -107.1434   ZZ=           -170.0306
   XY=            -67.4837   XZ=            -21.0508   YZ=             14.4835

 Normal termination of Gaussian 16 at Tue Jul 19 19:28:47 2022.
