 Gaussian 16, Revision C.01,
 Gaussian 16:  ES64L-G16RevC.01  3-Jul-2019

 ----------------------------------------------------------------------
 # B3LYP/6-31G* empiricaldispersion=gd3bj guess=read geom=check nosymm
 integral(ultrafinegrid)
 ----------------------------------------------------------------------

 ------------------------------------------------------
 Candidate Structure: Conf:123 Charge calc in gas phase
 ------------------------------------------------------
 Structure from the checkpoint file:  "conf-123.chk"
 Charge =  1 Multiplicity = 1

                          Input orientation:
 ---------------------------------------------------------------------
 Center     Atomic      Atomic             Coordinates (Angstroms)
 Number     Number       Type             X           Y           Z
 ---------------------------------------------------------------------
      1          7           0        3.209680    7.083674   -0.320849
      2          1           0        4.090025    7.545409   -0.560854
      3          1           0        2.583723    7.135612   -1.128981
      4          1           0        2.742189    7.563322    0.512341
      5          6           0        3.373712    5.682357    0.199804
      6          1           0        4.434045    5.468366    0.342431
      7          1           0        2.948892    4.944615   -0.482945
      8          6           0        2.601917    5.703291    1.537089
      9          8           0        2.175400    6.793621    1.931406
     10          7           0        2.482662    4.521299    2.149555
     11          1           0        2.728487    3.712550    1.564218
     12          6           0        1.397302    4.311169    3.099796
     13          1           0        1.698757    3.572823    3.847533
     14          1           0        1.186180    5.256962    3.602975
     15          6           0        0.172567    3.870805    2.280254
     16          8           0       -0.112094    4.467576    1.241341
     17          7           0       -0.495722    2.780540    2.722080
     18          1           0       -0.125082    2.262197    3.507382
     19          6           0       -1.473533    2.093875    1.869665
     20          1           0       -2.116895    2.843315    1.404689
     21          1           0       -2.070695    1.420846    2.483555
     22          6           0       -0.682025    1.273544    0.839234
     23          8           0       -0.404727    0.095360    1.014793
     24          7           0       -0.219299    2.012557   -0.216921
     25          1           0       -0.307213    3.021851   -0.129760
     26          6           0        0.907495    1.507227   -0.988757
     27          1           0        0.708289    0.472492   -1.271752
     28          1           0        1.020809    2.111411   -1.890705
     29          6           0        2.180824    1.629674   -0.149536
     30          8           0        2.751698    2.732288    0.000780
     31          7           0        2.591468    0.515970    0.458211
     32          1           0        2.045147   -0.344771    0.421468
     33          6           0        3.747280    0.460328    1.323853
     34          1           0        3.606863    1.084438    2.217732
     35          1           0        4.634286    0.838499    0.803490
     36          6           0        3.931743   -1.006077    1.741600
     37          8           0        3.106906   -1.858395    1.424949
     38          7           0        5.033684   -1.257632    2.470521
     39          1           0        5.708383   -0.543413    2.731942
     40          6           0        5.340747   -2.574751    2.977621
     41          1           0        4.526106   -2.949457    3.610447
     42          1           0        5.462303   -3.293486    2.157103
     43          6           0        6.636205   -2.454962    3.787112
     44          8           0        7.201340   -1.372572    3.915836
     45          7           0        7.093101   -3.616845    4.315751
     46          1           0        6.546553   -4.462184    4.199796
     47          6           0        8.268208   -3.687622    5.175294
     48          1           0        8.807613   -2.743129    5.062872
     49          1           0        7.990962   -3.803823    6.226626
     50          6           0        9.167437   -4.872405    4.815445
     51          8           0        9.722236   -5.535213    5.675008
     52          7           0        9.299288   -5.103761    3.469961
     53          1           0        8.672541   -4.593322    2.862774
     54          6           0        9.764325   -6.389357    3.005363
     55          1           0       10.341228   -6.293931    2.080915
     56          1           0       10.429503   -6.799669    3.770096
     57          6           0        8.660087   -7.410853    2.761672
     58          8           0        8.843720   -8.505292    2.291248
     59          8           0        7.426678   -6.960119    3.129936
     60          1           0        6.818476   -7.703868    2.955700
 ---------------------------------------------------------------------

 SCF Done:  E(RB3LYP) =  -1741.00206258     A.U. after    1 cycles

 Alpha  occ. eigenvalues --  -19.27596 -19.27098 -19.24029 -19.23798 -19.21710
 Alpha  occ. eigenvalues --  -19.21489 -19.21415 -19.20623 -19.18438 -14.60997
 Alpha  occ. eigenvalues --  -14.49491 -14.49048 -14.47278 -14.45881 -14.45776
 Alpha  occ. eigenvalues --  -14.45530 -14.43130 -10.44167 -10.41314 -10.40339
 Alpha  occ. eigenvalues --  -10.40296 -10.38964 -10.38841 -10.38768 -10.38728
 Alpha  occ. eigenvalues --  -10.35819 -10.35656 -10.33914 -10.33519 -10.33186
 Alpha  occ. eigenvalues --  -10.32586 -10.30468 -10.30193  -1.20078  -1.17486
 Alpha  occ. eigenvalues --   -1.16214  -1.15130  -1.14552  -1.13867  -1.13452
 Alpha  occ. eigenvalues --   -1.13076  -1.10542  -1.08492  -1.06780  -1.04682
 Alpha  occ. eigenvalues --   -1.03605  -1.02302  -1.02206  -1.01949  -0.99445
 Alpha  occ. eigenvalues --   -0.90829  -0.87610  -0.86424  -0.84713  -0.83059
 Alpha  occ. eigenvalues --   -0.81419  -0.79658  -0.77643  -0.75029  -0.74415
 Alpha  occ. eigenvalues --   -0.72429  -0.71215  -0.70410  -0.69083  -0.68954
 Alpha  occ. eigenvalues --   -0.68131  -0.67843  -0.67175  -0.65939  -0.64985
 Alpha  occ. eigenvalues --   -0.64346  -0.63076  -0.62676  -0.61501  -0.60709
 Alpha  occ. eigenvalues --   -0.60166  -0.59717  -0.58946  -0.58609  -0.58222
 Alpha  occ. eigenvalues --   -0.57337  -0.57112  -0.56502  -0.56125  -0.55406
 Alpha  occ. eigenvalues --   -0.54878  -0.54571  -0.54176  -0.53902  -0.53463
 Alpha  occ. eigenvalues --   -0.52756  -0.52313  -0.52081  -0.51635  -0.50895
 Alpha  occ. eigenvalues --   -0.50677  -0.50328  -0.49693  -0.49369  -0.48757
 Alpha  occ. eigenvalues --   -0.48688  -0.48379  -0.47869  -0.47706  -0.46995
 Alpha  occ. eigenvalues --   -0.46581  -0.45619  -0.44953  -0.44005  -0.42558
 Alpha  occ. eigenvalues --   -0.40841  -0.39361  -0.39081  -0.38656  -0.37703
 Alpha  occ. eigenvalues --   -0.37378  -0.36338  -0.36131  -0.35936  -0.35609
 Alpha  occ. eigenvalues --   -0.35047  -0.34653  -0.34174  -0.31996  -0.31759
 Alpha virt. eigenvalues --   -0.13561  -0.11933  -0.10541  -0.09860  -0.07941
 Alpha virt. eigenvalues --   -0.07412  -0.06585  -0.06499  -0.05833  -0.05080
 Alpha virt. eigenvalues --   -0.04230  -0.03158  -0.01471  -0.01432  -0.00603

 Mulliken charges:
               1
     1  N   -0.750343
     2  H    0.419213
     3  H    0.422931
     4  H    0.436763
     5  C   -0.286932
     6  H    0.241618
     7  H    0.268685
     8  C    0.630960
     9  O   -0.516773
    10  N   -0.585594
    11  H    0.393941
    12  C   -0.260628
    13  H    0.179700
    14  H    0.239639
    15  C    0.617936
    16  O   -0.527776
    17  N   -0.576237
    18  H    0.352809
    19  C   -0.240734
    20  H    0.209433
    21  H    0.206329
    22  C    0.576067
    23  O   -0.492643
    24  N   -0.575923
    25  H    0.369318
    26  C   -0.220581
    27  H    0.205190
    28  H    0.181470
    29  C    0.595669
    30  O   -0.589820
    31  N   -0.568177
    32  H    0.393179
    33  C   -0.207378
    34  H    0.173819
    35  H    0.195396
    36  C    0.613039
    37  O   -0.512623
    38  N   -0.625529
    39  H    0.360289
    40  C   -0.196380
    41  H    0.200364
    42  H    0.196470
    43  C    0.598057
    44  O   -0.515800
    45  N   -0.628706
    46  H    0.353184
    47  C   -0.220931
    48  H    0.223597
    49  H    0.201453
    50  C    0.578290
    51  O   -0.487169
    52  N   -0.563650
    53  H    0.330685
    54  C   -0.245179
    55  H    0.202433
    56  H    0.242595
    57  C    0.583999
    58  O   -0.433492
    59  O   -0.585867
    60  H    0.420345
 Sum of Mulliken charges =   1.00000

 Dipole moment (field-independent basis, Debye):
    X=             14.5345    Y=             20.6111    Z=              2.5144  Tot=             25.3455
 Quadrupole moment (field-independent basis, Debye-Ang):
   XX=           -139.6219   YY=            -51.9984   ZZ=           -170.5367
   XY=             71.5084   XZ=            -11.8352   YZ=            -11.8558

 Normal termination of Gaussian 16 at Tue Jul 19 19:28:47 2022.
