 Gaussian 16, Revision C.01,
 Gaussian 16:  ES64L-G16RevC.01  3-Jul-2019

 ----------------------------------------------------------------------
 # B3LYP/6-31G* empiricaldispersion=gd3bj guess=read geom=check nosymm
 integral(ultrafinegrid)
 ----------------------------------------------------------------------

 ------------------------------------------------------
 Candidate Structure: Conf:197 Charge calc in gas phase
 ------------------------------------------------------
 Structure from the checkpoint file:  "conf-197.chk"
 Charge =  1 Multiplicity = 1

                          Input orientation:
 ---------------------------------------------------------------------
 Center     Atomic      Atomic             Coordinates (Angstroms)
 Number     Number       Type             X           Y           Z
 ---------------------------------------------------------------------
      1          7           0       -1.621001    9.390431   -2.403213
      2          1           0       -1.392024   10.093307   -1.694398
      3          1           0       -1.413396    8.404810   -2.066447
      4          1           0       -1.036734    9.536183   -3.236195
      5          6           0       -3.070429    9.408678   -2.836425
      6          1           0       -3.263503   10.325723   -3.393401
      7          1           0       -3.691577    9.363091   -1.940801
      8          6           0       -3.112441    8.163603   -3.733099
      9          8           0       -2.394823    8.151049   -4.720300
     10          7           0       -3.779926    7.083993   -3.239221
     11          1           0       -4.239468    7.205066   -2.345242
     12          6           0       -3.146161    5.793463   -3.435637
     13          1           0       -3.845362    4.991855   -3.186367
     14          1           0       -2.871099    5.693172   -4.488115
     15          6           0       -1.871970    5.712661   -2.560370
     16          8           0       -1.401451    6.713069   -1.981803
     17          7           0       -1.320719    4.508417   -2.472819
     18          1           0       -1.722288    3.679145   -2.915895
     19          6           0       -0.115057    4.210357   -1.725495
     20          1           0       -0.224311    4.512910   -0.677968
     21          1           0        0.744575    4.750535   -2.139052
     22          6           0        0.089892    2.690927   -1.841142
     23          8           0       -0.695445    2.008751   -2.499535
     24          7           0        1.153395    2.199844   -1.188989
     25          1           0        1.770888    2.773495   -0.619662
     26          6           0        1.462941    0.787014   -1.159390
     27          1           0        0.568037    0.205724   -0.908333
     28          1           0        1.810920    0.437720   -2.140075
     29          6           0        2.560197    0.587670   -0.111201
     30          8           0        3.092270    1.563055    0.429736
     31          7           0        2.900162   -0.688061    0.150019
     32          1           0        2.349356   -1.437007   -0.248098
     33          6           0        3.932777   -1.040462    1.125934
     34          1           0        4.764833   -0.340498    1.008257
     35          1           0        4.278083   -2.051658    0.913586
     36          6           0        3.400767   -1.020304    2.570321
     37          8           0        3.205866   -2.050152    3.197314
     38          7           0        3.171099    0.236309    3.051180
     39          1           0        3.312174    1.016391    2.417046
     40          6           0        2.624758    0.476831    4.372935
     41          1           0        1.737588    1.115025    4.321139
     42          1           0        2.322472   -0.492172    4.780128
     43          6           0        3.597164    1.129776    5.362977
     44          8           0        3.186674    1.690651    6.372450
     45          7           0        4.905629    1.006493    5.047689
     46          1           0        5.210238    0.556220    4.192736
     47          6           0        5.954722    1.514679    5.890772
     48          1           0        5.819577    2.587765    6.081339
     49          1           0        5.951062    1.021098    6.872094
     50          6           0        7.283820    1.266630    5.176120
     51          8           0        7.333866    0.768441    4.052726
     52          7           0        8.386756    1.635211    5.864298
     53          1           0        8.335572    2.014208    6.803093
     54          6           0        9.713089    1.434174    5.329799
     55          1           0        9.888270    0.381372    5.076300
     56          1           0        9.866877    2.003759    4.404906
     57          6           0       10.721838    1.878554    6.366615
     58          8           0       10.433237    2.324543    7.455990
     59          8           0       11.981268    1.717297    5.927081
     60          1           0       12.573838    2.017192    6.642485
 ---------------------------------------------------------------------

 SCF Done:  E(RB3LYP) =  -1740.99531901     A.U. after    3 cycles

 Alpha  occ. eigenvalues --  -19.27305 -19.26843 -19.26272 -19.22762 -19.22425
 Alpha  occ. eigenvalues --  -19.20874 -19.17711 -19.17707 -19.15176 -14.61111
 Alpha  occ. eigenvalues --  -14.51142 -14.49385 -14.46619 -14.46567 -14.42143
 Alpha  occ. eigenvalues --  -14.42099 -14.40166 -10.44773 -10.43286 -10.41560
 Alpha  occ. eigenvalues --  -10.40064 -10.39460 -10.39021 -10.36948 -10.35129
 Alpha  occ. eigenvalues --  -10.35014 -10.34904 -10.33297 -10.32829 -10.30704
 Alpha  occ. eigenvalues --  -10.29754 -10.28230 -10.27774  -1.20281  -1.17715
 Alpha  occ. eigenvalues --   -1.17391  -1.15165  -1.14967  -1.14065  -1.09831
 Alpha  occ. eigenvalues --   -1.09667  -1.08500  -1.07755  -1.07237  -1.05838
 Alpha  occ. eigenvalues --   -1.03192  -1.02410  -0.98755  -0.98586  -0.96415
 Alpha  occ. eigenvalues --   -0.91436  -0.88509  -0.85716  -0.83218  -0.82540
 Alpha  occ. eigenvalues --   -0.80472  -0.78231  -0.76144  -0.75305  -0.74407
 Alpha  occ. eigenvalues --   -0.73651  -0.71899  -0.70047  -0.68720  -0.68183
 Alpha  occ. eigenvalues --   -0.68066  -0.66344  -0.65401  -0.64888  -0.64085
 Alpha  occ. eigenvalues --   -0.63294  -0.63049  -0.61545  -0.60659  -0.60266
 Alpha  occ. eigenvalues --   -0.60192  -0.58808  -0.58139  -0.57993  -0.57181
 Alpha  occ. eigenvalues --   -0.57034  -0.56415  -0.55499  -0.55362  -0.55171
 Alpha  occ. eigenvalues --   -0.55064  -0.54678  -0.54044  -0.53392  -0.52441
 Alpha  occ. eigenvalues --   -0.51925  -0.51620  -0.51380  -0.50728  -0.50684
 Alpha  occ. eigenvalues --   -0.49553  -0.49410  -0.48422  -0.48156  -0.47656
 Alpha  occ. eigenvalues --   -0.47369  -0.46379  -0.45952  -0.45747  -0.45271
 Alpha  occ. eigenvalues --   -0.44082  -0.43365  -0.42493  -0.42485  -0.41313
 Alpha  occ. eigenvalues --   -0.40099  -0.39738  -0.39563  -0.38516  -0.37652
 Alpha  occ. eigenvalues --   -0.37139  -0.36396  -0.35627  -0.34925  -0.33066
 Alpha  occ. eigenvalues --   -0.31986  -0.31713  -0.31013  -0.29635  -0.28490
 Alpha virt. eigenvalues --   -0.15476  -0.11860  -0.10406  -0.08536  -0.07624
 Alpha virt. eigenvalues --   -0.06895  -0.05506  -0.05253  -0.04447  -0.03275
 Alpha virt. eigenvalues --   -0.02834  -0.01616  -0.01267  -0.00884  -0.00761

 Mulliken charges:
               1
     1  N   -0.754300
     2  H    0.416160
     3  H    0.457695
     4  H    0.424493
     5  C   -0.266706
     6  H    0.249339
     7  H    0.218664
     8  C    0.582935
     9  O   -0.469540
    10  N   -0.532888
    11  H    0.347598
    12  C   -0.271207
    13  H    0.213228
    14  H    0.248488
    15  C    0.644869
    16  O   -0.590618
    17  N   -0.598286
    18  H    0.380631
    19  C   -0.204949
    20  H    0.203534
    21  H    0.203597
    22  C    0.616755
    23  O   -0.524607
    24  N   -0.622720
    25  H    0.365517
    26  C   -0.197063
    27  H    0.203327
    28  H    0.207726
    29  C    0.614710
    30  O   -0.544770
    31  N   -0.587623
    32  H    0.353759
    33  C   -0.247454
    34  H    0.206231
    35  H    0.198831
    36  C    0.583984
    37  O   -0.486438
    38  N   -0.619539
    39  H    0.365778
    40  C   -0.227062
    41  H    0.172889
    42  H    0.222094
    43  C    0.595576
    44  O   -0.523894
    45  N   -0.608193
    46  H    0.356292
    47  C   -0.185794
    48  H    0.188920
    49  H    0.190850
    50  C    0.604820
    51  O   -0.532681
    52  N   -0.624705
    53  H    0.359696
    54  C   -0.174471
    55  H    0.211282
    56  H    0.205598
    57  C    0.567567
    58  O   -0.456536
    59  O   -0.556713
    60  H    0.425321
 Sum of Mulliken charges =   1.00000

 Dipole moment (field-independent basis, Debye):
    X=             -2.1795    Y=             34.7415    Z=             -9.8659  Tot=             36.1809
 Quadrupole moment (field-independent basis, Debye-Ang):
   XX=            -73.1495   YY=            122.4674   ZZ=           -188.5024
   XY=            -65.2957   XZ=             49.2860   YZ=            -63.7128

 Normal termination of Gaussian 16 at Tue Jul 19 19:28:57 2022.
