 Gaussian 16, Revision C.01,
 Gaussian 16:  ES64L-G16RevC.01  3-Jul-2019

 -------------------------------------------------------------------
 # B3LYP/6-31G* guess=read geom=check nosymm integral(ultrafinegrid)
 -------------------------------------------------------------------

 ------------------------------------------------------
 Candidate Structure: Conf:727 Charge calc in gas phase
 ------------------------------------------------------
 Structure from the checkpoint file:  "conf-727.chk"
 Charge =  1 Multiplicity = 1

                          Input orientation:
 ---------------------------------------------------------------------
 Center     Atomic      Atomic             Coordinates (Angstroms)
 Number     Number       Type             X           Y           Z
 ---------------------------------------------------------------------
      1          7           0       -4.234817    0.979664    4.723556
      2          1           0       -5.187677    1.335029    4.839552
      3          1           0       -4.298249   -0.027688    4.492742
      4          1           0       -3.639047    1.199287    5.583426
      5          6           0       -3.512373    1.626478    3.575080
      6          1           0       -3.811983    2.676737    3.535387
      7          6           0       -3.862664    0.827151    2.306582
      8          6           0       -1.995355    1.476230    3.788969
      9          1           0       -1.730553    0.412638    3.716568
     10          1           0       -1.458042    1.968234    2.975730
     11          8           0       -4.200333   -0.346864    2.436430
     12          6           0       -1.515945    1.980469    5.147379
     13          7           0       -0.261700    2.435698    5.176590
     14          1           0        0.139571    2.691526    6.070193
     15          1           0        0.329114    2.379089    4.342833
     16          8           0       -2.263280    1.927302    6.144743
     17          7           0       -3.630814    1.482122    1.151637
     18          1           0       -3.227065    2.415311    1.219703
     19          6           0       -3.148518    0.806481   -0.059630
     20          1           0       -3.221125   -0.270214    0.113154
     21          6           0       -1.678564    1.273310   -0.174913
     22          6           0       -3.959561    1.200752   -1.316318
     23          1           0       -3.857771    2.282517   -1.462487
     24          1           0       -3.483105    0.718599   -2.179402
     25          8           0       -1.386097    2.430960    0.145805
     26          6           0       -5.419177    0.809464   -1.232599
     27          6           0       -5.818036   -0.511381   -1.477831
     28          1           0       -5.075173   -1.257220   -1.754233
     29          6           0       -6.395509    1.754737   -0.895938
     30          1           0       -6.103104    2.787238   -0.717539
     31          6           0       -7.159735   -0.879970   -1.384659
     32          1           0       -7.452490   -1.906918   -1.584350
     33          6           0       -7.740024    1.390406   -0.804530
     34          1           0       -8.486706    2.138924   -0.553389
     35          6           0       -8.124952    0.071153   -1.046799
     36          1           0       -9.171400   -0.213154   -0.982037
     37          7           0       -0.775008    0.373161   -0.597366
     38          1           0       -1.030842   -0.563890   -0.899476
     39          6           0        0.637729    0.685029   -0.740587
     40          1           0        0.738847    1.709683   -1.106351
     41          6           0        1.199008   -0.307554   -1.774104
     42          6           0        1.431065    0.521232    0.594329
     43          1           0        2.474718    0.292340    0.352401
     44          1           0        1.027277   -0.332037    1.143063
     45          8           0        0.637036   -1.377502   -1.993405
     46          6           0        1.413298    1.729017    1.530869
     47          7           0        2.132419    2.791839    1.119427
     48          1           0        2.123998    3.623108    1.695144
     49          1           0        2.581935    2.840350    0.201392
     50          8           0        0.821405    1.692811    2.618584
     51          7           0        2.363862    0.070880   -2.348441
     52          1           0        2.729010    0.994745   -2.125141
     53          6           0        3.151452   -0.857033   -3.150518
     54          1           0        2.574179   -1.174751   -4.024955
     55          6           0        3.495459   -2.148594   -2.400795
     56          6           0        4.468012   -0.192459   -3.601068
     57          1           0        4.998256    0.133415   -2.695170
     58          1           0        5.091794   -0.969350   -4.053014
     59          8           0        3.693036   -3.203506   -2.951470
     60          6           0        4.289378    0.983427   -4.590857
     61          1           0        4.536292    0.651335   -5.605867
     62          1           0        3.242149    1.307973   -4.624321
     63          6           0        5.157876    2.206409   -4.248112
     64          1           0        6.210451    1.923283   -4.144891
     65          1           0        5.111393    2.933670   -5.063147
     66          7           0        4.771126    2.870177   -2.991700
     67          1           0        5.030894    2.366613   -2.151677
     68          7           0        3.140358    4.244982   -3.909579
     69          1           0        2.293950    4.785100   -3.793152
     70          1           0        3.867333    4.726056   -4.423964
     71          7           0        2.826152    3.237259   -1.774730
     72          1           0        2.015154    3.858498   -1.743370
     73          6           0        3.534341    3.466676   -2.843338
     74          8           0        3.649917   -1.960284   -1.066880
     75          1           0        3.898127   -2.830896   -0.700975
 ---------------------------------------------------------------------

 SCF Done:  E(RB3LYP) =  -1917.38190770     A.U. after    1 cycles

 Alpha  occ. eigenvalues --  -19.27377 -19.24769 -19.24253 -19.21983 -19.21229
 Alpha  occ. eigenvalues --  -19.21218 -19.21096 -14.56341 -14.47705 -14.46332
 Alpha  occ. eigenvalues --  -14.46256 -14.45341 -14.44920 -14.44518 -14.44085
 Alpha  occ. eigenvalues --  -14.40043 -10.41761 -10.41384 -10.39497 -10.39301
 Alpha  occ. eigenvalues --  -10.39089 -10.38939 -10.38686 -10.37994 -10.34025
 Alpha  occ. eigenvalues --  -10.33559 -10.32539 -10.32491 -10.31536 -10.29041
 Alpha  occ. eigenvalues --  -10.28604 -10.28522 -10.27717 -10.27056 -10.26001
 Alpha  occ. eigenvalues --  -10.25922 -10.25782 -10.25702 -10.25585  -1.18058
 Alpha  occ. eigenvalues --   -1.17058  -1.15549  -1.14084  -1.12860  -1.12355
 Alpha  occ. eigenvalues --   -1.10910  -1.09046  -1.08224  -1.04695  -1.02620
 Alpha  occ. eigenvalues --   -1.01905  -1.01813  -0.99239  -0.98849  -0.94911
 Alpha  occ. eigenvalues --   -0.92938  -0.91789  -0.89461  -0.88109  -0.86561
 Alpha  occ. eigenvalues --   -0.83148  -0.82462  -0.81234  -0.80163  -0.77959
 Alpha  occ. eigenvalues --   -0.76225  -0.74287  -0.72046  -0.71748  -0.71535
 Alpha  occ. eigenvalues --   -0.71003  -0.69538  -0.68959  -0.68573  -0.68290
 Alpha  occ. eigenvalues --   -0.67745  -0.67352  -0.67149  -0.65840  -0.64707
 Alpha  occ. eigenvalues --   -0.64355  -0.63930  -0.62547  -0.61850  -0.61543
 Alpha  occ. eigenvalues --   -0.61072  -0.59639  -0.58428  -0.58059  -0.57938
 Alpha  occ. eigenvalues --   -0.57743  -0.57083  -0.56717  -0.56398  -0.56058
 Alpha  occ. eigenvalues --   -0.55765  -0.55499  -0.54974  -0.54451  -0.54309
 Alpha  occ. eigenvalues --   -0.53295  -0.53113  -0.52612  -0.52336  -0.52065
 Alpha  occ. eigenvalues --   -0.51373  -0.51039  -0.50643  -0.50319  -0.49984
 Alpha  occ. eigenvalues --   -0.49777  -0.49116  -0.48814  -0.48673  -0.48294
 Alpha  occ. eigenvalues --   -0.48240  -0.47825  -0.47318  -0.47091  -0.46767
 Alpha  occ. eigenvalues --   -0.46387  -0.45564  -0.44861  -0.43995  -0.43405
 Alpha  occ. eigenvalues --   -0.43226  -0.42558  -0.41295  -0.40932  -0.39289
 Alpha  occ. eigenvalues --   -0.39149  -0.38679  -0.38403  -0.38227  -0.38167
 Alpha  occ. eigenvalues --   -0.36580  -0.36307  -0.36025  -0.35908  -0.35706
 Alpha  occ. eigenvalues --   -0.35383  -0.34212  -0.33693  -0.33058  -0.31805
 Alpha  occ. eigenvalues --   -0.31361
 Alpha virt. eigenvalues --   -0.11236  -0.09392  -0.08936  -0.07806  -0.07249
 Alpha virt. eigenvalues --   -0.06899  -0.06685  -0.06471  -0.06254  -0.05560
 Alpha virt. eigenvalues --   -0.03571  -0.02781  -0.01168  -0.00893  -0.00014

 Mulliken charges:
               1
     1  N   -0.750833
     2  H    0.405482
     3  H    0.410044
     4  H    0.442725
     5  C   -0.128937
     6  H    0.208156
     7  C    0.633036
     8  C   -0.410258
     9  H    0.217517
    10  H    0.240166
    11  O   -0.507575
    12  C    0.629833
    13  N   -0.746647
    14  H    0.362531
    15  H    0.402319
    16  O   -0.558050
    17  N   -0.570838
    18  H    0.355592
    19  C   -0.086651
    20  H    0.192589
    21  C    0.638488
    22  C   -0.368263
    23  H    0.165953
    24  H    0.170008
    25  O   -0.557441
    26  C    0.184429
    27  C   -0.177814
    28  H    0.128391
    29  C   -0.183811
    30  H    0.120950
    31  C   -0.126079
    32  H    0.146204
    33  C   -0.130793
    34  H    0.140043
    35  C   -0.128147
    36  H    0.145575
    37  N   -0.612597
    38  H    0.363730
    39  C   -0.060647
    40  H    0.194103
    41  C    0.622562
    42  C   -0.367344
    43  H    0.194113
    44  H    0.183144
    45  O   -0.526874
    46  C    0.613859
    47  N   -0.759777
    48  H    0.339650
    49  H    0.394375
    50  O   -0.556373
    51  N   -0.647864
    52  H    0.373741
    53  C   -0.002992
    54  H    0.200218
    55  C    0.594122
    56  C   -0.322999
    57  H    0.141972
    58  H    0.193599
    59  O   -0.448377
    60  C   -0.277662
    61  H    0.169461
    62  H    0.168694
    63  C   -0.165031
    64  H    0.175696
    65  H    0.163736
    66  N   -0.572097
    67  H    0.335055
    68  N   -0.738824
    69  H    0.344090
    70  H    0.354537
    71  N   -0.723418
    72  H    0.290369
    73  C    0.619448
    74  O   -0.576653
    75  H    0.421361
 Sum of Mulliken charges =   1.00000

 Dipole moment (field-independent basis, Debye):
    X=             -2.5840    Y=             12.3678    Z=              4.7222  Tot=             13.4885
 Quadrupole moment (field-independent basis, Debye-Ang):
   XX=           -121.7465   YY=           -189.6591   ZZ=           -149.6231
   XY=              9.5086   XZ=            -61.2168   YZ=            -13.1910

 Normal termination of Gaussian 16 at Sat Jun  4 16:59:20 2022.
