 Gaussian 16, Revision C.01,
 Gaussian 16:  ES64L-G16RevC.01  3-Jul-2019

 -------------------------------------------------------------------
 # B3LYP/6-31G* guess=read geom=check nosymm integral(ultrafinegrid)
 -------------------------------------------------------------------

 -----------------------------------------------------
 Candidate Structure: Conf:34 Charge calc in gas phase
 -----------------------------------------------------
 Structure from the checkpoint file:  "conf-34.chk"
 Charge =  1 Multiplicity = 1

                          Input orientation:
 ---------------------------------------------------------------------
 Center     Atomic      Atomic             Coordinates (Angstroms)
 Number     Number       Type             X           Y           Z
 ---------------------------------------------------------------------
      1          7           0       -5.838541    1.144588    3.705770
      2          1           0       -6.530098    1.158962    2.933316
      3          1           0       -5.456786    0.167123    3.723341
      4          1           0       -6.290752    1.406783    4.585308
      5          6           0       -4.632744    1.982770    3.342070
      6          1           0       -4.976528    2.870191    2.812922
      7          6           0       -3.875127    1.009820    2.396017
      8          6           0       -3.837629    2.386694    4.586363
      9          1           0       -4.505552    2.798603    5.356042
     10          1           0       -3.325664    1.520668    5.023102
     11          8           0       -4.031650   -0.200707    2.615816
     12          6           0       -2.828585    3.478308    4.182030
     13          7           0       -1.956895    3.855469    5.141871
     14          1           0       -1.283497    4.578071    4.921268
     15          1           0       -1.934183    3.443907    6.063525
     16          8           0       -2.855392    3.966987    3.057747
     17          7           0       -3.194185    1.540962    1.385348
     18          1           0       -2.976021    2.538671    1.362599
     19          6           0       -2.785030    0.752019    0.229202
     20          1           0       -2.579867   -0.267459    0.563515
     21          6           0       -1.533838    1.431936   -0.356103
     22          6           0       -3.920280    0.747296   -0.852608
     23          1           0       -3.914313    1.727795   -1.341864
     24          1           0       -3.654011    0.004772   -1.613005
     25          8           0       -1.363257    2.638986   -0.182929
     26          6           0       -5.299048    0.470694   -0.290089
     27          6           0       -5.752145   -0.838901   -0.072747
     28          1           0       -5.121914   -1.677327   -0.358350
     29          6           0       -6.138237    1.533469    0.076097
     30          1           0       -5.823388    2.555375   -0.123234
     31          6           0       -6.994296   -1.083156    0.512518
     32          1           0       -7.327290   -2.105985    0.663165
     33          6           0       -7.388030    1.297728    0.665726
     34          1           0       -8.045663    2.134690    0.891492
     35          6           0       -7.816580   -0.016573    0.891641
     36          1           0       -8.797644   -0.207582    1.318739
     37          7           0       -0.727890    0.632959   -1.074660
     38          1           0       -0.927474   -0.355467   -1.226159
     39          6           0        0.392589    1.108036   -1.872560
     40          1           0        0.091625    1.991926   -2.444469
     41          6           0        0.718996   -0.062547   -2.835776
     42          6           0        1.598202    1.505485   -0.984899
     43          1           0        2.008960    0.616516   -0.492437
     44          1           0        1.219187    2.177624   -0.205892
     45          8           0        0.166474   -1.156607   -2.710782
     46          6           0        2.703654    2.243420   -1.748248
     47          7           0        3.897169    2.335659   -1.154392
     48          1           0        4.710001    2.695693   -1.707180
     49          1           0        4.075221    1.835786   -0.294417
     50          8           0        2.478376    2.739569   -2.872470
     51          7           0        1.652145    0.227604   -3.761417
     52          1           0        2.028287    1.174131   -3.725534
     53          6           0        2.355134   -0.766162   -4.553761
     54          1           0        1.716416   -1.152835   -5.355351
     55          6           0        2.793693   -1.938309   -3.668918
     56          6           0        3.638312   -0.117824   -5.127500
     57          1           0        4.255009    0.180413   -4.271039
     58          1           0        4.198828   -0.885484   -5.672525
     59          8           0        3.165948   -1.842640   -2.522184
     60          6           0        3.402641    1.100810   -6.040037
     61          1           0        3.188298    0.770922   -7.063669
     62          1           0        2.522254    1.672176   -5.720462
     63          6           0        4.607512    2.058029   -6.074323
     64          1           0        5.513430    1.505513   -6.346278
     65          1           0        4.433646    2.807739   -6.861313
     66          7           0        4.825618    2.697836   -4.782302
     67          1           0        4.018428    2.867891   -4.182387
     68          7           0        7.145214    2.777583   -4.996826
     69          1           0        8.023066    3.013847   -4.552466
     70          1           0        7.051985    3.207504   -5.909896
     71          7           0        6.077127    3.071456   -2.878893
     72          1           0        7.014648    3.325414   -2.571897
     73          6           0        6.031885    2.874606   -4.162384
     74          8           0        2.800661   -3.093347   -4.366312
     75          1           0        3.146446   -3.780489   -3.765367
 ---------------------------------------------------------------------

 SCF Done:  E(RB3LYP) =  -1917.36696295     A.U. after    2 cycles

 Alpha  occ. eigenvalues --  -19.25388 -19.25319 -19.24094 -19.20135 -19.19508
 Alpha  occ. eigenvalues --  -19.18816 -19.18318 -14.59374 -14.47984 -14.47920
 Alpha  occ. eigenvalues --  -14.44042 -14.41745 -14.40575 -14.40425 -14.39337
 Alpha  occ. eigenvalues --  -14.34113 -10.42350 -10.42266 -10.40061 -10.37679
 Alpha  occ. eigenvalues --  -10.37489 -10.35808 -10.35601 -10.35120 -10.34078
 Alpha  occ. eigenvalues --  -10.33858 -10.30935 -10.30166 -10.30159 -10.29999
 Alpha  occ. eigenvalues --  -10.29771 -10.29649 -10.29561 -10.29271 -10.29148
 Alpha  occ. eigenvalues --  -10.27980 -10.26845 -10.25647 -10.25253  -1.18109
 Alpha  occ. eigenvalues --   -1.16233  -1.15998  -1.13150  -1.12201  -1.10574
 Alpha  occ. eigenvalues --   -1.09492  -1.07194  -1.04731  -1.03021  -1.02923
 Alpha  occ. eigenvalues --   -1.00652  -0.99313  -0.96040  -0.95983  -0.94070
 Alpha  occ. eigenvalues --   -0.93397  -0.89727  -0.89329  -0.86754  -0.85231
 Alpha  occ. eigenvalues --   -0.84823  -0.83861  -0.81741  -0.80447  -0.76801
 Alpha  occ. eigenvalues --   -0.75134  -0.74164  -0.73288  -0.72771  -0.70930
 Alpha  occ. eigenvalues --   -0.70653  -0.69978  -0.68784  -0.68618  -0.66937
 Alpha  occ. eigenvalues --   -0.66388  -0.66069  -0.65775  -0.65298  -0.64217
 Alpha  occ. eigenvalues --   -0.63548  -0.62969  -0.61575  -0.60883  -0.59365
 Alpha  occ. eigenvalues --   -0.58951  -0.58777  -0.58415  -0.57300  -0.57124
 Alpha  occ. eigenvalues --   -0.56570  -0.56512  -0.56343  -0.55943  -0.55318
 Alpha  occ. eigenvalues --   -0.54940  -0.53961  -0.53740  -0.53417  -0.52939
 Alpha  occ. eigenvalues --   -0.52458  -0.52221  -0.52143  -0.51808  -0.51542
 Alpha  occ. eigenvalues --   -0.51036  -0.50589  -0.50373  -0.49729  -0.49599
 Alpha  occ. eigenvalues --   -0.49243  -0.49054  -0.48318  -0.47455  -0.47242
 Alpha  occ. eigenvalues --   -0.46828  -0.46603  -0.46266  -0.45392  -0.45132
 Alpha  occ. eigenvalues --   -0.44864  -0.44105  -0.44041  -0.43894  -0.42599
 Alpha  occ. eigenvalues --   -0.42107  -0.40870  -0.40493  -0.40314  -0.40131
 Alpha  occ. eigenvalues --   -0.39083  -0.38231  -0.38053  -0.37228  -0.35508
 Alpha  occ. eigenvalues --   -0.35240  -0.34431  -0.33887  -0.33804  -0.33550
 Alpha  occ. eigenvalues --   -0.33065  -0.32304  -0.32074  -0.31773  -0.31020
 Alpha  occ. eigenvalues --   -0.27148
 Alpha virt. eigenvalues --   -0.12394  -0.11365  -0.10981  -0.10482  -0.08759
 Alpha virt. eigenvalues --   -0.06221  -0.05124  -0.04505  -0.04400  -0.03543
 Alpha virt. eigenvalues --   -0.03398  -0.02005  -0.00974  -0.00412  -0.00089

 Mulliken charges:
               1
     1  N   -0.760201
     2  H    0.412867
     3  H    0.424456
     4  H    0.401583
     5  C   -0.097256
     6  H    0.230730
     7  C    0.641152
     8  C   -0.404315
     9  H    0.191582
    10  H    0.208304
    11  O   -0.542573
    12  C    0.633925
    13  N   -0.742389
    14  H    0.375822
    15  H    0.358964
    16  O   -0.494898
    17  N   -0.599465
    18  H    0.399534
    19  C   -0.065293
    20  H    0.194139
    21  C    0.630928
    22  C   -0.366171
    23  H    0.181572
    24  H    0.183653
    25  O   -0.534814
    26  C    0.168143
    27  C   -0.150831
    28  H    0.155634
    29  C   -0.196570
    30  H    0.152378
    31  C   -0.128133
    32  H    0.161880
    33  C   -0.200616
    34  H    0.155715
    35  C   -0.155736
    36  H    0.157242
    37  N   -0.632259
    38  H    0.361890
    39  C   -0.053202
    40  H    0.205187
    41  C    0.626052
    42  C   -0.373754
    43  H    0.179536
    44  H    0.207444
    45  O   -0.545629
    46  C    0.616072
    47  N   -0.764861
    48  H    0.419969
    49  H    0.332936
    50  O   -0.568634
    51  N   -0.659569
    52  H    0.400673
    53  C    0.006717
    54  H    0.180212
    55  C    0.598209
    56  C   -0.317054
    57  H    0.181835
    58  H    0.169233
    59  O   -0.475437
    60  C   -0.302362
    61  H    0.156328
    62  H    0.161941
    63  C   -0.131774
    64  H    0.168114
    65  H    0.148576
    66  N   -0.629167
    67  H    0.379684
    68  N   -0.749828
    69  H    0.330978
    70  H    0.335720
    71  N   -0.715099
    72  H    0.276288
    73  C    0.641652
    74  O   -0.564472
    75  H    0.416912
 Sum of Mulliken charges =   1.00000

 Dipole moment (field-independent basis, Debye):
    X=            -13.7197    Y=              7.2332    Z=             11.1814  Tot=             19.1200
 Quadrupole moment (field-independent basis, Debye-Ang):
   XX=            -39.5741   YY=           -207.8746   ZZ=            -96.5324
   XY=             -9.0160   XZ=           -113.8928   YZ=             29.3578

 Normal termination of Gaussian 16 at Sat Jun  4 16:59:25 2022.
