 Gaussian 16, Revision C.01,
 Gaussian 16:  ES64L-G16RevC.01  3-Jul-2019

 -------------------------------------------------------------------
 # B3LYP/6-31G* guess=read geom=check nosymm integral(ultrafinegrid)
 -------------------------------------------------------------------

 ------------------------------------------------------
 Candidate Structure: Conf:365 Charge calc in gas phase
 ------------------------------------------------------
 Structure from the checkpoint file:  "conf-365.chk"
 Charge =  1 Multiplicity = 1

                          Input orientation:
 ---------------------------------------------------------------------
 Center     Atomic      Atomic             Coordinates (Angstroms)
 Number     Number       Type             X           Y           Z
 ---------------------------------------------------------------------
      1          7           0       -4.717311    2.123536    3.876773
      2          1           0       -5.711760    2.360344    3.925068
      3          1           0       -4.603629    1.094286    3.572393
      4          1           0       -4.296207    2.281314    4.796324
      5          6           0       -3.974932    2.821199    2.749944
      6          1           0       -4.656416    3.553701    2.311766
      7          6           0       -3.717463    1.639185    1.759461
      8          6           0       -2.696339    3.477282    3.305575
      9          1           0       -2.975030    4.179353    4.104468
     10          1           0       -2.041050    2.712129    3.730355
     11          8           0       -3.988430    0.502870    2.174740
     12          6           0       -1.812612    4.244530    2.301900
     13          7           0       -2.481570    4.854878    1.249897
     14          1           0       -1.882293    5.403518    0.638506
     15          1           0       -3.387070    5.279424    1.417829
     16          8           0       -0.609823    4.254396    2.419338
     17          7           0       -3.279775    1.945101    0.537952
     18          1           0       -2.998151    2.913802    0.376276
     19          6           0       -2.567296    0.944995   -0.257766
     20          1           0       -3.099451   -0.003959   -0.135492
     21          6           0       -1.168610    0.762120    0.413157
     22          6           0       -2.588674    1.334903   -1.756645
     23          1           0       -2.042111    0.572431   -2.322062
     24          1           0       -3.630195    1.264242   -2.089371
     25          8           0       -0.973926    1.168356    1.559261
     26          6           0       -2.043975    2.716468   -2.067090
     27          6           0       -2.909336    3.819813   -2.119632
     28          1           0       -3.979219    3.669342   -1.986220
     29          6           0       -0.677016    2.924410   -2.305369
     30          1           0        0.004674    2.078259   -2.315462
     31          6           0       -2.417744    5.102554   -2.375782
     32          1           0       -3.105086    5.942958   -2.435915
     33          6           0       -0.179726    4.202632   -2.561762
     34          1           0        0.880290    4.334518   -2.768705
     35          6           0       -1.050902    5.295891   -2.586999
     36          1           0       -0.668678    6.291324   -2.797498
     37          7           0       -0.245428    0.096762   -0.303235
     38          1           0       -0.382876   -0.178023   -1.271731
     39          6           0        1.112483   -0.121365    0.169490
     40          1           0        1.398237    0.728072    0.796573
     41          6           0        1.996830   -0.184513   -1.093226
     42          6           0        1.195952   -1.434103    1.001001
     43          1           0        0.788870   -2.259006    0.412437
     44          1           0        0.574014   -1.296752    1.893289
     45          8           0        1.492919   -0.462420   -2.182772
     46          6           0        2.630533   -1.810680    1.367595
     47          7           0        3.234654   -0.973387    2.274415
     48          1           0        4.183043   -1.203989    2.544951
     49          1           0        2.689901   -0.417590    2.919347
     50          8           0        3.225274   -2.717597    0.809718
     51          7           0        3.307788    0.075843   -0.898306
     52          1           0        3.650180    0.200290    0.051462
     53          6           0        4.337232   -0.298644   -1.864049
     54          1           0        3.918954   -1.054852   -2.534334
     55          6           0        5.486742   -0.907167   -1.064541
     56          6           0        4.876190    0.886608   -2.698945
     57          1           0        5.273716    1.645612   -2.012016
     58          1           0        5.726518    0.510677   -3.282790
     59          8           0        5.696658   -0.680615    0.108531
     60          6           0        3.847751    1.519111   -3.644505
     61          1           0        3.387547    0.737468   -4.263770
     62          1           0        3.041479    1.993707   -3.076115
     63          6           0        4.515833    2.570953   -4.545189
     64          1           0        4.901593    3.393326   -3.937415
     65          1           0        5.365785    2.116443   -5.071577
     66          7           0        3.644961    3.163759   -5.547684
     67          1           0        3.270778    2.535082   -6.246933
     68          7           0        2.128939    4.672724   -6.401477
     69          1           0        1.659896    5.563122   -6.292857
     70          1           0        2.628006    4.618478   -7.283331
     71          7           0        2.875129    4.832494   -4.117749
     72          1           0        2.399449    5.735510   -4.157563
     73          6           0        2.875228    4.277635   -5.283218
     74          8           0        6.275723   -1.676645   -1.831895
     75          1           0        7.001494   -2.000503   -1.264282
 ---------------------------------------------------------------------

 SCF Done:  E(RB3LYP) =  -1917.32895216     A.U. after    3 cycles

 Alpha  occ. eigenvalues --  -19.27513 -19.26732 -19.23998 -19.21519 -19.21213
 Alpha  occ. eigenvalues --  -19.20046 -19.18344 -14.60433 -14.49168 -14.48060
 Alpha  occ. eigenvalues --  -14.45356 -14.43666 -14.42836 -14.40348 -14.40093
 Alpha  occ. eigenvalues --  -14.34026 -10.44111 -10.42199 -10.42001 -10.39204
 Alpha  occ. eigenvalues --  -10.38746 -10.37063 -10.36136 -10.35084 -10.34795
 Alpha  occ. eigenvalues --  -10.33728 -10.32598 -10.30852 -10.29809 -10.28564
 Alpha  occ. eigenvalues --  -10.27709 -10.27623 -10.27533 -10.27109 -10.26899
 Alpha  occ. eigenvalues --  -10.26799 -10.26376 -10.25585 -10.23890  -1.20050
 Alpha  occ. eigenvalues --   -1.17761  -1.16040  -1.14360  -1.13385  -1.11763
 Alpha  occ. eigenvalues --   -1.10199  -1.08838  -1.06393  -1.03007  -1.02789
 Alpha  occ. eigenvalues --   -1.01931  -1.00431  -0.97404  -0.94469  -0.94122
 Alpha  occ. eigenvalues --   -0.93659  -0.89520  -0.89353  -0.87232  -0.85274
 Alpha  occ. eigenvalues --   -0.84141  -0.82539  -0.82041  -0.80679  -0.76902
 Alpha  occ. eigenvalues --   -0.75349  -0.74879  -0.74314  -0.73360  -0.72154
 Alpha  occ. eigenvalues --   -0.70251  -0.69815  -0.68708  -0.67992  -0.67153
 Alpha  occ. eigenvalues --   -0.66756  -0.66304  -0.65839  -0.65646  -0.65146
 Alpha  occ. eigenvalues --   -0.63988  -0.63120  -0.62450  -0.60968  -0.60235
 Alpha  occ. eigenvalues --   -0.59888  -0.59235  -0.58754  -0.58451  -0.57513
 Alpha  occ. eigenvalues --   -0.57419  -0.56741  -0.55880  -0.55172  -0.54889
 Alpha  occ. eigenvalues --   -0.54543  -0.54370  -0.54030  -0.53671  -0.53148
 Alpha  occ. eigenvalues --   -0.52903  -0.52640  -0.52442  -0.52205  -0.51919
 Alpha  occ. eigenvalues --   -0.51389  -0.50002  -0.49791  -0.49611  -0.49429
 Alpha  occ. eigenvalues --   -0.49348  -0.48878  -0.48487  -0.47795  -0.47717
 Alpha  occ. eigenvalues --   -0.47495  -0.46694  -0.46321  -0.46083  -0.44912
 Alpha  occ. eigenvalues --   -0.44316  -0.44091  -0.43351  -0.42651  -0.42510
 Alpha  occ. eigenvalues --   -0.42143  -0.41968  -0.41584  -0.40975  -0.40349
 Alpha  occ. eigenvalues --   -0.39713  -0.39375  -0.38641  -0.37227  -0.35930
 Alpha  occ. eigenvalues --   -0.35364  -0.35288  -0.34082  -0.33656  -0.33297
 Alpha  occ. eigenvalues --   -0.33179  -0.33007  -0.32049  -0.31654  -0.30849
 Alpha  occ. eigenvalues --   -0.27918
 Alpha virt. eigenvalues --   -0.13063  -0.11870  -0.10813  -0.08984  -0.08717
 Alpha virt. eigenvalues --   -0.07723  -0.07314  -0.06383  -0.05681  -0.05505
 Alpha virt. eigenvalues --   -0.04859  -0.02963  -0.01376  -0.00660  -0.00252

 Mulliken charges:
               1
     1  N   -0.764200
     2  H    0.414802
     3  H    0.441760
     4  H    0.415124
     5  C   -0.119165
     6  H    0.203475
     7  C    0.672607
     8  C   -0.396378
     9  H    0.193862
    10  H    0.237378
    11  O   -0.537045
    12  C    0.589789
    13  N   -0.767023
    14  H    0.375256
    15  H    0.338873
    16  O   -0.424646
    17  N   -0.594872
    18  H    0.400516
    19  C   -0.101098
    20  H    0.214886
    21  C    0.652735
    22  C   -0.387312
    23  H    0.181134
    24  H    0.177046
    25  O   -0.543805
    26  C    0.146500
    27  C   -0.198116
    28  H    0.125130
    29  C   -0.196010
    30  H    0.155113
    31  C   -0.144732
    32  H    0.138319
    33  C   -0.141619
    34  H    0.200099
    35  C   -0.149220
    36  H    0.141972
    37  N   -0.619577
    38  H    0.366558
    39  C   -0.058214
    40  H    0.190075
    41  C    0.629495
    42  C   -0.343925
    43  H    0.189618
    44  H    0.171981
    45  O   -0.545731
    46  C    0.554972
    47  N   -0.741500
    48  H    0.363686
    49  H    0.340166
    50  O   -0.479413
    51  N   -0.604607
    52  H    0.369262
    53  C   -0.041692
    54  H    0.202346
    55  C    0.599016
    56  C   -0.274512
    57  H    0.155627
    58  H    0.161871
    59  O   -0.476169
    60  C   -0.266115
    61  H    0.142073
    62  H    0.166044
    63  C   -0.120823
    64  H    0.185219
    65  H    0.141631
    66  N   -0.599950
    67  H    0.322877
    68  N   -0.755678
    69  H    0.322381
    70  H    0.329584
    71  N   -0.665110
    72  H    0.263429
    73  C    0.605611
    74  O   -0.556401
    75  H    0.424757
 Sum of Mulliken charges =   1.00000

 Dipole moment (field-independent basis, Debye):
    X=            -14.4984    Y=             15.2121    Z=              7.4266  Tot=             22.2882
 Quadrupole moment (field-independent basis, Debye-Ang):
   XX=           -109.0988   YY=           -166.6077   ZZ=           -128.6217
   XY=            -60.1685   XZ=            -73.0902   YZ=              6.9370

 Normal termination of Gaussian 16 at Sat Jun  4 16:59:43 2022.
