 Gaussian 16, Revision C.01,
 Gaussian 16:  ES64L-G16RevC.01  3-Jul-2019

 -------------------------------------------------------------------
 # B3LYP/6-31G* guess=read geom=check nosymm integral(ultrafinegrid)
 -------------------------------------------------------------------

 ------------------------------------------------------
 Candidate Structure: Conf:315 Charge calc in gas phase
 ------------------------------------------------------
 Structure from the checkpoint file:  "conf-315.chk"
 Charge =  1 Multiplicity = 1

                          Input orientation:
 ---------------------------------------------------------------------
 Center     Atomic      Atomic             Coordinates (Angstroms)
 Number     Number       Type             X           Y           Z
 ---------------------------------------------------------------------
      1          7           0       -5.428227    1.633707    2.868533
      2          1           0       -5.530915    0.729764    2.312974
      3          1           0       -5.474176    1.446122    3.884619
      4          1           0       -6.177468    2.274254    2.593771
      5          6           0       -4.057062    2.096739    2.416384
      6          1           0       -4.115540    3.161554    2.183299
      7          6           0       -3.838503    1.259332    1.122095
      8          6           0       -2.969689    1.857352    3.505441
      9          1           0       -1.996346    1.680752    3.026125
     10          1           0       -2.895349    2.753996    4.130147
     11          8           0       -4.527899    0.240817    0.987309
     12          6           0       -3.284709    0.635182    4.367783
     13          7           0       -4.127630    0.904056    5.443130
     14          1           0       -4.263919    0.115345    6.071104
     15          1           0       -4.014886    1.790796    5.924714
     16          8           0       -2.969450   -0.503039    4.075885
     17          7           0       -2.939661    1.744049    0.273397
     18          1           0       -2.375215    2.553892    0.526918
     19          6           0       -2.390420    1.030375   -0.891608
     20          1           0       -2.660811   -0.023335   -0.810962
     21          6           0       -0.873129    1.250441   -0.723517
     22          6           0       -2.906889    1.616291   -2.222629
     23          1           0       -2.590344    2.663196   -2.285140
     24          1           0       -2.387416    1.077735   -3.026011
     25          8           0       -0.464392    2.391338   -0.501453
     26          6           0       -4.405101    1.492976   -2.396645
     27          6           0       -4.991871    0.241073   -2.632096
     28          1           0       -4.360587   -0.643001   -2.698188
     29          6           0       -5.231775    2.620050   -2.318046
     30          1           0       -4.787185    3.599831   -2.155017
     31          6           0       -6.372296    0.121502   -2.785605
     32          1           0       -6.811230   -0.854184   -2.975140
     33          6           0       -6.615328    2.503513   -2.473929
     34          1           0       -7.241309    3.391031   -2.428163
     35          6           0       -7.188690    1.253063   -2.707075
     36          1           0       -8.263268    1.160592   -2.838726
     37          7           0       -0.114800    0.135735   -0.752198
     38          1           0       -0.548158   -0.758123   -1.054267
     39          6           0        1.248561    0.142016   -0.220978
     40          1           0        1.495753    1.188633   -0.032986
     41          6           0        2.162170   -0.480004   -1.291283
     42          6           0        1.322464   -0.662073    1.093541
     43          1           0        2.257783   -0.417804    1.612075
     44          1           0        1.351620   -1.728630    0.851894
     45          8           0        2.221530   -1.700475   -1.439305
     46          6           0        0.151233   -0.325621    2.016010
     47          7           0       -0.527256   -1.388254    2.508981
     48          1           0       -1.339984   -1.223967    3.095912
     49          1           0       -0.264801   -2.337310    2.291482
     50          8           0       -0.162424    0.839344    2.274915
     51          7           0        2.807085    0.405523   -2.096076
     52          1           0        2.726946    1.396412   -1.908013
     53          6           0        3.521346   -0.016687   -3.292060
     54          1           0        3.662550   -1.094643   -3.195329
     55          6           0        4.911834    0.598332   -3.402308
     56          6           0        2.745997    0.297164   -4.606361
     57          1           0        2.797685    1.377432   -4.794506
     58          1           0        3.282498   -0.187804   -5.429798
     59          8           0        5.777160    0.166574   -4.125030
     60          6           0        1.267296   -0.114002   -4.575689
     61          1           0        0.797253    0.349274   -3.700256
     62          1           0        0.771689    0.311143   -5.457577
     63          6           0        1.001151   -1.631085   -4.524612
     64          1           0        1.104951   -2.060946   -5.529377
     65          1           0        1.729298   -2.120266   -3.872669
     66          7           0       -0.338951   -1.904892   -3.980923
     67          1           0       -0.989301   -1.130398   -4.033564
     68          7           0        0.079056   -3.886646   -2.823593
     69          1           0        0.435538   -4.184656   -1.926074
     70          1           0        0.681781   -4.122042   -3.600447
     71          7           0       -1.363791   -2.227353   -1.925673
     72          1           0       -1.599202   -2.987619   -1.285363
     73          6           0       -0.552572   -2.661457   -2.851020
     74          8           0        5.046909    1.720649   -2.656378
     75          1           0        5.945924    2.062461   -2.826175
 ---------------------------------------------------------------------

 SCF Done:  E(RB3LYP) =  -1917.34858465     A.U. after    1 cycles

 Alpha  occ. eigenvalues --  -19.27533 -19.26737 -19.25773 -19.21357 -19.20325
 Alpha  occ. eigenvalues --  -19.20207 -19.19745 -14.58974 -14.50360 -14.48613
 Alpha  occ. eigenvalues --  -14.45017 -14.43822 -14.43703 -14.42448 -14.42370
 Alpha  occ. eigenvalues --  -14.36762 -10.43916 -10.42643 -10.41142 -10.39702
 Alpha  occ. eigenvalues --  -10.37549 -10.37543 -10.37336 -10.36523 -10.34177
 Alpha  occ. eigenvalues --  -10.32863 -10.32083 -10.31972 -10.29707 -10.27937
 Alpha  occ. eigenvalues --  -10.27923 -10.27582 -10.27101 -10.27002 -10.26255
 Alpha  occ. eigenvalues --  -10.26141 -10.25959 -10.25909 -10.25866  -1.18694
 Alpha  occ. eigenvalues --   -1.18213  -1.18019  -1.13036  -1.12496  -1.11911
 Alpha  occ. eigenvalues --   -1.11201  -1.09214  -1.05472  -1.05141  -1.04765
 Alpha  occ. eigenvalues --   -1.01455  -1.00662  -0.98521  -0.96370  -0.93448
 Alpha  occ. eigenvalues --   -0.92643  -0.91987  -0.88581  -0.87737  -0.85798
 Alpha  occ. eigenvalues --   -0.83583  -0.82376  -0.81441  -0.81049  -0.76918
 Alpha  occ. eigenvalues --   -0.75338  -0.74508  -0.73748  -0.72772  -0.71951
 Alpha  occ. eigenvalues --   -0.70601  -0.69898  -0.68156  -0.67816  -0.67619
 Alpha  occ. eigenvalues --   -0.67547  -0.67225  -0.67206  -0.66048  -0.65772
 Alpha  occ. eigenvalues --   -0.64333  -0.63312  -0.62367  -0.61446  -0.60659
 Alpha  occ. eigenvalues --   -0.59344  -0.59308  -0.59203  -0.58402  -0.58266
 Alpha  occ. eigenvalues --   -0.57573  -0.56909  -0.56567  -0.55963  -0.55569
 Alpha  occ. eigenvalues --   -0.55370  -0.54874  -0.54742  -0.54135  -0.53860
 Alpha  occ. eigenvalues --   -0.53525  -0.52978  -0.52482  -0.52094  -0.51832
 Alpha  occ. eigenvalues --   -0.51557  -0.51021  -0.50630  -0.50118  -0.49446
 Alpha  occ. eigenvalues --   -0.49370  -0.48965  -0.48912  -0.47924  -0.47894
 Alpha  occ. eigenvalues --   -0.47632  -0.46970  -0.46417  -0.46027  -0.45345
 Alpha  occ. eigenvalues --   -0.44925  -0.44678  -0.43905  -0.43682  -0.42899
 Alpha  occ. eigenvalues --   -0.42790  -0.42353  -0.41738  -0.41257  -0.41042
 Alpha  occ. eigenvalues --   -0.40431  -0.39674  -0.39264  -0.38363  -0.36473
 Alpha  occ. eigenvalues --   -0.35466  -0.35278  -0.34983  -0.34248  -0.33684
 Alpha  occ. eigenvalues --   -0.33633  -0.33172  -0.32711  -0.32086  -0.31442
 Alpha  occ. eigenvalues --   -0.30428
 Alpha virt. eigenvalues --   -0.13912  -0.11540  -0.09621  -0.07938  -0.07199
 Alpha virt. eigenvalues --   -0.06970  -0.06560  -0.06054  -0.05784  -0.05518
 Alpha virt. eigenvalues --   -0.04209  -0.03653  -0.02263  -0.01863  -0.00740

 Mulliken charges:
               1
     1  N   -0.775541
     2  H    0.434730
     3  H    0.414352
     4  H    0.413984
     5  C   -0.115247
     6  H    0.217841
     7  C    0.668807
     8  C   -0.397872
     9  H    0.287790
    10  H    0.177377
    11  O   -0.527239
    12  C    0.538373
    13  N   -0.753971
    14  H    0.373030
    15  H    0.360546
    16  O   -0.439022
    17  N   -0.589434
    18  H    0.367338
    19  C   -0.067499
    20  H    0.215651
    21  C    0.617537
    22  C   -0.365029
    23  H    0.168963
    24  H    0.164065
    25  O   -0.546353
    26  C    0.172700
    27  C   -0.178599
    28  H    0.149991
    29  C   -0.200659
    30  H    0.123732
    31  C   -0.129716
    32  H    0.144410
    33  C   -0.136983
    34  H    0.136409
    35  C   -0.132168
    36  H    0.141934
    37  N   -0.651919
    38  H    0.411444
    39  C   -0.053923
    40  H    0.198289
    41  C    0.636201
    42  C   -0.372738
    43  H    0.192220
    44  H    0.169450
    45  O   -0.542963
    46  C    0.608228
    47  N   -0.768572
    48  H    0.385703
    49  H    0.342880
    50  O   -0.536610
    51  N   -0.599190
    52  H    0.353790
    53  C   -0.064137
    54  H    0.214095
    55  C    0.593461
    56  C   -0.283014
    57  H    0.156133
    58  H    0.182308
    59  O   -0.443620
    60  C   -0.301279
    61  H    0.148284
    62  H    0.160853
    63  C   -0.144189
    64  H    0.161263
    65  H    0.176930
    66  N   -0.581265
    67  H    0.331633
    68  N   -0.731526
    69  H    0.343181
    70  H    0.343654
    71  N   -0.738178
    72  H    0.281841
    73  C    0.635685
    74  O   -0.574163
    75  H    0.425533
 Sum of Mulliken charges =   1.00000

 Dipole moment (field-independent basis, Debye):
    X=            -15.2689    Y=              5.9067    Z=              9.4770  Tot=             18.9168
 Quadrupole moment (field-independent basis, Debye-Ang):
   XX=           -118.5045   YY=           -190.4731   ZZ=           -141.1232
   XY=            -36.5364   XZ=            -68.7904   YZ=             22.1437

 Normal termination of Gaussian 16 at Sat Jun  4 16:59:17 2022.
