 Gaussian 16, Revision C.01,
 Gaussian 16:  ES64L-G16RevC.01  3-Jul-2019

 -------------------------------------------------------------------
 # B3LYP/6-31G* guess=read geom=check nosymm integral(ultrafinegrid)
 -------------------------------------------------------------------

 ------------------------------------------------------
 Candidate Structure: Conf:669 Charge calc in gas phase
 ------------------------------------------------------
 Structure from the checkpoint file:  "conf-669.chk"
 Charge =  1 Multiplicity = 1

                          Input orientation:
 ---------------------------------------------------------------------
 Center     Atomic      Atomic             Coordinates (Angstroms)
 Number     Number       Type             X           Y           Z
 ---------------------------------------------------------------------
      1          7           0       -6.143381    1.173691    2.734346
      2          1           0       -6.474495    1.334032    1.769596
      3          1           0       -6.069693    0.149937    2.855680
      4          1           0       -6.755747    1.627142    3.461046
      5          6           0       -4.752749    1.721990    2.937713
      6          1           0       -4.733902    2.723218    2.500621
      7          6           0       -3.857526    0.717117    2.181720
      8          6           0       -4.437590    1.766041    4.441986
      9          1           0       -4.404947    0.738713    4.829250
     10          1           0       -3.434242    2.184171    4.572854
     11          8           0       -4.146695   -0.475029    2.287883
     12          6           0       -5.481740    2.555545    5.239437
     13          7           0       -5.046307    3.190721    6.339230
     14          1           0       -5.722223    3.669986    6.922144
     15          1           0       -4.082179    3.173103    6.639717
     16          8           0       -6.669969    2.577002    4.888522
     17          7           0       -2.877778    1.224639    1.423713
     18          1           0       -2.637046    2.211793    1.427333
     19          6           0       -2.160826    0.434484    0.431151
     20          1           0       -2.144112   -0.601369    0.776429
     21          6           0       -0.751709    1.038088    0.331122
     22          6           0       -2.861852    0.536040   -0.967203
     23          1           0       -2.626351    1.521244   -1.385256
     24          1           0       -2.404494   -0.207315   -1.630169
     25          8           0       -0.614343    2.253350    0.524608
     26          6           0       -4.365107    0.361555   -0.905764
     27          6           0       -4.954722   -0.909965   -0.880663
     28          1           0       -4.326362   -1.794439   -0.948704
     29          6           0       -5.201334    1.485405   -0.828988
     30          1           0       -4.766604    2.480912   -0.890818
     31          6           0       -6.337204   -1.058217   -0.765578
     32          1           0       -6.773253   -2.052878   -0.757011
     33          6           0       -6.590516    1.345305   -0.714228
     34          1           0       -7.225341    2.228760   -0.709686
     35          6           0       -7.161322    0.067615   -0.676320
     36          1           0       -8.239872   -0.048253   -0.613065
     37          7           0        0.233684    0.187475   -0.000281
     38          1           0       -0.025565   -0.729950   -0.345259
     39          6           0        1.573286    0.641938   -0.373576
     40          1           0        1.743286    1.592174    0.131191
     41          6           0        1.608991    0.792602   -1.905069
     42          6           0        2.635626   -0.357389    0.092564
     43          1           0        3.604612   -0.050736   -0.323740
     44          1           0        2.429795   -1.356517   -0.311658
     45          8           0        1.081343   -0.059082   -2.618366
     46          6           0        2.749018   -0.382398    1.621184
     47          7           0        3.352700   -1.493644    2.131852
     48          1           0        3.575412   -1.497973    3.118353
     49          1           0        3.817608   -2.169247    1.542663
     50          8           0        2.327093    0.525743    2.323644
     51          7           0        2.237336    1.905019   -2.349838
     52          1           0        2.608918    2.554566   -1.664176
     53          6           0        2.435973    2.193376   -3.760929
     54          1           0        1.823607    1.465610   -4.304466
     55          6           0        3.876174    1.953478   -4.224311
     56          6           0        1.992764    3.623495   -4.141459
     57          1           0        2.584340    4.349293   -3.571359
     58          1           0        2.262159    3.757578   -5.192552
     59          8           0        4.255097    2.157726   -5.353599
     60          6           0        0.480652    3.893381   -3.932485
     61          1           0        0.042933    4.248352   -4.874233
     62          1           0       -0.042823    2.955300   -3.697418
     63          6           0        0.147222    4.940315   -2.852626
     64          1           0        0.674287    5.875774   -3.052150
     65          1           0       -0.929265    5.154350   -2.883934
     66          7           0        0.494360    4.547959   -1.492427
     67          1           0        0.065084    3.702321   -1.138707
     68          7           0        2.007132    4.092559    0.205574
     69          1           0        2.672130    4.524472    0.837484
     70          1           0        1.199314    3.732794    0.709249
     71          7           0        2.458202    5.794732   -1.431860
     72          1           0        3.289870    5.949301   -0.861766
     73          6           0        1.700670    4.892242   -0.918068
     74          8           0        4.689961    1.487155   -3.245858
     75          1           0        5.565929    1.377585   -3.664035
 ---------------------------------------------------------------------

 SCF Done:  E(RB3LYP) =  -1917.35863511     A.U. after    3 cycles

 Alpha  occ. eigenvalues --  -19.26993 -19.26112 -19.25881 -19.23426 -19.19898
 Alpha  occ. eigenvalues --  -19.19343 -19.19152 -14.57766 -14.50326 -14.49900
 Alpha  occ. eigenvalues --  -14.47144 -14.43704 -14.43634 -14.41234 -14.40139
 Alpha  occ. eigenvalues --  -14.33763 -10.44628 -10.43383 -10.41053 -10.40416
 Alpha  occ. eigenvalues --  -10.38149 -10.37246 -10.36459 -10.36080 -10.35748
 Alpha  occ. eigenvalues --  -10.33943 -10.32061 -10.30879 -10.30832 -10.30329
 Alpha  occ. eigenvalues --  -10.30325 -10.30254 -10.30036 -10.29721 -10.29640
 Alpha  occ. eigenvalues --  -10.28837 -10.26998 -10.24498 -10.24456  -1.18982
 Alpha  occ. eigenvalues --   -1.18182  -1.16775  -1.15072  -1.12492  -1.11275
 Alpha  occ. eigenvalues --   -1.11010  -1.07668  -1.06385  -1.05297  -1.03474
 Alpha  occ. eigenvalues --   -1.03315  -1.00191  -0.98397  -0.96595  -0.94409
 Alpha  occ. eigenvalues --   -0.94184  -0.90652  -0.89787  -0.87964  -0.85755
 Alpha  occ. eigenvalues --   -0.85300  -0.85038  -0.82553  -0.80494  -0.77983
 Alpha  occ. eigenvalues --   -0.76244  -0.74742  -0.73513  -0.73105  -0.72550
 Alpha  occ. eigenvalues --   -0.71309  -0.70892  -0.69976  -0.69283  -0.68129
 Alpha  occ. eigenvalues --   -0.67961  -0.67202  -0.66793  -0.66084  -0.65213
 Alpha  occ. eigenvalues --   -0.64318  -0.63820  -0.62934  -0.62057  -0.61270
 Alpha  occ. eigenvalues --   -0.60530  -0.60239  -0.59083  -0.58886  -0.58755
 Alpha  occ. eigenvalues --   -0.58189  -0.57365  -0.57334  -0.56503  -0.56294
 Alpha  occ. eigenvalues --   -0.55649  -0.55535  -0.54695  -0.54597  -0.53840
 Alpha  occ. eigenvalues --   -0.53555  -0.53097  -0.52795  -0.52577  -0.52440
 Alpha  occ. eigenvalues --   -0.51835  -0.51605  -0.51513  -0.50933  -0.50421
 Alpha  occ. eigenvalues --   -0.50216  -0.49960  -0.48967  -0.48370  -0.47905
 Alpha  occ. eigenvalues --   -0.47436  -0.47174  -0.46794  -0.46483  -0.46290
 Alpha  occ. eigenvalues --   -0.44881  -0.44809  -0.44686  -0.44417  -0.44316
 Alpha  occ. eigenvalues --   -0.42805  -0.41600  -0.41273  -0.41117  -0.40477
 Alpha  occ. eigenvalues --   -0.40395  -0.39493  -0.39469  -0.37724  -0.37558
 Alpha  occ. eigenvalues --   -0.37064  -0.35983  -0.35603  -0.35338  -0.34810
 Alpha  occ. eigenvalues --   -0.33233  -0.32963  -0.32338  -0.31601  -0.31374
 Alpha  occ. eigenvalues --   -0.27512
 Alpha virt. eigenvalues --   -0.13396  -0.12217  -0.11666  -0.11458  -0.08995
 Alpha virt. eigenvalues --   -0.07379  -0.05575  -0.05206  -0.05069  -0.04929
 Alpha virt. eigenvalues --   -0.04640  -0.02356  -0.02230  -0.01152  -0.00748

 Mulliken charges:
               1
     1  N   -0.757555
     2  H    0.406189
     3  H    0.412035
     4  H    0.439944
     5  C   -0.119000
     6  H    0.206621
     7  C    0.660188
     8  C   -0.395924
     9  H    0.230213
    10  H    0.204026
    11  O   -0.525017
    12  C    0.644848
    13  N   -0.728047
    14  H    0.381902
    15  H    0.370504
    16  O   -0.534617
    17  N   -0.601498
    18  H    0.359261
    19  C   -0.069608
    20  H    0.199078
    21  C    0.653146
    22  C   -0.372072
    23  H    0.176293
    24  H    0.191066
    25  O   -0.556889
    26  C    0.174425
    27  C   -0.152106
    28  H    0.151765
    29  C   -0.203221
    30  H    0.142046
    31  C   -0.129131
    32  H    0.163514
    33  C   -0.193427
    34  H    0.158514
    35  C   -0.145663
    36  H    0.161294
    37  N   -0.571163
    38  H    0.349132
    39  C   -0.099555
    40  H    0.219197
    41  C    0.623811
    42  C   -0.398163
    43  H    0.205585
    44  H    0.171690
    45  O   -0.544953
    46  C    0.612836
    47  N   -0.747746
    48  H    0.351506
    49  H    0.346303
    50  O   -0.505920
    51  N   -0.602742
    52  H    0.371579
    53  C   -0.078490
    54  H    0.214621
    55  C    0.598200
    56  C   -0.296266
    57  H    0.190345
    58  H    0.183087
    59  O   -0.448874
    60  C   -0.273231
    61  H    0.151060
    62  H    0.130172
    63  C   -0.142557
    64  H    0.204226
    65  H    0.132053
    66  N   -0.601862
    67  H    0.328428
    68  N   -0.793354
    69  H    0.328577
    70  H    0.350659
    71  N   -0.653647
    72  H    0.272028
    73  C    0.577086
    74  O   -0.574594
    75  H    0.417838
 Sum of Mulliken charges =   1.00000

 Dipole moment (field-independent basis, Debye):
    X=            -16.8256    Y=              4.1993    Z=             15.4242  Tot=             23.2086
 Quadrupole moment (field-independent basis, Debye-Ang):
   XX=            -82.4842   YY=           -209.6477   ZZ=           -165.4569
   XY=            -43.8220   XZ=            -47.5609   YZ=             39.5407

 Normal termination of Gaussian 16 at Sat Jun  4 16:59:42 2022.
