 Gaussian 16, Revision C.01,
 Gaussian 16:  ES64L-G16RevC.01  3-Jul-2019

 -------------------------------------------------------------------
 # B3LYP/6-31G* guess=read geom=check nosymm integral(ultrafinegrid)
 -------------------------------------------------------------------

 ------------------------------------------------------
 Candidate Structure: Conf:962 Charge calc in gas phase
 ------------------------------------------------------
 Structure from the checkpoint file:  "conf-962.chk"
 Charge =  1 Multiplicity = 1

                          Input orientation:
 ---------------------------------------------------------------------
 Center     Atomic      Atomic             Coordinates (Angstroms)
 Number     Number       Type             X           Y           Z
 ---------------------------------------------------------------------
      1          7           0       -3.840199   -2.486719    2.265322
      2          1           0       -4.782294   -2.851355    2.099098
      3          1           0       -3.281352   -2.522871    1.353353
      4          1           0       -3.393698   -3.051128    2.992802
      5          6           0       -3.823489   -1.001993    2.560283
      6          1           0       -4.836154   -0.660414    2.778519
      7          6           0       -3.271580   -0.405772    1.237766
      8          6           0       -2.901209   -0.679739    3.743438
      9          1           0       -3.165600   -1.308575    4.604980
     10          1           0       -1.848195   -0.853074    3.494751
     11          8           0       -2.781412   -1.203457    0.418201
     12          6           0       -3.123955    0.784290    4.164511
     13          7           0       -2.092889    1.350451    4.816073
     14          1           0       -2.198612    2.329277    5.055352
     15          1           0       -1.147465    0.991205    4.665796
     16          8           0       -4.199383    1.339582    3.925783
     17          7           0       -3.310395    0.915286    1.114856
     18          1           0       -3.755165    1.450434    1.859077
     19          6           0       -2.583090    1.637132    0.054534
     20          1           0       -2.616123    1.006848   -0.837107
     21          6           0       -1.118134    1.807109    0.531053
     22          6           0       -3.239956    2.995462   -0.230623
     23          1           0       -3.100093    3.636987    0.646124
     24          1           0       -2.662794    3.445824   -1.045555
     25          8           0       -0.754070    2.789533    1.169085
     26          6           0       -4.704338    2.887247   -0.599252
     27          6           0       -5.089632    2.463445   -1.879128
     28          1           0       -4.326992    2.240278   -2.622630
     29          6           0       -5.703447    3.190235    0.334951
     30          1           0       -5.424411    3.540613    1.327093
     31          6           0       -6.437784    2.340425   -2.214438
     32          1           0       -6.718500    2.019181   -3.213834
     33          6           0       -7.054626    3.068625    0.002766
     34          1           0       -7.815349    3.317320    0.737769
     35          6           0       -7.424990    2.641440   -1.272743
     36          1           0       -8.475320    2.553510   -1.536093
     37          7           0       -0.316247    0.745742    0.254331
     38          1           0       -0.629627    0.036358   -0.403286
     39          6           0        1.124940    0.834800    0.366581
     40          1           0        1.392376    1.894827    0.413935
     41          6           0        1.702975    0.192277   -0.912658
     42          6           0        1.677843    0.087267    1.614020
     43          1           0        2.774085    0.100668    1.584483
     44          1           0        1.350683   -0.954717    1.575576
     45          8           0        1.061373   -0.656826   -1.528375
     46          6           0        1.186154    0.678062    2.928767
     47          7           0        1.909007    1.713608    3.415240
     48          1           0        1.577043    2.208295    4.231875
     49          1           0        2.664169    2.133155    2.893228
     50          8           0        0.200105    0.226740    3.521338
     51          7           0        2.940978    0.597796   -1.270990
     52          1           0        3.441583    1.307227   -0.748959
     53          6           0        3.624658    0.071865   -2.445253
     54          1           0        3.550112   -1.021378   -2.436944
     55          6           0        5.089828    0.459870   -2.311296
     56          6           0        3.005003    0.585781   -3.769285
     57          1           0        3.439971    0.015063   -4.596838
     58          1           0        1.946556    0.311337   -3.718014
     59          8           0        5.522592    1.215537   -1.465684
     60          6           0        3.177997    2.096554   -4.009506
     61          1           0        3.251587    2.636299   -3.057664
     62          1           0        4.119504    2.280221   -4.543008
     63          6           0        2.021251    2.721484   -4.811662
     64          1           0        2.314585    3.717800   -5.154505
     65          1           0        1.816643    2.135435   -5.714776
     66          7           0        0.757175    2.826258   -4.073914
     67          1           0        0.299467    1.938218   -3.900265
     68          7           0        1.285817    4.861810   -3.054740
     69          1           0        1.036138    5.529464   -2.336094
     70          1           0        1.283891    5.281287   -3.977716
     71          7           0       -0.031198    3.206886   -1.929563
     72          1           0       -0.145942    3.941170   -1.228909
     73          6           0        0.631393    3.636013   -2.951687
     74          8           0        5.846060   -0.114584   -3.260636
     75          1           0        6.762649    0.195698   -3.128318
 ---------------------------------------------------------------------

 SCF Done:  E(RB3LYP) =  -1917.36253790     A.U. after    1 cycles

 Alpha  occ. eigenvalues --  -19.28595 -19.26134 -19.23212 -19.22530 -19.22475
 Alpha  occ. eigenvalues --  -19.20706 -19.20116 -14.59286 -14.48560 -14.46166
 Alpha  occ. eigenvalues --  -14.45241 -14.45123 -14.43987 -14.42103 -14.41304
 Alpha  occ. eigenvalues --  -14.35720 -10.42541 -10.41132 -10.40443 -10.39845
 Alpha  occ. eigenvalues --  -10.39653 -10.37945 -10.37332 -10.35370 -10.33121
 Alpha  occ. eigenvalues --  -10.33095 -10.32969 -10.32624 -10.29755 -10.29329
 Alpha  occ. eigenvalues --  -10.27044 -10.26867 -10.26718 -10.25932 -10.25725
 Alpha  occ. eigenvalues --  -10.25644 -10.25604 -10.25584 -10.25436  -1.19680
 Alpha  occ. eigenvalues --   -1.18497  -1.14259  -1.13749  -1.13089  -1.12880
 Alpha  occ. eigenvalues --   -1.11786  -1.10774  -1.05236  -1.04602  -1.01709
 Alpha  occ. eigenvalues --   -1.01186  -1.00851  -1.00621  -0.95695  -0.92913
 Alpha  occ. eigenvalues --   -0.92088  -0.91337  -0.88886  -0.87423  -0.86373
 Alpha  occ. eigenvalues --   -0.82409  -0.82189  -0.81025  -0.80620  -0.77699
 Alpha  occ. eigenvalues --   -0.75245  -0.73682  -0.73312  -0.73000  -0.71663
 Alpha  occ. eigenvalues --   -0.70453  -0.69779  -0.69166  -0.67899  -0.67158
 Alpha  occ. eigenvalues --   -0.67084  -0.66780  -0.66221  -0.64930  -0.64585
 Alpha  occ. eigenvalues --   -0.64033  -0.63372  -0.62876  -0.62027  -0.60056
 Alpha  occ. eigenvalues --   -0.59272  -0.58921  -0.58520  -0.58463  -0.57779
 Alpha  occ. eigenvalues --   -0.57553  -0.57203  -0.56653  -0.56148  -0.55973
 Alpha  occ. eigenvalues --   -0.55446  -0.54477  -0.53994  -0.53706  -0.53446
 Alpha  occ. eigenvalues --   -0.53059  -0.52409  -0.52199  -0.51872  -0.51681
 Alpha  occ. eigenvalues --   -0.51006  -0.50422  -0.50320  -0.49829  -0.49373
 Alpha  occ. eigenvalues --   -0.49141  -0.48599  -0.48531  -0.48235  -0.48084
 Alpha  occ. eigenvalues --   -0.47782  -0.47367  -0.46759  -0.46504  -0.46329
 Alpha  occ. eigenvalues --   -0.45449  -0.44690  -0.44170  -0.43125  -0.42295
 Alpha  occ. eigenvalues --   -0.41904  -0.41436  -0.40910  -0.40801  -0.40740
 Alpha  occ. eigenvalues --   -0.40504  -0.39123  -0.37999  -0.37415  -0.36812
 Alpha  occ. eigenvalues --   -0.36514  -0.36234  -0.35212  -0.34768  -0.34084
 Alpha  occ. eigenvalues --   -0.33594  -0.33050  -0.32878  -0.31672  -0.31109
 Alpha  occ. eigenvalues --   -0.29530
 Alpha virt. eigenvalues --   -0.11538  -0.10484  -0.09130  -0.08796  -0.07995
 Alpha virt. eigenvalues --   -0.07280  -0.06866  -0.06347  -0.05563  -0.05006
 Alpha virt. eigenvalues --   -0.03238  -0.02538  -0.01548  -0.00818  -0.00398

 Mulliken charges:
               1
     1  N   -0.764547
     2  H    0.417075
     3  H    0.434376
     4  H    0.412180
     5  C   -0.104834
     6  H    0.242184
     7  C    0.651282
     8  C   -0.414198
     9  H    0.198069
    10  H    0.233117
    11  O   -0.553808
    12  C    0.602520
    13  N   -0.747020
    14  H    0.354749
    15  H    0.386431
    16  O   -0.523483
    17  N   -0.595320
    18  H    0.389695
    19  C   -0.064281
    20  H    0.194568
    21  C    0.674685
    22  C   -0.405685
    23  H    0.176015
    24  H    0.193710
    25  O   -0.551467
    26  C    0.173469
    27  C   -0.184303
    28  H    0.134855
    29  C   -0.203441
    30  H    0.134729
    31  C   -0.129169
    32  H    0.142826
    33  C   -0.130331
    34  H    0.142694
    35  C   -0.130760
    36  H    0.143604
    37  N   -0.603042
    38  H    0.366704
    39  C   -0.057153
    40  H    0.184514
    41  C    0.645803
    42  C   -0.359314
    43  H    0.168182
    44  H    0.186824
    45  O   -0.535108
    46  C    0.626199
    47  N   -0.718751
    48  H    0.354349
    49  H    0.354997
    50  O   -0.537317
    51  N   -0.618936
    52  H    0.351360
    53  C   -0.041394
    54  H    0.201555
    55  C    0.592363
    56  C   -0.277975
    57  H    0.170413
    58  H    0.173319
    59  O   -0.471166
    60  C   -0.274771
    61  H    0.159918
    62  H    0.150801
    63  C   -0.159574
    64  H    0.153676
    65  H    0.162974
    66  N   -0.571369
    67  H    0.332323
    68  N   -0.740846
    69  H    0.331867
    70  H    0.338950
    71  N   -0.699262
    72  H    0.279419
    73  C    0.579352
    74  O   -0.558034
    75  H    0.427962
 Sum of Mulliken charges =   1.00000

 Dipole moment (field-independent basis, Debye):
    X=             -4.6560    Y=             -0.6051    Z=              5.3098  Tot=              7.0879
 Quadrupole moment (field-independent basis, Debye-Ang):
   XX=           -135.3959   YY=           -175.7630   ZZ=           -164.1401
   XY=             38.3361   XZ=            -36.4689   YZ=            -26.7961

 Normal termination of Gaussian 16 at Sat Jun  4 16:59:22 2022.
