 Gaussian 16, Revision C.01,
 Gaussian 16:  ES64L-G16RevC.01  3-Jul-2019

 -------------------------------------------------------------------
 # B3LYP/6-31G* guess=read geom=check nosymm integral(ultrafinegrid)
 -------------------------------------------------------------------

 ------------------------------------------------------
 Candidate Structure: Conf:304 Charge calc in gas phase
 ------------------------------------------------------
 Structure from the checkpoint file:  "conf-304.chk"
 Charge =  1 Multiplicity = 1

                          Input orientation:
 ---------------------------------------------------------------------
 Center     Atomic      Atomic             Coordinates (Angstroms)
 Number     Number       Type             X           Y           Z
 ---------------------------------------------------------------------
      1          7           0       -4.149333   -0.907410    4.809851
      2          1           0       -3.919711   -1.655382    4.117341
      3          1           0       -3.383101   -0.918267    5.552204
      4          1           0       -5.075773   -1.056035    5.213912
      5          6           0       -4.015023    0.381887    4.038358
      6          1           0       -4.987866    0.879132    4.010308
      7          6           0       -3.570840   -0.045524    2.615536
      8          6           0       -2.958647    1.305196    4.696141
      9          1           0       -2.699541    2.102899    3.997997
     10          1           0       -3.385155    1.762315    5.595662
     11          8           0       -3.233612   -1.214153    2.429299
     12          6           0       -1.720744    0.525038    5.143684
     13          7           0       -0.539399    0.909350    4.651489
     14          1           0        0.279296    0.385333    4.937718
     15          1           0       -0.484555    1.483977    3.811319
     16          8           0       -1.863126   -0.406776    5.957391
     17          7           0       -3.567172    0.930278    1.691757
     18          1           0       -3.781585    1.869966    2.002873
     19          6           0       -2.750515    0.852346    0.484945
     20          1           0       -2.727637   -0.198969    0.185995
     21          6           0       -1.312666    1.311993    0.850704
     22          6           0       -3.368009    1.708808   -0.647907
     23          1           0       -3.345380    2.763813   -0.344087
     24          1           0       -2.713980    1.632263   -1.524013
     25          8           0       -1.071093    1.812758    1.959139
     26          6           0       -4.781022    1.298173   -1.007180
     27          6           0       -5.020860    0.106370   -1.704779
     28          1           0       -4.184893   -0.519054   -2.012197
     29          6           0       -5.872221    2.096436   -0.644828
     30          1           0       -5.701836    3.037565   -0.125069
     31          6           0       -6.321342   -0.280963   -2.025478
     32          1           0       -6.489652   -1.203602   -2.573618
     33          6           0       -7.175922    1.713409   -0.966804
     34          1           0       -8.010568    2.350939   -0.688625
     35          6           0       -7.403290    0.521674   -1.655426
     36          1           0       -8.415769    0.224314   -1.912760
     37          7           0       -0.394979    1.136664   -0.107328
     38          1           0       -0.637599    0.791089   -1.035794
     39          6           0        0.977848    1.616890   -0.036082
     40          1           0        1.013007    2.546536    0.536691
     41          6           0        1.405693    1.838823   -1.502871
     42          6           0        1.904102    0.579066    0.639529
     43          1           0        2.033678   -0.291286   -0.013503
     44          1           0        1.415922    0.228903    1.557484
     45          8           0        0.780177    1.290134   -2.411425
     46          6           0        3.263668    1.165733    1.025065
     47          7           0        4.193760    0.261826    1.426708
     48          1           0        5.131363    0.612002    1.579714
     49          1           0        4.109668   -0.711992    1.169905
     50          8           0        3.472669    2.378587    1.042600
     51          7           0        2.499147    2.608373   -1.684321
     52          1           0        3.008834    2.871183   -0.842052
     53          6           0        3.248274    2.538616   -2.932811
     54          1           0        2.563987    2.713920   -3.767177
     55          6           0        3.823489    1.122275   -3.081427
     56          6           0        4.355807    3.615114   -2.919128
     57          1           0        3.863120    4.565035   -2.669657
     58          1           0        5.045619    3.387031   -2.094585
     59          8           0        4.047849    0.368116   -2.156975
     60          6           0        5.134665    3.761380   -4.231017
     61          1           0        5.659005    2.836897   -4.482337
     62          1           0        4.433237    3.967822   -5.051125
     63          6           0        6.171631    4.898046   -4.195878
     64          1           0        6.655539    4.954099   -5.174362
     65          1           0        5.678244    5.860964   -4.012454
     66          7           0        7.229126    4.765288   -3.200667
     67          1           0        6.977365    4.978676   -2.244380
     68          7           0        9.100530    3.803369   -2.245218
     69          1           0        9.913988    3.216209   -2.386839
     70          1           0        9.373969    4.733137   -1.941792
     71          7           0        8.235703    3.019316   -4.357789
     72          1           0        9.094769    2.467883   -4.379179
     73          6           0        8.215578    3.800645   -3.338047
     74          8           0        4.069568    0.816224   -4.365953
     75          1           0        4.479337   -0.070047   -4.380279
 ---------------------------------------------------------------------

 SCF Done:  E(RB3LYP) =  -1917.36633286     A.U. after    1 cycles

 Alpha  occ. eigenvalues --  -19.26931 -19.26715 -19.25483 -19.23570 -19.21200
 Alpha  occ. eigenvalues --  -19.20739 -19.20677 -14.57396 -14.49989 -14.48059
 Alpha  occ. eigenvalues --  -14.46728 -14.44397 -14.43604 -14.39519 -14.39390
 Alpha  occ. eigenvalues --  -14.33020 -10.43777 -10.42909 -10.41068 -10.40412
 Alpha  occ. eigenvalues --  -10.39115 -10.38475 -10.37442 -10.35495 -10.34866
 Alpha  occ. eigenvalues --  -10.33194 -10.32658 -10.31084 -10.30310 -10.29527
 Alpha  occ. eigenvalues --  -10.28491 -10.27389 -10.27216 -10.27034 -10.26965
 Alpha  occ. eigenvalues --  -10.26797 -10.26424 -10.26101 -10.23264  -1.19217
 Alpha  occ. eigenvalues --   -1.17705  -1.17082  -1.15032  -1.12702  -1.12234
 Alpha  occ. eigenvalues --   -1.12001  -1.08647  -1.06767  -1.03582  -1.03198
 Alpha  occ. eigenvalues --   -1.02127  -1.00806  -0.99309  -0.94432  -0.93379
 Alpha  occ. eigenvalues --   -0.93371  -0.89973  -0.88665  -0.87891  -0.85790
 Alpha  occ. eigenvalues --   -0.83913  -0.82543  -0.81754  -0.80176  -0.77950
 Alpha  occ. eigenvalues --   -0.75579  -0.73599  -0.73421  -0.73235  -0.72760
 Alpha  occ. eigenvalues --   -0.70614  -0.69603  -0.69275  -0.68671  -0.67433
 Alpha  occ. eigenvalues --   -0.67075  -0.66424  -0.66151  -0.65652  -0.64775
 Alpha  occ. eigenvalues --   -0.63397  -0.62626  -0.62256  -0.61758  -0.60239
 Alpha  occ. eigenvalues --   -0.59795  -0.59477  -0.59088  -0.58921  -0.58395
 Alpha  occ. eigenvalues --   -0.58080  -0.57535  -0.56403  -0.55605  -0.55317
 Alpha  occ. eigenvalues --   -0.55150  -0.54689  -0.54459  -0.53940  -0.53712
 Alpha  occ. eigenvalues --   -0.53422  -0.53214  -0.52837  -0.52305  -0.51852
 Alpha  occ. eigenvalues --   -0.51542  -0.50890  -0.50387  -0.50182  -0.50109
 Alpha  occ. eigenvalues --   -0.49942  -0.49408  -0.49189  -0.48543  -0.48147
 Alpha  occ. eigenvalues --   -0.47915  -0.47309  -0.47019  -0.46606  -0.45160
 Alpha  occ. eigenvalues --   -0.44757  -0.43941  -0.43830  -0.43192  -0.42661
 Alpha  occ. eigenvalues --   -0.42238  -0.41174  -0.40671  -0.40352  -0.40289
 Alpha  occ. eigenvalues --   -0.39819  -0.39496  -0.39266  -0.38305  -0.37550
 Alpha  occ. eigenvalues --   -0.37035  -0.36366  -0.35119  -0.34545  -0.34325
 Alpha  occ. eigenvalues --   -0.33688  -0.33130  -0.32667  -0.31234  -0.29976
 Alpha  occ. eigenvalues --   -0.27239
 Alpha virt. eigenvalues --   -0.12803  -0.11737  -0.09922  -0.08623  -0.08278
 Alpha virt. eigenvalues --   -0.07919  -0.07073  -0.06929  -0.05714  -0.05291
 Alpha virt. eigenvalues --   -0.03111  -0.01483  -0.00800  -0.00210   0.00185

 Mulliken charges:
               1
     1  N   -0.774661
     2  H    0.425056
     3  H    0.444251
     4  H    0.405410
     5  C   -0.122351
     6  H    0.218432
     7  C    0.645699
     8  C   -0.382581
     9  H    0.209437
    10  H    0.218251
    11  O   -0.513721
    12  C    0.613489
    13  N   -0.738046
    14  H    0.366199
    15  H    0.411739
    16  O   -0.541123
    17  N   -0.558637
    18  H    0.345589
    19  C   -0.088258
    20  H    0.213246
    21  C    0.644509
    22  C   -0.401174
    23  H    0.162827
    24  H    0.190069
    25  O   -0.579974
    26  C    0.195756
    27  C   -0.182703
    28  H    0.132729
    29  C   -0.196800
    30  H    0.120972
    31  C   -0.127022
    32  H    0.150874
    33  C   -0.128596
    34  H    0.146172
    35  C   -0.128114
    36  H    0.150960
    37  N   -0.611279
    38  H    0.370231
    39  C   -0.057827
    40  H    0.203738
    41  C    0.621198
    42  C   -0.371397
    43  H    0.193249
    44  H    0.179493
    45  O   -0.540564
    46  C    0.621805
    47  N   -0.733408
    48  H    0.357602
    49  H    0.352576
    50  O   -0.524697
    51  N   -0.620870
    52  H    0.379978
    53  C   -0.029486
    54  H    0.197966
    55  C    0.604787
    56  C   -0.306083
    57  H    0.155216
    58  H    0.151523
    59  O   -0.491393
    60  C   -0.270645
    61  H    0.195284
    62  H    0.137951
    63  C   -0.129132
    64  H    0.182626
    65  H    0.135995
    66  N   -0.592910
    67  H    0.317752
    68  N   -0.759647
    69  H    0.322974
    70  H    0.326335
    71  N   -0.647542
    72  H    0.268680
    73  C    0.586514
    74  O   -0.545534
    75  H    0.421034
 Sum of Mulliken charges =   1.00000

 Dipole moment (field-independent basis, Debye):
    X=             -8.1037    Y=              3.5332    Z=             12.7225  Tot=             15.4924
 Quadrupole moment (field-independent basis, Debye-Ang):
   XX=            -70.8403   YY=           -198.9728   ZZ=           -170.3662
   XY=             11.3220   XZ=            -56.3647   YZ=              1.0928

 Normal termination of Gaussian 16 at Sat Jun  4 16:59:12 2022.
