 Gaussian 16, Revision C.01,
 Gaussian 16:  ES64L-G16RevC.01  3-Jul-2019

 -------------------------------------------------------------------
 # B3LYP/6-31G* guess=read geom=check nosymm integral(ultrafinegrid)
 -------------------------------------------------------------------

 ------------------------------------------------------
 Candidate Structure: Conf:879 Charge calc in gas phase
 ------------------------------------------------------
 Structure from the checkpoint file:  "conf-879.chk"
 Charge =  1 Multiplicity = 1

                          Input orientation:
 ---------------------------------------------------------------------
 Center     Atomic      Atomic             Coordinates (Angstroms)
 Number     Number       Type             X           Y           Z
 ---------------------------------------------------------------------
      1          7           0       -5.452465    1.751359    1.986898
      2          1           0       -5.596692    2.089699    1.022526
      3          1           0       -5.765793    0.766970    2.007007
      4          1           0       -5.936629    2.347578    2.709138
      5          6           0       -3.989345    1.738741    2.353977
      6          1           0       -3.567193    2.691864    2.026450
      7          6           0       -3.430297    0.531593    1.571833
      8          6           0       -3.847838    1.562676    3.875272
      9          1           0       -4.225164    0.570143    4.156213
     10          1           0       -2.782674    1.578433    4.127901
     11          8           0       -4.131081   -0.479283    1.528502
     12          6           0       -4.625606    2.622273    4.664554
     13          7           0       -4.122391    2.975621    5.857405
     14          1           0       -4.645883    3.626091    6.431354
     15          1           0       -3.270363    2.584627    6.233647
     16          8           0       -5.678999    3.101391    4.220618
     17          7           0       -2.252075    0.697254    0.955768
     18          1           0       -1.686988    1.533586    1.071646
     19          6           0       -1.750614   -0.236859   -0.045859
     20          1           0       -2.153031   -1.223980    0.192416
     21          6           0       -0.218433   -0.185494    0.063660
     22          6           0       -2.195689    0.200015   -1.482776
     23          1           0       -1.563276    1.041570   -1.786861
     24          1           0       -1.979685   -0.627341   -2.168449
     25          8           0        0.322066    0.888475    0.354591
     26          6           0       -3.653191    0.604794   -1.567005
     27          6           0       -4.669795   -0.348376   -1.719229
     28          1           0       -4.410152   -1.398997   -1.822308
     29          6           0       -4.016993    1.954342   -1.447120
     30          1           0       -3.241042    2.713170   -1.370163
     31          6           0       -6.012445    0.030340   -1.735798
     32          1           0       -6.783280   -0.723915   -1.863958
     33          6           0       -5.362742    2.342963   -1.462806
     34          1           0       -5.622001    3.398533   -1.419425
     35          6           0       -6.365915    1.376524   -1.602302
     36          1           0       -7.410366    1.673679   -1.641346
     37          7           0        0.452139   -1.322560   -0.191784
     38          1           0       -0.062633   -2.159328   -0.435950
     39          6           0        1.916013   -1.441866   -0.056685
     40          1           0        2.203423   -0.787516    0.772748
     41          6           0        2.628704   -0.961599   -1.350912
     42          6           0        2.289543   -2.888926    0.279654
     43          1           0        2.189019   -3.513232   -0.613264
     44          1           0        1.619240   -3.255495    1.062150
     45          8           0        3.195056   -1.750304   -2.104278
     46          6           0        3.708207   -2.963676    0.869283
     47          7           0        4.680661   -3.311407   -0.017272
     48          1           0        5.637527   -3.244568    0.305640
     49          1           0        4.505010   -3.185313   -1.007430
     50          8           0        3.902190   -2.731651    2.053750
     51          7           0        2.550673    0.373859   -1.563097
     52          1           0        2.081494    0.935331   -0.859425
     53          6           0        3.216425    1.032017   -2.680415
     54          1           0        3.706490    0.223271   -3.235846
     55          6           0        4.347091    1.952628   -2.205349
     56          6           0        2.248494    1.758460   -3.630173
     57          1           0        2.832712    2.139263   -4.473078
     58          1           0        1.555401    1.008980   -4.032486
     59          8           0        4.718355    2.939996   -2.796769
     60          6           0        1.462419    2.911046   -2.989965
     61          1           0        0.886321    2.554326   -2.121642
     62          1           0        2.166310    3.663206   -2.610679
     63          6           0        0.480540    3.595642   -3.959182
     64          1           0       -0.266142    2.875373   -4.307690
     65          1           0       -0.057276    4.385573   -3.416852
     66          7           0        1.115152    4.182827   -5.140567
     67          1           0        1.994893    4.649445   -4.939534
     68          7           0        0.059059    2.844048   -6.741152
     69          1           0        0.110765    2.455486   -7.675559
     70          1           0       -0.766671    3.424483   -6.630077
     71          7           0        2.385255    3.450045   -6.929038
     72          1           0        2.313274    3.042770   -7.863499
     73          6           0        1.247309    3.474611   -6.337571
     74          8           0        4.921649    1.516391   -1.061227
     75          1           0        5.657525    2.131274   -0.876334
 ---------------------------------------------------------------------

 SCF Done:  E(RB3LYP) =  -1917.34658702     A.U. after    1 cycles

 Alpha  occ. eigenvalues --  -19.27431 -19.26575 -19.26489 -19.24200 -19.20723
 Alpha  occ. eigenvalues --  -19.20330 -19.17180 -14.58319 -14.50713 -14.50664
 Alpha  occ. eigenvalues --  -14.48655 -14.44162 -14.41024 -14.40359 -14.39396
 Alpha  occ. eigenvalues --  -14.33583 -10.45061 -10.44077 -10.41637 -10.41297
 Alpha  occ. eigenvalues --  -10.38859 -10.37430 -10.36726 -10.36574 -10.35166
 Alpha  occ. eigenvalues --  -10.33461 -10.33091 -10.31738 -10.31556 -10.31037
 Alpha  occ. eigenvalues --  -10.30987 -10.30929 -10.30689 -10.30413 -10.30306
 Alpha  occ. eigenvalues --  -10.28364 -10.27596 -10.25513 -10.25253  -1.19519
 Alpha  occ. eigenvalues --   -1.18771  -1.17385  -1.16045  -1.13063  -1.12055
 Alpha  occ. eigenvalues --   -1.09014  -1.08338  -1.07145  -1.05701  -1.04522
 Alpha  occ. eigenvalues --   -1.02557  -1.00782  -0.97287  -0.96086  -0.94737
 Alpha  occ. eigenvalues --   -0.94016  -0.91355  -0.89492  -0.88178  -0.86377
 Alpha  occ. eigenvalues --   -0.85972  -0.85645  -0.83096  -0.81062  -0.78421
 Alpha  occ. eigenvalues --   -0.76150  -0.75171  -0.74029  -0.73673  -0.73285
 Alpha  occ. eigenvalues --   -0.72020  -0.71480  -0.71223  -0.69976  -0.68807
 Alpha  occ. eigenvalues --   -0.68525  -0.67780  -0.66487  -0.65176  -0.64850
 Alpha  occ. eigenvalues --   -0.64497  -0.64035  -0.63369  -0.62478  -0.61312
 Alpha  occ. eigenvalues --   -0.60860  -0.60005  -0.59465  -0.59100  -0.58561
 Alpha  occ. eigenvalues --   -0.57984  -0.57876  -0.57707  -0.57165  -0.56393
 Alpha  occ. eigenvalues --   -0.56316  -0.56071  -0.55137  -0.55075  -0.54631
 Alpha  occ. eigenvalues --   -0.53946  -0.53455  -0.53321  -0.52985  -0.52649
 Alpha  occ. eigenvalues --   -0.52094  -0.51874  -0.51622  -0.51010  -0.50788
 Alpha  occ. eigenvalues --   -0.50076  -0.49456  -0.49163  -0.48733  -0.48366
 Alpha  occ. eigenvalues --   -0.47824  -0.47389  -0.46988  -0.46752  -0.46114
 Alpha  occ. eigenvalues --   -0.45590  -0.45387  -0.44931  -0.44322  -0.43608
 Alpha  occ. eigenvalues --   -0.43362  -0.42408  -0.42026  -0.41743  -0.41097
 Alpha  occ. eigenvalues --   -0.40928  -0.40279  -0.40022  -0.38723  -0.38442
 Alpha  occ. eigenvalues --   -0.38175  -0.36646  -0.36107  -0.35975  -0.33629
 Alpha  occ. eigenvalues --   -0.32879  -0.32297  -0.31758  -0.30877  -0.30748
 Alpha  occ. eigenvalues --   -0.27727
 Alpha virt. eigenvalues --   -0.14020  -0.12773  -0.12280  -0.12124  -0.09851
 Alpha virt. eigenvalues --   -0.07960  -0.07207  -0.05984  -0.05586  -0.05073
 Alpha virt. eigenvalues --   -0.04327  -0.02847  -0.02761  -0.01981  -0.01309

 Mulliken charges:
               1
     1  N   -0.757365
     2  H    0.406287
     3  H    0.412568
     4  H    0.441281
     5  C   -0.118913
     6  H    0.207067
     7  C    0.659311
     8  C   -0.396448
     9  H    0.231248
    10  H    0.204566
    11  O   -0.523176
    12  C    0.645752
    13  N   -0.727352
    14  H    0.383108
    15  H    0.371765
    16  O   -0.534936
    17  N   -0.602965
    18  H    0.361052
    19  C   -0.062319
    20  H    0.195840
    21  C    0.647160
    22  C   -0.374141
    23  H    0.185145
    24  H    0.180269
    25  O   -0.555015
    26  C    0.173224
    27  C   -0.152799
    28  H    0.151383
    29  C   -0.203718
    30  H    0.142477
    31  C   -0.129456
    32  H    0.165380
    33  C   -0.191576
    34  H    0.159609
    35  C   -0.147764
    36  H    0.163140
    37  N   -0.606685
    38  H    0.349299
    39  C   -0.072081
    40  H    0.212525
    41  C    0.635512
    42  C   -0.378070
    43  H    0.178041
    44  H    0.173749
    45  O   -0.525578
    46  C    0.563813
    47  N   -0.731490
    48  H    0.345056
    49  H    0.369027
    50  O   -0.497248
    51  N   -0.612044
    52  H    0.371827
    53  C   -0.076193
    54  H    0.223112
    55  C    0.589136
    56  C   -0.261505
    57  H    0.208093
    58  H    0.141189
    59  O   -0.450873
    60  C   -0.298647
    61  H    0.115538
    62  H    0.161715
    63  C   -0.144341
    64  H    0.152484
    65  H    0.135729
    66  N   -0.569565
    67  H    0.336172
    68  N   -0.742844
    69  H    0.325303
    70  H    0.326141
    71  N   -0.628407
    72  H    0.269103
    73  C    0.545888
    74  O   -0.562927
    75  H    0.420358
 Sum of Mulliken charges =   1.00000

 Dipole moment (field-independent basis, Debye):
    X=            -20.0881    Y=              6.8821    Z=              7.7124  Tot=             22.5915
 Quadrupole moment (field-independent basis, Debye-Ang):
   XX=           -134.8184   YY=           -207.7854   ZZ=           -155.9757
   XY=            -39.1355   XZ=            -26.7811   YZ=             40.6674

 Normal termination of Gaussian 16 at Sat Jun  4 16:59:19 2022.
