 Gaussian 16, Revision C.01,
 Gaussian 16:  ES64L-G16RevC.01  3-Jul-2019

 -------------------------------------------------------------------
 # B3LYP/6-31G* guess=read geom=check nosymm integral(ultrafinegrid)
 -------------------------------------------------------------------

 ------------------------------------------------------
 Candidate Structure: Conf:772 Charge calc in gas phase
 ------------------------------------------------------
 Structure from the checkpoint file:  "conf-772.chk"
 Charge =  1 Multiplicity = 1

                          Input orientation:
 ---------------------------------------------------------------------
 Center     Atomic      Atomic             Coordinates (Angstroms)
 Number     Number       Type             X           Y           Z
 ---------------------------------------------------------------------
      1          7           0       -5.185951   -1.986607   -2.787152
      2          1           0       -5.568250   -1.082906   -2.432797
      3          1           0       -4.849510   -1.820649   -3.799002
      4          1           0       -5.886798   -2.727216   -2.729247
      5          6           0       -3.953732   -2.242779   -1.958448
      6          1           0       -4.120499   -3.142306   -1.359474
      7          6           0       -3.846298   -1.006904   -1.019639
      8          6           0       -2.709273   -2.453585   -2.862001
      9          1           0       -1.800548   -2.351961   -2.263760
     10          1           0       -2.726015   -3.479398   -3.249058
     11          8           0       -4.587013   -0.046675   -1.218443
     12          6           0       -2.673398   -1.534383   -4.087698
     13          7           0       -1.513891   -0.950869   -4.380795
     14          1           0       -1.481341   -0.372941   -5.212684
     15          1           0       -0.700922   -0.971419   -3.755059
     16          8           0       -3.699171   -1.408233   -4.788016
     17          7           0       -2.927271   -1.089943   -0.039283
     18          1           0       -2.453960   -1.973408    0.111903
     19          6           0       -2.661460   -0.005598    0.924562
     20          1           0       -3.556022    0.618058    0.966103
     21          6           0       -1.513670    0.923049    0.473437
     22          6           0       -2.383647   -0.644534    2.310704
     23          1           0       -3.261468   -1.253150    2.564212
     24          1           0       -1.533794   -1.333671    2.209673
     25          8           0       -1.466159    2.085680    0.846546
     26          6           0       -2.096210    0.341413    3.423679
     27          6           0       -0.811916    0.440485    3.970509
     28          1           0       -0.015732   -0.198193    3.593047
     29          6           0       -3.114499    1.153253    3.939637
     30          1           0       -4.121976    1.081996    3.534942
     31          6           0       -0.546571    1.335755    5.008683
     32          1           0        0.452802    1.391441    5.431791
     33          6           0       -2.851745    2.051501    4.972249
     34          1           0       -3.651965    2.673885    5.362346
     35          6           0       -1.565802    2.145415    5.509750
     36          1           0       -1.363460    2.839987    6.319990
     37          7           0       -0.547327    0.334748   -0.281487
     38          1           0       -0.701702   -0.558061   -0.733008
     39          6           0        0.557450    1.086134   -0.844188
     40          1           0        0.179217    2.040135   -1.235067
     41          6           0        1.086282    0.241849   -2.027440
     42          6           0        1.631926    1.390658    0.241188
     43          1           0        2.349204    0.562604    0.297650
     44          1           0        1.116676    1.459016    1.201579
     45          8           0        0.485366   -0.799566   -2.372813
     46          6           0        2.409107    2.671796   -0.039267
     47          7           0        2.555658    3.520716    0.999682
     48          1           0        3.051046    4.389293    0.844049
     49          1           0        2.059152    3.400418    1.869940
     50          8           0        2.896300    2.912595   -1.149855
     51          7           0        2.187920    0.693463   -2.625789
     52          1           0        2.627466    1.534049   -2.215365
     53          6           0        2.957374   -0.123878   -3.548958
     54          1           0        2.279997   -0.579698   -4.279267
     55          6           0        3.619696   -1.271081   -2.770156
     56          6           0        4.010510    0.726282   -4.286613
     57          1           0        4.675817    1.187234   -3.543899
     58          1           0        4.628306    0.046515   -4.882456
     59          8           0        3.657685   -1.372915   -1.565441
     60          6           0        3.405315    1.810323   -5.187799
     61          1           0        2.737606    1.335145   -5.923446
     62          1           0        2.789099    2.501693   -4.601153
     63          6           0        4.495052    2.608183   -5.909643
     64          1           0        5.139520    3.118274   -5.189818
     65          1           0        5.149564    1.930895   -6.482063
     66          7           0        3.908563    3.637545   -6.759394
     67          1           0        3.302712    3.270492   -7.486480
     68          7           0        4.092106    5.444023   -8.193393
     69          1           0        4.603456    6.280736   -8.447013
     70          1           0        3.125512    5.656772   -7.968454
     71          7           0        5.949052    4.758898   -6.814356
     72          1           0        6.388551    5.610512   -7.166974
     73          6           0        4.742833    4.652798   -7.234181
     74          8           0        4.175764   -2.162911   -3.615049
     75          1           0        4.610708   -2.844230   -3.067440
 ---------------------------------------------------------------------

 SCF Done:  E(RB3LYP) =  -1917.36289925     A.U. after    1 cycles

 Alpha  occ. eigenvalues --  -19.28236 -19.27278 -19.26074 -19.23479 -19.22696
 Alpha  occ. eigenvalues --  -19.21377 -19.20980 -14.57046 -14.51071 -14.48263
 Alpha  occ. eigenvalues --  -14.45581 -14.45287 -14.45182 -14.39509 -14.39478
 Alpha  occ. eigenvalues --  -14.33077 -10.44369 -10.43512 -10.41547 -10.40628
 Alpha  occ. eigenvalues --  -10.39895 -10.38899 -10.38420 -10.35708 -10.34895
 Alpha  occ. eigenvalues --  -10.34117 -10.33046 -10.32587 -10.30213 -10.29375
 Alpha  occ. eigenvalues --  -10.27827 -10.27418 -10.26773 -10.26618 -10.26442
 Alpha  occ. eigenvalues --  -10.26289 -10.26152 -10.26043 -10.25809  -1.19581
 Alpha  occ. eigenvalues --   -1.19184  -1.17677  -1.14761  -1.13043  -1.12943
 Alpha  occ. eigenvalues --   -1.11903  -1.10242  -1.07302  -1.03840  -1.02766
 Alpha  occ. eigenvalues --   -1.02215  -1.02186  -0.99924  -0.94187  -0.93623
 Alpha  occ. eigenvalues --   -0.93194  -0.89792  -0.88925  -0.88570  -0.86563
 Alpha  occ. eigenvalues --   -0.83994  -0.81953  -0.81785  -0.81545  -0.78362
 Alpha  occ. eigenvalues --   -0.75400  -0.74048  -0.73965  -0.73463  -0.73284
 Alpha  occ. eigenvalues --   -0.71125  -0.69822  -0.69183  -0.68457  -0.68014
 Alpha  occ. eigenvalues --   -0.67129  -0.67036  -0.66304  -0.66102  -0.65716
 Alpha  occ. eigenvalues --   -0.63690  -0.63362  -0.63257  -0.62180  -0.61291
 Alpha  occ. eigenvalues --   -0.60105  -0.59667  -0.59399  -0.58614  -0.58224
 Alpha  occ. eigenvalues --   -0.58093  -0.57840  -0.57393  -0.56471  -0.55974
 Alpha  occ. eigenvalues --   -0.55392  -0.55285  -0.54805  -0.54166  -0.54028
 Alpha  occ. eigenvalues --   -0.53840  -0.53403  -0.53181  -0.52947  -0.52359
 Alpha  occ. eigenvalues --   -0.52181  -0.51363  -0.51011  -0.50353  -0.49952
 Alpha  occ. eigenvalues --   -0.49674  -0.49434  -0.49319  -0.48817  -0.48604
 Alpha  occ. eigenvalues --   -0.48010  -0.47773  -0.47185  -0.47050  -0.46354
 Alpha  occ. eigenvalues --   -0.44543  -0.44323  -0.43445  -0.43199  -0.43152
 Alpha  occ. eigenvalues --   -0.42335  -0.41593  -0.41383  -0.41111  -0.41083
 Alpha  occ. eigenvalues --   -0.40711  -0.40376  -0.40155  -0.40032  -0.37755
 Alpha  occ. eigenvalues --   -0.37144  -0.36401  -0.35789  -0.35549  -0.34785
 Alpha  occ. eigenvalues --   -0.34520  -0.32294  -0.31655  -0.31177  -0.30144
 Alpha  occ. eigenvalues --   -0.27669
 Alpha virt. eigenvalues --   -0.13244  -0.11919  -0.09325  -0.08915  -0.08211
 Alpha virt. eigenvalues --   -0.07660  -0.07566  -0.07356  -0.06835  -0.06453
 Alpha virt. eigenvalues --   -0.03966  -0.01548  -0.00944  -0.00575  -0.00377

 Mulliken charges:
               1
     1  N   -0.777999
     2  H    0.425210
     3  H    0.450962
     4  H    0.402668
     5  C   -0.112742
     6  H    0.212029
     7  C    0.640134
     8  C   -0.397271
     9  H    0.207429
    10  H    0.222074
    11  O   -0.497828
    12  C    0.630372
    13  N   -0.760199
    14  H    0.366970
    15  H    0.424279
    16  O   -0.551593
    17  N   -0.622861
    18  H    0.347385
    19  C   -0.058918
    20  H    0.217214
    21  C    0.635718
    22  C   -0.387944
    23  H    0.172425
    24  H    0.149112
    25  O   -0.502510
    26  C    0.189448
    27  C   -0.188305
    28  H    0.124633
    29  C   -0.168910
    30  H    0.128188
    31  C   -0.131095
    32  H    0.140595
    33  C   -0.124824
    34  H    0.148464
    35  C   -0.124993
    36  H    0.148112
    37  N   -0.638979
    38  H    0.341658
    39  C   -0.029820
    40  H    0.207495
    41  C    0.617480
    42  C   -0.394271
    43  H    0.215156
    44  H    0.184985
    45  O   -0.605428
    46  C    0.632947
    47  N   -0.732562
    48  H    0.363816
    49  H    0.362375
    50  O   -0.532701
    51  N   -0.608933
    52  H    0.416414
    53  C   -0.039986
    54  H    0.174643
    55  C    0.598957
    56  C   -0.306703
    57  H    0.169835
    58  H    0.180734
    59  O   -0.463166
    60  C   -0.274530
    61  H    0.120390
    62  H    0.161221
    63  C   -0.105057
    64  H    0.191066
    65  H    0.142865
    66  N   -0.612220
    67  H    0.313401
    68  N   -0.756626
    69  H    0.325431
    70  H    0.323317
    71  N   -0.642839
    72  H    0.272117
    73  C    0.589204
    74  O   -0.561326
    75  H    0.424209
 Sum of Mulliken charges =   1.00000

 Dipole moment (field-independent basis, Debye):
    X=            -10.3450    Y=             -5.5872    Z=             -7.7733  Tot=             14.0947
 Quadrupole moment (field-independent basis, Debye-Ang):
   XX=           -159.3980   YY=           -167.8520   ZZ=           -158.5070
   XY=             44.5973   XZ=             21.0208   YZ=             10.1217

 Normal termination of Gaussian 16 at Sat Jun  4 16:59:19 2022.
