 Gaussian 16, Revision C.01,
 Gaussian 16:  ES64L-G16RevC.01  3-Jul-2019

 -------------------------------------------------------------------
 # B3LYP/6-31G* guess=read geom=check nosymm integral(ultrafinegrid)
 -------------------------------------------------------------------

 ------------------------------------------------------
 Candidate Structure: Conf:883 Charge calc in gas phase
 ------------------------------------------------------
 Structure from the checkpoint file:  "conf-883.chk"
 Charge =  1 Multiplicity = 1

                          Input orientation:
 ---------------------------------------------------------------------
 Center     Atomic      Atomic             Coordinates (Angstroms)
 Number     Number       Type             X           Y           Z
 ---------------------------------------------------------------------
      1          7           0       -6.186023    1.552128    3.956788
      2          1           0       -6.312849    0.650808    3.385998
      3          1           0       -6.192925    1.322539    4.965787
      4          1           0       -6.928585    2.223444    3.750295
      5          6           0       -4.812896    1.989134    3.489655
      6          1           0       -4.933059    2.900527    2.898325
      7          6           0       -4.389943    0.817735    2.542415
      8          6           0       -3.868140    2.247959    4.680652
      9          1           0       -2.855406    2.408450    4.303019
     10          1           0       -4.177883    3.160293    5.202723
     11          8           0       -5.222849   -0.088315    2.368385
     12          6           0       -3.858510    1.022994    5.601328
     13          7           0       -4.787830    1.093408    6.637320
     14          1           0       -4.747317    0.304602    7.278913
     15          1           0       -4.910672    1.985850    7.106286
     16          8           0       -3.237555    0.016661    5.335022
     17          7           0       -3.206582    0.924199    1.970815
     18          1           0       -2.538983    1.669721    2.196915
     19          6           0       -2.586688   -0.061262    1.086098
     20          1           0       -2.595347   -1.035882    1.589669
     21          6           0       -1.118190    0.430684    0.980937
     22          6           0       -3.320330   -0.213276   -0.275192
     23          1           0       -2.803169   -0.993131   -0.845864
     24          1           0       -4.317913   -0.606399   -0.055305
     25          8           0       -0.765938    1.445145    1.594282
     26          6           0       -3.420718    1.056879   -1.092532
     27          6           0       -4.516524    1.917284   -0.935505
     28          1           0       -5.319030    1.638160   -0.254845
     29          6           0       -2.427056    1.398032   -2.020997
     30          1           0       -1.590110    0.724064   -2.186616
     31          6           0       -4.609452    3.100674   -1.668876
     32          1           0       -5.472452    3.750040   -1.545619
     33          6           0       -2.516904    2.582620   -2.753424
     34          1           0       -1.739772    2.829933   -3.471157
     35          6           0       -3.603862    3.440033   -2.575792
     36          1           0       -3.675513    4.358385   -3.151651
     37          7           0       -0.301781   -0.319324    0.230502
     38          1           0       -0.656520   -1.053125   -0.383852
     39          6           0        1.051238    0.080776   -0.130194
     40          1           0        1.104228    1.172510   -0.172028
     41          6           0        1.280951   -0.531819   -1.536228
     42          6           0        2.086561   -0.436521    0.902252
     43          1           0        2.362770   -1.472997    0.668956
     44          1           0        1.618673   -0.433161    1.892370
     45          8           0        0.448384   -1.317179   -2.002301
     46          6           0        3.363759    0.399188    0.944593
     47          7           0        4.090718    0.289731    2.084339
     48          1           0        4.991525    0.747559    2.122205
     49          1           0        3.848799   -0.355296    2.821571
     50          8           0        3.718812    1.129897    0.018864
     51          7           0        2.421124   -0.174814   -2.147498
     52          1           0        3.069961    0.394348   -1.599747
     53          6           0        2.931573   -0.932954   -3.282737
     54          1           0        2.158297   -0.988774   -4.054793
     55          6           0        3.275394   -2.347546   -2.806897
     56          6           0        4.153641   -0.179072   -3.857231
     57          1           0        3.787292    0.810105   -4.153109
     58          1           0        4.878372   -0.023235   -3.046019
     59          8           0        3.485731   -2.675837   -1.658404
     60          6           0        4.881787   -0.834274   -5.040379
     61          1           0        5.757583   -0.211316   -5.271398
     62          1           0        5.279613   -1.812608   -4.746098
     63          6           0        4.064638   -1.033384   -6.329487
     64          1           0        4.682171   -1.597862   -7.039903
     65          1           0        3.168525   -1.625303   -6.137399
     66          7           0        3.633559    0.191034   -6.989789
     67          1           0        4.360464    0.841891   -7.257182
     68          7           0        2.214245    1.919657   -7.548857
     69          1           0        1.262664    2.265540   -7.555530
     70          1           0        2.596436    1.878059   -8.488261
     71          7           0        1.522947    0.203902   -6.009060
     72          1           0        0.611535    0.653665   -6.096885
     73          6           0        2.381933    0.741483   -6.804335
     74          8           0        3.333751   -3.221389   -3.836076
     75          1           0        3.567192   -4.088205   -3.451956
 ---------------------------------------------------------------------

 SCF Done:  E(RB3LYP) =  -1917.34771563     A.U. after    1 cycles

 Alpha  occ. eigenvalues --  -19.26672 -19.26196 -19.25066 -19.21529 -19.19437
 Alpha  occ. eigenvalues --  -19.19336 -19.18582 -14.59210 -14.50287 -14.48650
 Alpha  occ. eigenvalues --  -14.44445 -14.43415 -14.41183 -14.39621 -14.39306
 Alpha  occ. eigenvalues --  -14.33129 -10.43640 -10.43336 -10.41741 -10.38413
 Alpha  occ. eigenvalues --  -10.37163 -10.37104 -10.35787 -10.35294 -10.34146
 Alpha  occ. eigenvalues --  -10.32949 -10.31288 -10.28383 -10.28192 -10.27601
 Alpha  occ. eigenvalues --  -10.27297 -10.26569 -10.26337 -10.26003 -10.25943
 Alpha  occ. eigenvalues --  -10.25929 -10.25885 -10.24423 -10.23574  -1.19160
 Alpha  occ. eigenvalues --   -1.17977  -1.15890  -1.13637  -1.13095  -1.11160
 Alpha  occ. eigenvalues --   -1.10237  -1.06766  -1.05607  -1.04690  -1.02219
 Alpha  occ. eigenvalues --   -1.01279  -0.98596  -0.98061  -0.94369  -0.93334
 Alpha  occ. eigenvalues --   -0.92889  -0.88744  -0.88645  -0.86087  -0.84205
 Alpha  occ. eigenvalues --   -0.84021  -0.81603  -0.81523  -0.78979  -0.76365
 Alpha  occ. eigenvalues --   -0.75727  -0.74712  -0.72836  -0.72688  -0.72075
 Alpha  occ. eigenvalues --   -0.70300  -0.68829  -0.67852  -0.67568  -0.67299
 Alpha  occ. eigenvalues --   -0.66280  -0.65992  -0.65266  -0.64427  -0.63531
 Alpha  occ. eigenvalues --   -0.63162  -0.62883  -0.61449  -0.60871  -0.60053
 Alpha  occ. eigenvalues --   -0.59411  -0.58835  -0.57880  -0.57509  -0.56892
 Alpha  occ. eigenvalues --   -0.56553  -0.56454  -0.55422  -0.55026  -0.54945
 Alpha  occ. eigenvalues --   -0.54209  -0.53870  -0.53428  -0.53194  -0.52886
 Alpha  occ. eigenvalues --   -0.52594  -0.52048  -0.51909  -0.51566  -0.51007
 Alpha  occ. eigenvalues --   -0.50470  -0.50161  -0.49981  -0.49144  -0.49023
 Alpha  occ. eigenvalues --   -0.48691  -0.48336  -0.47853  -0.47183  -0.46804
 Alpha  occ. eigenvalues --   -0.46665  -0.46011  -0.45314  -0.45006  -0.43634
 Alpha  occ. eigenvalues --   -0.43376  -0.43104  -0.43002  -0.42627  -0.42197
 Alpha  occ. eigenvalues --   -0.41610  -0.41271  -0.40914  -0.39896  -0.39401
 Alpha  occ. eigenvalues --   -0.39390  -0.38537  -0.38407  -0.36846  -0.35834
 Alpha  occ. eigenvalues --   -0.35017  -0.34569  -0.33461  -0.33080  -0.32445
 Alpha  occ. eigenvalues --   -0.32171  -0.32011  -0.31733  -0.31072  -0.29891
 Alpha  occ. eigenvalues --   -0.26980
 Alpha virt. eigenvalues --   -0.13512  -0.12322  -0.09467  -0.07830  -0.07691
 Alpha virt. eigenvalues --   -0.06547  -0.06211  -0.05042  -0.04841  -0.04523
 Alpha virt. eigenvalues --   -0.03594  -0.02127  -0.01472  -0.00609   0.00466

 Mulliken charges:
               1
     1  N   -0.774044
     2  H    0.438132
     3  H    0.415005
     4  H    0.410546
     5  C   -0.122318
     6  H    0.234791
     7  C    0.685270
     8  C   -0.371139
     9  H    0.237877
    10  H    0.180150
    11  O   -0.551918
    12  C    0.539193
    13  N   -0.755837
    14  H    0.374348
    15  H    0.357527
    16  O   -0.421399
    17  N   -0.611652
    18  H    0.380489
    19  C   -0.043430
    20  H    0.204611
    21  C    0.632124
    22  C   -0.398233
    23  H    0.182895
    24  H    0.190350
    25  O   -0.552514
    26  C    0.171819
    27  C   -0.191117
    28  H    0.105567
    29  C   -0.192608
    30  H    0.158778
    31  C   -0.128124
    32  H    0.131084
    33  C   -0.128333
    34  H    0.145350
    35  C   -0.125979
    36  H    0.144276
    37  N   -0.629683
    38  H    0.371085
    39  C   -0.056224
    40  H    0.206689
    41  C    0.625678
    42  C   -0.389249
    43  H    0.220458
    44  H    0.175033
    45  O   -0.554109
    46  C    0.635104
    47  N   -0.742753
    48  H    0.357190
    49  H    0.349389
    50  O   -0.525174
    51  N   -0.628500
    52  H    0.389323
    53  C   -0.044714
    54  H    0.246979
    55  C    0.596155
    56  C   -0.296076
    57  H    0.173497
    58  H    0.148810
    59  O   -0.483829
    60  C   -0.274091
    61  H    0.134549
    62  H    0.148599
    63  C   -0.132762
    64  H    0.145353
    65  H    0.199328
    66  N   -0.597167
    67  H    0.320034
    68  N   -0.758273
    69  H    0.321766
    70  H    0.327197
    71  N   -0.660404
    72  H    0.266231
    73  C    0.607348
    74  O   -0.558522
    75  H    0.414197
 Sum of Mulliken charges =   1.00000

 Dipole moment (field-independent basis, Debye):
    X=            -15.8211    Y=              9.1524    Z=             13.7728  Tot=             22.8859
 Quadrupole moment (field-independent basis, Debye-Ang):
   XX=            -65.1599   YY=           -198.0237   ZZ=            -64.7150
   XY=            -58.9580   XZ=           -113.9742   YZ=             24.5556

 Normal termination of Gaussian 16 at Sat Jun  4 16:59:28 2022.
