 Gaussian 16, Revision C.01,
 Gaussian 16:  ES64L-G16RevC.01  3-Jul-2019

 -------------------------------------------------------------------
 # B3LYP/6-31G* guess=read geom=check nosymm integral(ultrafinegrid)
 -------------------------------------------------------------------

 ------------------------------------------------------
 Candidate Structure: Conf:123 Charge calc in gas phase
 ------------------------------------------------------
 Structure from the checkpoint file:  "conf-123.chk"
 Charge =  1 Multiplicity = 1

                          Input orientation:
 ---------------------------------------------------------------------
 Center     Atomic      Atomic             Coordinates (Angstroms)
 Number     Number       Type             X           Y           Z
 ---------------------------------------------------------------------
      1          7           0       -4.605051   -0.523350    4.344818
      2          1           0       -5.482240   -0.006377    4.453976
      3          1           0       -4.799343   -1.364880    3.773611
      4          1           0       -4.169856   -0.734523    5.293601
      5          6           0       -3.562766    0.259809    3.596849
      6          1           0       -3.638430    1.305216    3.905238
      7          6           0       -3.794992    0.012474    2.094567
      8          6           0       -2.170873   -0.328810    3.902734
      9          1           0       -2.101771   -1.319643    3.434521
     10          1           0       -1.405842    0.284732    3.420221
     11          8           0       -4.297344   -1.058546    1.764071
     12          6           0       -1.869009   -0.495400    5.391185
     13          7           0       -0.569113   -0.552655    5.698413
     14          1           0       -0.302856   -0.717720    6.661334
     15          1           0        0.140342   -0.535398    4.963648
     16          8           0       -2.787246   -0.608239    6.223488
     17          7           0       -3.267407    0.944778    1.276531
     18          1           0       -2.826959    1.753875    1.707975
     19          6           0       -2.614204    0.594813    0.002361
     20          1           0       -2.857614   -0.450411   -0.202837
     21          6           0       -1.118006    0.792042    0.329282
     22          6           0       -3.062351    1.491358   -1.172679
     23          1           0       -2.758733    2.523841   -0.965339
     24          1           0       -2.494245    1.172277   -2.056613
     25          8           0       -0.763946    1.838532    0.881622
     26          6           0       -4.549358    1.410647   -1.444368
     27          6           0       -5.096376    0.304832   -2.109074
     28          1           0       -4.443969   -0.494413   -2.455939
     29          6           0       -5.406390    2.436162   -1.027510
     30          1           0       -4.993714    3.310208   -0.528535
     31          6           0       -6.467993    0.223109   -2.347138
     32          1           0       -6.874887   -0.637311   -2.870878
     33          6           0       -6.779648    2.359572   -1.266701
     34          1           0       -7.429348    3.170292   -0.948422
     35          6           0       -7.313840    1.251231   -1.925071
     36          1           0       -8.381199    1.192973   -2.118313
     37          7           0       -0.281159   -0.246738    0.090618
     38          1           0       -0.556016   -0.945575   -0.592999
     39          6           0        1.164221   -0.111009    0.290964
     40          1           0        1.302314    0.742574    0.955598
     41          6           0        1.781367    0.116832   -1.103359
     42          6           0        1.761747   -1.370139    0.929304
     43          1           0        2.854742   -1.258392    0.956941
     44          1           0        1.559744   -2.241022    0.294874
     45          8           0        1.459547   -0.627464   -2.025665
     46          6           0        1.297517   -1.618674    2.363538
     47          7           0        1.412852   -2.901225    2.784085
     48          1           0        1.248942   -3.118991    3.758001
     49          1           0        1.829126   -3.619180    2.207829
     50          8           0        0.873167   -0.717090    3.093112
     51          7           0        2.623612    1.170479   -1.210986
     52          1           0        2.813230    1.735459   -0.393499
     53          6           0        3.144437    1.641897   -2.488260
     54          1           0        2.821179    0.915403   -3.238367
     55          6           0        4.669800    1.683105   -2.533638
     56          6           0        2.586775    3.043577   -2.837928
     57          1           0        2.917946    3.759886   -2.074150
     58          1           0        3.040352    3.352228   -3.786473
     59          8           0        5.299653    1.844108   -3.550647
     60          6           0        1.058307    3.086602   -2.930288
     61          1           0        0.716034    2.505123   -3.796943
     62          1           0        0.621395    2.611172   -2.042783
     63          6           0        0.501834    4.515213   -3.040500
     64          1           0        0.886926    4.984624   -3.953266
     65          1           0       -0.588358    4.470256   -3.138011
     66          7           0        0.872713    5.372772   -1.904147
     67          1           0        1.404900    6.194653   -2.165676
     68          7           0       -0.886104    4.703670   -0.498142
     69          1           0       -1.456422    4.974754    0.294590
     70          1           0       -0.406189    3.831178   -0.295533
     71          7           0       -0.072628    6.973130   -0.540125
     72          1           0       -0.685865    7.098431    0.267397
     73          6           0       -0.052570    5.751674   -0.930618
     74          8           0        5.240335    1.577995   -1.308677
     75          1           0        6.203238    1.663807   -1.449378
 ---------------------------------------------------------------------

 SCF Done:  E(RB3LYP) =  -1917.35454887     A.U. after    3 cycles

 Alpha  occ. eigenvalues --  -19.27792 -19.26472 -19.26210 -19.24779 -19.24199
 Alpha  occ. eigenvalues --  -19.21565 -19.21383 -14.58209 -14.49609 -14.48558
 Alpha  occ. eigenvalues --  -14.48456 -14.48423 -14.46302 -14.40922 -14.40031
 Alpha  occ. eigenvalues --  -14.34133 -10.43518 -10.43455 -10.42222 -10.41214
 Alpha  occ. eigenvalues --  -10.40835 -10.39895 -10.38887 -10.35622 -10.34852
 Alpha  occ. eigenvalues --  -10.34836 -10.33644 -10.32310 -10.32061 -10.29198
 Alpha  occ. eigenvalues --  -10.28450 -10.27758 -10.26811 -10.26635 -10.26628
 Alpha  occ. eigenvalues --  -10.26390 -10.26364 -10.26215 -10.25947  -1.18846
 Alpha  occ. eigenvalues --   -1.18448  -1.17546  -1.16222  -1.15931  -1.13456
 Alpha  occ. eigenvalues --   -1.12773  -1.09424  -1.06421  -1.04587  -1.03987
 Alpha  occ. eigenvalues --   -1.03158  -1.03042  -1.02639  -0.94475  -0.94168
 Alpha  occ. eigenvalues --   -0.93166  -0.90858  -0.90067  -0.88639  -0.87303
 Alpha  occ. eigenvalues --   -0.83814  -0.82477  -0.81900  -0.81734  -0.79200
 Alpha  occ. eigenvalues --   -0.75535  -0.74514  -0.73805  -0.73357  -0.72642
 Alpha  occ. eigenvalues --   -0.71243  -0.70728  -0.70513  -0.69300  -0.69023
 Alpha  occ. eigenvalues --   -0.68081  -0.68025  -0.66951  -0.66791  -0.66320
 Alpha  occ. eigenvalues --   -0.65112  -0.64624  -0.63529  -0.63122  -0.61575
 Alpha  occ. eigenvalues --   -0.60842  -0.59479  -0.59352  -0.58976  -0.58660
 Alpha  occ. eigenvalues --   -0.58283  -0.58031  -0.57523  -0.57208  -0.56792
 Alpha  occ. eigenvalues --   -0.56259  -0.55813  -0.54940  -0.54708  -0.54508
 Alpha  occ. eigenvalues --   -0.54027  -0.53818  -0.53724  -0.52934  -0.52803
 Alpha  occ. eigenvalues --   -0.52390  -0.52073  -0.51562  -0.50964  -0.50363
 Alpha  occ. eigenvalues --   -0.49987  -0.49920  -0.49479  -0.49406  -0.48962
 Alpha  occ. eigenvalues --   -0.48589  -0.48189  -0.47913  -0.47418  -0.46674
 Alpha  occ. eigenvalues --   -0.46429  -0.45807  -0.44680  -0.43275  -0.42044
 Alpha  occ. eigenvalues --   -0.41984  -0.41812  -0.41574  -0.41037  -0.40912
 Alpha  occ. eigenvalues --   -0.40401  -0.40221  -0.40148  -0.39712  -0.39440
 Alpha  occ. eigenvalues --   -0.38753  -0.38396  -0.37459  -0.37163  -0.35209
 Alpha  occ. eigenvalues --   -0.33652  -0.32842  -0.32462  -0.32072  -0.31340
 Alpha  occ. eigenvalues --   -0.28212
 Alpha virt. eigenvalues --   -0.13458  -0.11417  -0.10626  -0.09957  -0.08826
 Alpha virt. eigenvalues --   -0.07752  -0.07630  -0.07522  -0.06820  -0.04892
 Alpha virt. eigenvalues --   -0.04286  -0.03314  -0.02360  -0.02154  -0.01219

 Mulliken charges:
               1
     1  N   -0.750406
     2  H    0.410434
     3  H    0.411741
     4  H    0.444031
     5  C   -0.124048
     6  H    0.212055
     7  C    0.630796
     8  C   -0.414492
     9  H    0.215531
    10  H    0.240734
    11  O   -0.504134
    12  C    0.629146
    13  N   -0.752554
    14  H    0.367830
    15  H    0.400656
    16  O   -0.548377
    17  N   -0.569209
    18  H    0.353061
    19  C   -0.075519
    20  H    0.189476
    21  C    0.634891
    22  C   -0.391115
    23  H    0.189258
    24  H    0.173593
    25  O   -0.553503
    26  C    0.185142
    27  C   -0.177504
    28  H    0.125513
    29  C   -0.186402
    30  H    0.124140
    31  C   -0.126432
    32  H    0.146674
    33  C   -0.130269
    34  H    0.143270
    35  C   -0.128272
    36  H    0.147637
    37  N   -0.589799
    38  H    0.355665
    39  C   -0.077987
    40  H    0.201065
    41  C    0.626488
    42  C   -0.391261
    43  H    0.210738
    44  H    0.187638
    45  O   -0.527583
    46  C    0.627184
    47  N   -0.735620
    48  H    0.353514
    49  H    0.364717
    50  O   -0.537396
    51  N   -0.587447
    52  H    0.347060
    53  C   -0.073654
    54  H    0.219789
    55  C    0.596306
    56  C   -0.278607
    57  H    0.159412
    58  H    0.181089
    59  O   -0.441890
    60  C   -0.259617
    61  H    0.149647
    62  H    0.122202
    63  C   -0.149856
    64  H    0.157424
    65  H    0.168271
    66  N   -0.579935
    67  H    0.338576
    68  N   -0.760288
    69  H    0.311380
    70  H    0.347031
    71  N   -0.621725
    72  H    0.263844
    73  C    0.533965
    74  O   -0.577137
    75  H    0.423420
 Sum of Mulliken charges =   1.00000

 Dipole moment (field-independent basis, Debye):
    X=             -8.4038    Y=             -4.5577    Z=             15.1773  Tot=             17.9373
 Quadrupole moment (field-independent basis, Debye-Ang):
   XX=           -139.8565   YY=           -225.2227   ZZ=           -164.9360
   XY=            -11.6877   XZ=            -27.1425   YZ=            -14.2664

 Normal termination of Gaussian 16 at Sat Jun  4 16:59:45 2022.
