 Gaussian 16, Revision C.01,
 Gaussian 16:  ES64L-G16RevC.01  3-Jul-2019

 -------------------------------------------------------------------
 # B3LYP/6-31G* guess=read geom=check nosymm integral(ultrafinegrid)
 -------------------------------------------------------------------

 ------------------------------------------------------
 Candidate Structure: Conf:497 Charge calc in gas phase
 ------------------------------------------------------
 Structure from the checkpoint file:  "conf-497.chk"
 Charge =  1 Multiplicity = 1

                          Input orientation:
 ---------------------------------------------------------------------
 Center     Atomic      Atomic             Coordinates (Angstroms)
 Number     Number       Type             X           Y           Z
 ---------------------------------------------------------------------
      1          7           0       -3.521515    4.360775   -1.299666
      2          1           0       -2.791787    4.313535   -2.715784
      3          1           0       -4.312450    3.716158   -1.389332
      4          1           0       -3.896982    5.278233   -1.056199
      5          6           0       -2.688221    3.827019   -0.197946
      6          1           0       -1.688723    4.269133   -0.240813
      7          6           0       -2.620299    2.303096   -0.446071
      8          6           0       -3.262027    4.126140    1.197684
      9          1           0       -3.521164    5.192593    1.266017
     10          1           0       -4.185407    3.556896    1.358531
     11          8           0       -3.636907    1.726619   -0.842937
     12          6           0       -2.221474    3.818681    2.280878
     13          7           0       -2.700097    3.750755    3.546998
     14          1           0       -2.046871    3.595124    4.304046
     15          1           0       -3.671329    3.904600    3.775110
     16          8           0       -1.036274    3.662233    2.003765
     17          7           0       -1.422652    1.733787   -0.240061
     18          1           0       -0.697558    2.271513    0.235516
     19          6           0       -1.108589    0.322558   -0.424016
     20          1           0       -1.671367   -0.280283    0.300721
     21          6           0        0.402731    0.205338   -0.125878
     22          6           0       -1.458649   -0.169017   -1.865124
     23          1           0       -2.362086    0.366658   -2.165673
     24          1           0       -0.654692    0.127982   -2.549195
     25          8           0        1.049154    1.202046    0.220898
     26          6           0       -1.727623   -1.657778   -1.961848
     27          6           0       -0.826724   -2.534812   -2.583965
     28          1           0        0.092979   -2.145604   -3.017720
     29          6           0       -2.911670   -2.183339   -1.420007
     30          1           0       -3.627106   -1.509226   -0.953741
     31          6           0       -1.100739   -3.904063   -2.659888
     32          1           0       -0.396249   -4.568400   -3.152564
     33          6           0       -3.184539   -3.548002   -1.494460
     34          1           0       -4.107899   -3.937189   -1.074876
     35          6           0       -2.278363   -4.413416   -2.114236
     36          1           0       -2.492760   -5.476329   -2.174776
     37          7           0        0.947839   -1.017141   -0.292534
     38          1           0        0.371034   -1.762645   -0.668389
     39          6           0        2.400691   -1.243231   -0.228907
     40          1           0        2.784659   -0.698721    0.638485
     41          6           0        3.041104   -0.694054   -1.530313
     42          6           0        2.694448   -2.735904   -0.060134
     43          1           0        2.391467   -3.274475   -0.962722
     44          1           0        2.124630   -3.113035    0.793548
     45          8           0        3.294591   -1.414903   -2.493858
     46          6           0        4.178303   -2.957454    0.263263
     47          7           0        4.932211   -3.417448   -0.777910
     48          1           0        5.933173   -3.447898   -0.631307
     49          1           0        4.603964   -3.266929   -1.723768
     50          8           0        4.618862   -2.738915    1.381407
     51          7           0        3.223134    0.651737   -1.531307
     52          1           0        2.940872    1.162452   -0.701281
     53          6           0        3.781692    1.365392   -2.661027
     54          1           0        3.460966    0.843951   -3.571496
     55          6           0        5.316741    1.355908   -2.729543
     56          6           0        3.290165    2.826788   -2.699897
     57          1           0        3.643472    3.348843   -1.799433
     58          1           0        3.783304    3.308354   -3.550593
     59          8           0        5.930379    1.947825   -3.588743
     60          6           0        1.763373    2.946783   -2.807404
     61          1           0        1.408715    2.360979   -3.664571
     62          1           0        1.286238    2.532800   -1.913081
     63          6           0        1.323566    4.408441   -2.965866
     64          1           0        1.687469    5.007260   -2.126353
     65          1           0        1.763216    4.861684   -3.863716
     66          7           0       -0.137393    4.598919   -2.978867
     67          1           0       -0.564654    4.981267   -2.147918
     68          7           0       -0.497451    3.832482   -5.143748
     69          1           0       -1.131643    3.557575   -5.880578
     70          1           0        0.409467    4.163224   -5.442012
     71          7           0       -2.297847    4.186689   -3.693696
     72          1           0       -2.929719    4.024496   -4.468255
     73          6           0       -0.996442    4.209841   -3.941606
     74          8           0        5.895499    0.637817   -1.751257
     75          1           0        6.859120    0.691773   -1.900481
 ---------------------------------------------------------------------

 SCF Done:  E(RB3LYP) =  -1917.38464677     A.U. after    1 cycles

 Alpha  occ. eigenvalues --  -19.27726 -19.22595 -19.22238 -19.21786 -19.21776
 Alpha  occ. eigenvalues --  -19.20449 -19.16881 -14.51643 -14.51459 -14.48966
 Alpha  occ. eigenvalues --  -14.46921 -14.46250 -14.45934 -14.45854 -14.44628
 Alpha  occ. eigenvalues --  -14.40949 -10.47422 -10.40076 -10.39696 -10.39367
 Alpha  occ. eigenvalues --  -10.39348 -10.37400 -10.36069 -10.34948 -10.34804
 Alpha  occ. eigenvalues --  -10.33788 -10.33164 -10.32483 -10.31316 -10.30120
 Alpha  occ. eigenvalues --  -10.29698 -10.28619 -10.28155 -10.27041 -10.26861
 Alpha  occ. eigenvalues --  -10.26804 -10.26741 -10.26683 -10.26516  -1.18637
 Alpha  occ. eigenvalues --   -1.15623  -1.14670  -1.13937  -1.13506  -1.12094
 Alpha  occ. eigenvalues --   -1.09566  -1.08743  -1.05275  -1.03712  -1.02870
 Alpha  occ. eigenvalues --   -1.02557  -1.02395  -1.01544  -1.00630  -0.95864
 Alpha  occ. eigenvalues --   -0.93660  -0.91284  -0.89222  -0.87726  -0.86463
 Alpha  occ. eigenvalues --   -0.85205  -0.82496  -0.82161  -0.80560  -0.77754
 Alpha  occ. eigenvalues --   -0.77225  -0.75912  -0.74227  -0.72846  -0.72130
 Alpha  occ. eigenvalues --   -0.70628  -0.69146  -0.69052  -0.68743  -0.68135
 Alpha  occ. eigenvalues --   -0.67576  -0.66990  -0.65904  -0.65660  -0.64560
 Alpha  occ. eigenvalues --   -0.64369  -0.63908  -0.63050  -0.62776  -0.61277
 Alpha  occ. eigenvalues --   -0.60248  -0.60051  -0.59280  -0.58985  -0.58791
 Alpha  occ. eigenvalues --   -0.58534  -0.58261  -0.57554  -0.56902  -0.56543
 Alpha  occ. eigenvalues --   -0.56273  -0.55265  -0.54494  -0.54287  -0.53897
 Alpha  occ. eigenvalues --   -0.53655  -0.53129  -0.52857  -0.52366  -0.52068
 Alpha  occ. eigenvalues --   -0.51813  -0.50953  -0.50459  -0.50167  -0.49669
 Alpha  occ. eigenvalues --   -0.49320  -0.49259  -0.48661  -0.48439  -0.48241
 Alpha  occ. eigenvalues --   -0.47910  -0.47367  -0.46865  -0.46797  -0.46203
 Alpha  occ. eigenvalues --   -0.45642  -0.45448  -0.45298  -0.44732  -0.44216
 Alpha  occ. eigenvalues --   -0.43432  -0.42801  -0.42187  -0.42038  -0.41761
 Alpha  occ. eigenvalues --   -0.40480  -0.39758  -0.39437  -0.37892  -0.37284
 Alpha  occ. eigenvalues --   -0.37132  -0.36567  -0.36017  -0.35868  -0.35419
 Alpha  occ. eigenvalues --   -0.33343  -0.33205  -0.32904  -0.32421  -0.32275
 Alpha  occ. eigenvalues --   -0.30527
 Alpha virt. eigenvalues --   -0.11425  -0.09689  -0.08883  -0.08424  -0.08259
 Alpha virt. eigenvalues --   -0.07723  -0.07587  -0.07208  -0.06500  -0.06075
 Alpha virt. eigenvalues --   -0.04536  -0.03337  -0.03136  -0.01560  -0.00883

 Mulliken charges:
               1
     1  N   -0.803686
     2  H    0.456284
     3  H    0.361523
     4  H    0.335797
     5  C   -0.053053
     6  H    0.154590
     7  C    0.623395
     8  C   -0.394378
     9  H    0.181044
    10  H    0.190638
    11  O   -0.542129
    12  C    0.619112
    13  N   -0.743145
    14  H    0.364484
    15  H    0.354004
    16  O   -0.510914
    17  N   -0.639689
    18  H    0.393830
    19  C   -0.024798
    20  H    0.197408
    21  C    0.625515
    22  C   -0.380550
    23  H    0.203204
    24  H    0.148225
    25  O   -0.553297
    26  C    0.133220
    27  C   -0.230770
    28  H    0.149434
    29  C   -0.180421
    30  H    0.151730
    31  C   -0.125586
    32  H    0.151489
    33  C   -0.126096
    34  H    0.150807
    35  C   -0.126319
    36  H    0.152706
    37  N   -0.619372
    38  H    0.365784
    39  C   -0.060539
    40  H    0.205916
    41  C    0.630211
    42  C   -0.374624
    43  H    0.168800
    44  H    0.187800
    45  O   -0.539648
    46  C    0.565986
    47  N   -0.730262
    48  H    0.342153
    49  H    0.358421
    50  O   -0.493766
    51  N   -0.608621
    52  H    0.370471
    53  C   -0.036967
    54  H    0.201371
    55  C    0.600060
    56  C   -0.308387
    57  H    0.161399
    58  H    0.185048
    59  O   -0.457193
    60  C   -0.284958
    61  H    0.153068
    62  H    0.182383
    63  C   -0.165794
    64  H    0.192462
    65  H    0.169442
    66  N   -0.609316
    67  H    0.368558
    68  N   -0.753179
    69  H    0.373880
    70  H    0.379164
    71  N   -0.807685
    72  H    0.351611
    73  C    0.800472
    74  O   -0.552189
    75  H    0.424433
 Sum of Mulliken charges =   1.00000

 Dipole moment (field-independent basis, Debye):
    X=             -8.5935    Y=             17.2729    Z=            -11.4585  Tot=             22.4388
 Quadrupole moment (field-independent basis, Debye-Ang):
   XX=           -181.3141   YY=           -123.5818   ZZ=           -154.7213
   XY=            -35.2365   XZ=            -10.0005   YZ=            -30.8024

 Normal termination of Gaussian 16 at Sat Jun  4 16:59:16 2022.
