 Gaussian 16, Revision C.01,
 Gaussian 16:  ES64L-G16RevC.01  3-Jul-2019

 -------------------------------------------------------------------
 # B3LYP/6-31G* guess=read geom=check nosymm integral(ultrafinegrid)
 -------------------------------------------------------------------

 ------------------------------------------------------
 Candidate Structure: Conf:448 Charge calc in gas phase
 ------------------------------------------------------
 Structure from the checkpoint file:  "conf-448.chk"
 Charge =  1 Multiplicity = 1

                          Input orientation:
 ---------------------------------------------------------------------
 Center     Atomic      Atomic             Coordinates (Angstroms)
 Number     Number       Type             X           Y           Z
 ---------------------------------------------------------------------
      1          7           0       -4.347926    3.262269    2.238379
      2          1           0       -4.570644    2.242879    2.132580
      3          1           0       -3.912120    3.386660    3.194852
      4          1           0       -5.183174    3.838377    2.122751
      5          6           0       -3.277653    3.506953    1.200884
      6          1           0       -3.630508    4.241886    0.475282
      7          6           0       -3.040070    2.119421    0.545434
      8          6           0       -1.984128    4.014468    1.878045
      9          1           0       -1.182100    3.998503    1.139403
     10          1           0       -2.125656    5.048320    2.209944
     11          8           0       -3.561711    1.130719    1.075053
     12          6           0       -1.669740    3.179979    3.118357
     13          7           0       -0.556296    2.435720    3.096087
     14          1           0       -0.391712    1.824460    3.887422
     15          1           0       -0.093702    2.224168    2.211917
     16          8           0       -2.460974    3.217766    4.076862
     17          7           0       -2.233049    2.127113   -0.515832
     18          1           0       -1.905151    3.034716   -0.894074
     19          6           0       -1.610733    0.921737   -1.048355
     20          1           0       -2.184054    0.065190   -0.680401
     21          6           0       -0.173472    0.837701   -0.465566
     22          6           0       -1.663645    0.959179   -2.603304
     23          1           0       -2.670375    1.312749   -2.856684
     24          1           0       -0.965833    1.722597   -2.965586
     25          8           0        0.224482    1.666919    0.376309
     26          6           0       -1.406334   -0.358324   -3.308095
     27          6           0       -0.278733   -0.530773   -4.122180
     28          1           0        0.437433    0.280695   -4.227689
     29          6           0       -2.314820   -1.419782   -3.184115
     30          1           0       -3.204239   -1.301754   -2.567808
     31          6           0       -0.062596   -1.734832   -4.795362
     32          1           0        0.814667   -1.846710   -5.426465
     33          6           0       -2.099204   -2.623802   -3.852434
     34          1           0       -2.813155   -3.435430   -3.745544
     35          6           0       -0.972184   -2.783830   -4.661233
     36          1           0       -0.806357   -3.720950   -5.184881
     37          7           0        0.601015   -0.142112   -0.948115
     38          1           0        0.178066   -0.920356   -1.458251
     39          6           0        1.978772   -0.370319   -0.492818
     40          1           0        1.996536   -0.315411    0.602734
     41          6           0        2.913591    0.728876   -1.079543
     42          6           0        2.490302   -1.740502   -0.969126
     43          1           0        3.472269   -1.907964   -0.516525
     44          1           0        2.650388   -1.678680   -2.051270
     45          8           0        3.494758    0.574282   -2.145656
     46          6           0        1.532043   -2.894894   -0.701201
     47          7           0        2.054734   -3.974620   -0.066114
     48          1           0        1.473845   -4.797225    0.031163
     49          1           0        3.040113   -4.061903    0.132621
     50          8           0        0.353972   -2.850815   -1.056381
     51          7           0        3.011017    1.842162   -0.307053
     52          1           0        2.345870    1.927370    0.451925
     53          6           0        3.737987    3.029370   -0.717227
     54          1           0        4.060363    2.844551   -1.750679
     55          6           0        5.031617    3.248075    0.081270
     56          6           0        2.855703    4.289307   -0.656743
     57          1           0        2.416970    4.362181    0.350180
     58          1           0        3.511556    5.157919   -0.767382
     59          8           0        5.591140    4.317467    0.172287
     60          6           0        1.746400    4.318472   -1.713842
     61          1           0        2.200946    4.347914   -2.713988
     62          1           0        1.143158    3.405502   -1.665916
     63          6           0        0.829199    5.539377   -1.538656
     64          1           0        0.201602    5.431184   -0.650553
     65          1           0        1.437862    6.441891   -1.398602
     66          7           0       -0.058495    5.778266   -2.667826
     67          1           0        0.389360    6.008812   -3.544725
     68          7           0       -1.958509    5.766060   -3.949530
     69          1           0       -2.951533    5.596008   -4.030477
     70          1           0       -1.676221    6.655414   -4.343736
     71          7           0       -1.965694    4.716330   -1.809767
     72          1           0       -2.958927    4.653023   -2.039126
     73          6           0       -1.364709    5.391121   -2.752124
     74          8           0        5.505233    2.114876    0.638506
     75          1           0        6.350822    2.357558    1.063016
 ---------------------------------------------------------------------

 SCF Done:  E(RB3LYP) =  -1917.37801013     A.U. after    1 cycles

 Alpha  occ. eigenvalues --  -19.27222 -19.24955 -19.24119 -19.23175 -19.21426
 Alpha  occ. eigenvalues --  -19.20115 -19.19948 -14.56217 -14.47095 -14.46896
 Alpha  occ. eigenvalues --  -14.45867 -14.45220 -14.45130 -14.44463 -14.44292
 Alpha  occ. eigenvalues --  -14.39866 -10.41729 -10.41518 -10.39683 -10.39599
 Alpha  occ. eigenvalues --  -10.39556 -10.39289 -10.37955 -10.37184 -10.34139
 Alpha  occ. eigenvalues --  -10.33456 -10.33124 -10.32140 -10.31326 -10.28999
 Alpha  occ. eigenvalues --  -10.28685 -10.27683 -10.27447 -10.27432 -10.26258
 Alpha  occ. eigenvalues --  -10.26185 -10.25937 -10.25923 -10.25782  -1.18156
 Alpha  occ. eigenvalues --   -1.17269  -1.15640  -1.14365  -1.11979  -1.11761
 Alpha  occ. eigenvalues --   -1.10671  -1.09071  -1.08331  -1.04416  -1.02646
 Alpha  occ. eigenvalues --   -1.02167  -1.01188  -0.99091  -0.99059  -0.94733
 Alpha  occ. eigenvalues --   -0.93189  -0.91992  -0.89187  -0.88207  -0.86558
 Alpha  occ. eigenvalues --   -0.83360  -0.82697  -0.81466  -0.80096  -0.77648
 Alpha  occ. eigenvalues --   -0.76324  -0.74407  -0.72222  -0.71897  -0.71116
 Alpha  occ. eigenvalues --   -0.70485  -0.69948  -0.68766  -0.68326  -0.67852
 Alpha  occ. eigenvalues --   -0.67374  -0.67315  -0.66567  -0.65681  -0.64984
 Alpha  occ. eigenvalues --   -0.64440  -0.64192  -0.62578  -0.62381  -0.61519
 Alpha  occ. eigenvalues --   -0.60922  -0.60114  -0.59294  -0.58540  -0.58446
 Alpha  occ. eigenvalues --   -0.57870  -0.57576  -0.56689  -0.56535  -0.56259
 Alpha  occ. eigenvalues --   -0.55370  -0.55017  -0.54875  -0.53744  -0.53476
 Alpha  occ. eigenvalues --   -0.53302  -0.52568  -0.52508  -0.52243  -0.51927
 Alpha  occ. eigenvalues --   -0.51673  -0.51218  -0.51016  -0.50579  -0.49801
 Alpha  occ. eigenvalues --   -0.49634  -0.49025  -0.48833  -0.48447  -0.48247
 Alpha  occ. eigenvalues --   -0.48064  -0.47776  -0.47462  -0.46813  -0.46655
 Alpha  occ. eigenvalues --   -0.46124  -0.45603  -0.44523  -0.44179  -0.43264
 Alpha  occ. eigenvalues --   -0.42769  -0.42619  -0.41666  -0.41118  -0.39487
 Alpha  occ. eigenvalues --   -0.39225  -0.39056  -0.38633  -0.38028  -0.37755
 Alpha  occ. eigenvalues --   -0.37417  -0.37018  -0.36479  -0.35625  -0.35384
 Alpha  occ. eigenvalues --   -0.34224  -0.33099  -0.32921  -0.32525  -0.31966
 Alpha  occ. eigenvalues --   -0.31603
 Alpha virt. eigenvalues --   -0.10836  -0.10443  -0.09234  -0.07688  -0.07262
 Alpha virt. eigenvalues --   -0.07142  -0.07118  -0.06520  -0.05503  -0.05228
 Alpha virt. eigenvalues --   -0.04031  -0.02677  -0.01559  -0.00814  -0.00145

 Mulliken charges:
               1
     1  N   -0.775081
     2  H    0.423030
     3  H    0.438383
     4  H    0.399958
     5  C   -0.114192
     6  H    0.213806
     7  C    0.619210
     8  C   -0.379741
     9  H    0.223185
    10  H    0.207784
    11  O   -0.532631
    12  C    0.599494
    13  N   -0.747926
    14  H    0.361665
    15  H    0.407960
    16  O   -0.538326
    17  N   -0.612546
    18  H    0.413903
    19  C   -0.099681
    20  H    0.218464
    21  C    0.639043
    22  C   -0.360988
    23  H    0.169901
    24  H    0.167430
    25  O   -0.590705
    26  C    0.131524
    27  C   -0.190900
    28  H    0.139901
    29  C   -0.171583
    30  H    0.130076
    31  C   -0.126422
    32  H    0.146927
    33  C   -0.114730
    34  H    0.146150
    35  C   -0.121413
    36  H    0.146723
    37  N   -0.604730
    38  H    0.408252
    39  C   -0.050116
    40  H    0.167255
    41  C    0.626511
    42  C   -0.406943
    43  H    0.168528
    44  H    0.225708
    45  O   -0.509934
    46  C    0.614568
    47  N   -0.740894
    48  H    0.357565
    49  H    0.352093
    50  O   -0.518233
    51  N   -0.593363
    52  H    0.349284
    53  C   -0.068374
    54  H    0.217695
    55  C    0.595817
    56  C   -0.284865
    57  H    0.135297
    58  H    0.189452
    59  O   -0.453524
    60  C   -0.273109
    61  H    0.146384
    62  H    0.155739
    63  C   -0.133527
    64  H    0.171413
    65  H    0.164119
    66  N   -0.598957
    67  H    0.336813
    68  N   -0.756484
    69  H    0.338422
    70  H    0.343303
    71  N   -0.742958
    72  H    0.274964
    73  C    0.666837
    74  O   -0.558608
    75  H    0.420949
 Sum of Mulliken charges =   1.00000

 Dipole moment (field-independent basis, Debye):
    X=             -7.5980    Y=             12.3737    Z=             -0.9245  Tot=             14.5497
 Quadrupole moment (field-independent basis, Debye-Ang):
   XX=           -158.0800   YY=           -119.9772   ZZ=           -194.5941
   XY=            -64.6572   XZ=              4.0604   YZ=            -18.0989

 Normal termination of Gaussian 16 at Sat Jun  4 16:59:18 2022.
