 Gaussian 16, Revision C.01,
 Gaussian 16:  ES64L-G16RevC.01  3-Jul-2019

 -------------------------------------------------------------------
 # B3LYP/6-31G* guess=read geom=check nosymm integral(ultrafinegrid)
 -------------------------------------------------------------------

 ------------------------------------------------------
 Candidate Structure: Conf:472 Charge calc in gas phase
 ------------------------------------------------------
 Structure from the checkpoint file:  "conf-472.chk"
 Charge =  1 Multiplicity = 1

                          Input orientation:
 ---------------------------------------------------------------------
 Center     Atomic      Atomic             Coordinates (Angstroms)
 Number     Number       Type             X           Y           Z
 ---------------------------------------------------------------------
      1          7           0       -5.778913   -0.222114    4.363252
      2          1           0       -6.637498    0.334110    4.384363
      3          1           0       -5.773194   -0.868685    3.492652
      4          1           0       -5.727231   -0.773400    5.223354
      5          6           0       -4.539515    0.602841    4.086849
      6          1           0       -4.821541    1.654658    4.018150
      7          6           0       -4.109735    0.072158    2.680749
      8          6           0       -3.489566    0.437376    5.195978
      9          1           0       -3.977625    0.451184    6.180228
     10          1           0       -2.961475   -0.519629    5.104826
     11          8           0       -4.773973   -0.882690    2.225179
     12          6           0       -2.494462    1.612600    5.138966
     13          7           0       -1.494110    1.579777    6.042923
     14          1           0       -0.812469    2.328171    6.027712
     15          1           0       -1.367576    0.829478    6.706700
     16          8           0       -2.645528    2.513870    4.320946
     17          7           0       -3.090220    0.657773    2.083255
     18          1           0       -2.588932    1.441086    2.516931
     19          6           0       -2.588075    0.253562    0.766560
     20          1           0       -2.611557   -0.838664    0.709306
     21          6           0       -1.132675    0.770122    0.724922
     22          6           0       -3.481325    0.839750   -0.365977
     23          1           0       -4.520636    0.646961   -0.075468
     24          1           0       -3.345856    1.926892   -0.389047
     25          8           0       -0.763621    1.615077    1.546142
     26          6           0       -3.220326    0.236103   -1.729970
     27          6           0       -2.612041    0.980214   -2.748099
     28          1           0       -2.319869    2.010600   -2.558781
     29          6           0       -3.597447   -1.089140   -1.995740
     30          1           0       -4.090220   -1.674186   -1.221067
     31          6           0       -2.381951    0.413956   -4.002845
     32          1           0       -1.909814    1.005175   -4.782153
     33          6           0       -3.364696   -1.657635   -3.247639
     34          1           0       -3.664584   -2.684103   -3.439190
     35          6           0       -2.755386   -0.906099   -4.254625
     36          1           0       -2.574051   -1.347991   -5.230014
     37          7           0       -0.344134    0.250099   -0.228355
     38          1           0       -0.687755   -0.406899   -0.927561
     39          6           0        1.015022    0.716050   -0.472014
     40          1           0        1.044399    1.808558   -0.428654
     41          6           0        1.383214    0.209763   -1.881763
     42          6           0        1.995762    0.163726    0.589156
     43          1           0        2.145195   -0.911967    0.441009
     44          1           0        1.535989    0.308291    1.573671
     45          8           0        0.740504   -0.701010   -2.401972
     46          6           0        3.342751    0.886318    0.599109
     47          7           0        4.273633    0.361317    1.438757
     48          1           0        5.206541    0.750309    1.390184
     49          1           0        4.183945   -0.580423    1.792367
     50          8           0        3.555760    1.910445   -0.049143
     51          7           0        2.447797    0.818719   -2.455952
     52          1           0        2.985869    1.438874   -1.849680
     53          6           0        3.144006    0.181849   -3.558980
     54          1           0        2.395313   -0.200327   -4.259999
     55          6           0        3.926231   -1.031674   -3.035899
     56          6           0        4.074793    1.173658   -4.283437
     57          1           0        4.793335    1.581638   -3.558319
     58          1           0        4.659413    0.611717   -5.019500
     59          8           0        4.090409   -1.314520   -1.868637
     60          6           0        3.325112    2.318475   -4.975696
     61          1           0        2.622444    1.893108   -5.708549
     62          1           0        2.721614    2.875553   -4.249925
     63          6           0        4.288843    3.281083   -5.673891
     64          1           0        4.962286    3.747158   -4.950238
     65          1           0        4.931573    2.734393   -6.382813
     66          7           0        3.557724    4.357691   -6.333046
     67          1           0        2.876431    4.032007   -7.011271
     68          7           0        3.476722    6.305718   -7.579232
     69          1           0        3.911358    7.195928   -7.790294
     70          1           0        2.535186    6.432276   -7.221734
     71          7           0        5.519836    5.598769   -6.508647
     72          1           0        5.868682    6.506466   -6.820920
     73          6           0        4.276892    5.460932   -6.792162
     74          8           0        4.430798   -1.761132   -4.051623
     75          1           0        4.921178   -2.504798   -3.652651
 ---------------------------------------------------------------------

 SCF Done:  E(RB3LYP) =  -1917.34865045     A.U. after    2 cycles

 Alpha  occ. eigenvalues --  -19.27272 -19.26166 -19.24902 -19.20705 -19.20686
 Alpha  occ. eigenvalues --  -19.19242 -19.18932 -14.60085 -14.49028 -14.48778
 Alpha  occ. eigenvalues --  -14.44312 -14.43047 -14.41989 -14.38435 -14.38180
 Alpha  occ. eigenvalues --  -14.31929 -10.43704 -10.43113 -10.41403 -10.38461
 Alpha  occ. eigenvalues --  -10.37946 -10.36956 -10.36276 -10.35791 -10.34044
 Alpha  occ. eigenvalues --  -10.31417 -10.31253 -10.30172 -10.28634 -10.27606
 Alpha  occ. eigenvalues --  -10.27108 -10.25993 -10.25858 -10.25700 -10.25573
 Alpha  occ. eigenvalues --  -10.25442 -10.25313 -10.25282 -10.23848  -1.19660
 Alpha  occ. eigenvalues --   -1.17102  -1.16894  -1.13921  -1.12764  -1.11104
 Alpha  occ. eigenvalues --   -1.10621  -1.08077  -1.05763  -1.03762  -1.01002
 Alpha  occ. eigenvalues --   -1.00911  -0.99350  -0.97885  -0.94422  -0.92707
 Alpha  occ. eigenvalues --   -0.92365  -0.88604  -0.87659  -0.86552  -0.84686
 Alpha  occ. eigenvalues --   -0.84104  -0.81407  -0.81154  -0.79767  -0.76451
 Alpha  occ. eigenvalues --   -0.75244  -0.74751  -0.74201  -0.72098  -0.71578
 Alpha  occ. eigenvalues --   -0.70232  -0.68879  -0.67471  -0.67336  -0.66946
 Alpha  occ. eigenvalues --   -0.66305  -0.65592  -0.65409  -0.65182  -0.64348
 Alpha  occ. eigenvalues --   -0.63649  -0.62352  -0.61292  -0.60971  -0.60137
 Alpha  occ. eigenvalues --   -0.59541  -0.58496  -0.57626  -0.57204  -0.56959
 Alpha  occ. eigenvalues --   -0.56681  -0.56404  -0.55961  -0.55276  -0.54766
 Alpha  occ. eigenvalues --   -0.54386  -0.53731  -0.53614  -0.52908  -0.52688
 Alpha  occ. eigenvalues --   -0.52627  -0.52237  -0.51824  -0.51470  -0.50970
 Alpha  occ. eigenvalues --   -0.50819  -0.50275  -0.49856  -0.48824  -0.48569
 Alpha  occ. eigenvalues --   -0.48269  -0.48075  -0.47686  -0.47526  -0.46893
 Alpha  occ. eigenvalues --   -0.46270  -0.46077  -0.45897  -0.45154  -0.43419
 Alpha  occ. eigenvalues --   -0.43024  -0.42629  -0.42421  -0.42341  -0.41735
 Alpha  occ. eigenvalues --   -0.41247  -0.41131  -0.40822  -0.39853  -0.39418
 Alpha  occ. eigenvalues --   -0.39088  -0.38905  -0.38831  -0.38154  -0.35189
 Alpha  occ. eigenvalues --   -0.34874  -0.34572  -0.34310  -0.32918  -0.32700
 Alpha  occ. eigenvalues --   -0.32099  -0.31640  -0.31242  -0.30013  -0.28961
 Alpha  occ. eigenvalues --   -0.26453
 Alpha virt. eigenvalues --   -0.12463  -0.11796  -0.10929  -0.07665  -0.07019
 Alpha virt. eigenvalues --   -0.06855  -0.06499  -0.05619  -0.05269  -0.04875
 Alpha virt. eigenvalues --   -0.04589  -0.03220  -0.01747   0.00094   0.00955

 Mulliken charges:
               1
     1  N   -0.773957
     2  H    0.417640
     3  H    0.440417
     4  H    0.408532
     5  C   -0.088678
     6  H    0.248677
     7  C    0.633474
     8  C   -0.412309
     9  H    0.195362
    10  H    0.209729
    11  O   -0.556716
    12  C    0.637201
    13  N   -0.741621
    14  H    0.380450
    15  H    0.359452
    16  O   -0.491122
    17  N   -0.611566
    18  H    0.417289
    19  C   -0.068604
    20  H    0.192022
    21  C    0.625449
    22  C   -0.353800
    23  H    0.172351
    24  H    0.169013
    25  O   -0.544974
    26  C    0.144486
    27  C   -0.181677
    28  H    0.133988
    29  C   -0.191753
    30  H    0.131893
    31  C   -0.113338
    32  H    0.143042
    33  C   -0.122391
    34  H    0.143910
    35  C   -0.118436
    36  H    0.146817
    37  N   -0.633171
    38  H    0.375978
    39  C   -0.041580
    40  H    0.203097
    41  C    0.610135
    42  C   -0.380833
    43  H    0.186310
    44  H    0.196526
    45  O   -0.535398
    46  C    0.629772
    47  N   -0.737028
    48  H    0.354833
    49  H    0.345734
    50  O   -0.525343
    51  N   -0.611508
    52  H    0.382809
    53  C   -0.050029
    54  H    0.198800
    55  C    0.599218
    56  C   -0.299110
    57  H    0.156508
    58  H    0.175828
    59  O   -0.481753
    60  C   -0.273133
    61  H    0.128567
    62  H    0.157343
    63  C   -0.102397
    64  H    0.183347
    65  H    0.142361
    66  N   -0.611757
    67  H    0.314162
    68  N   -0.756428
    69  H    0.322720
    70  H    0.321984
    71  N   -0.643952
    72  H    0.268829
    73  C    0.588301
    74  O   -0.559022
    75  H    0.419030
 Sum of Mulliken charges =   1.00000

 Dipole moment (field-independent basis, Debye):
    X=            -15.6794    Y=             -0.6446    Z=             17.4207  Tot=             23.4465
 Quadrupole moment (field-independent basis, Debye-Ang):
   XX=           -111.3924   YY=           -204.7420   ZZ=            -76.2771
   XY=            -10.4497   XZ=            -81.1701   YZ=            -18.1024

 Normal termination of Gaussian 16 at Sat Jun  4 16:59:26 2022.
