 Gaussian 16, Revision C.01,
 Gaussian 16:  ES64L-G16RevC.01  3-Jul-2019

 -------------------------------------------------------------------
 # B3LYP/6-31G* guess=read geom=check nosymm integral(ultrafinegrid)
 -------------------------------------------------------------------

 ------------------------------------------------------
 Candidate Structure: Conf:234 Charge calc in gas phase
 ------------------------------------------------------
 Structure from the checkpoint file:  "conf-234.chk"
 Charge =  1 Multiplicity = 1

                          Input orientation:
 ---------------------------------------------------------------------
 Center     Atomic      Atomic             Coordinates (Angstroms)
 Number     Number       Type             X           Y           Z
 ---------------------------------------------------------------------
      1          7           0       -6.472714   -0.005876    3.003483
      2          1           0       -6.865252    0.622466    2.277137
      3          1           0       -6.288654   -0.916902    2.518119
      4          1           0       -7.134940   -0.100912    3.777721
      5          6           0       -5.092169    0.462001    3.409470
      6          1           0       -5.096794    1.550087    3.452616
      7          6           0       -4.243902   -0.061206    2.216696
      8          6           0       -4.686951   -0.120306    4.766118
      9          1           0       -5.491190    0.017557    5.502535
     10          1           0       -4.493543   -1.197097    4.687547
     11          8           0       -4.654696   -1.092229    1.664266
     12          6           0       -3.435729    0.627089    5.262770
     13          7           0       -2.895846    0.165100    6.411393
     14          1           0       -2.083562    0.638998    6.785043
     15          1           0       -3.267172   -0.623460    6.921045
     16          8           0       -2.992997    1.587136    4.641521
     17          7           0       -3.206432    0.674907    1.827779
     18          1           0       -2.830758    1.412762    2.425259
     19          6           0       -2.601141    0.516605    0.510649
     20          1           0       -2.678828   -0.533699    0.220722
     21          6           0       -1.137167    0.976951    0.624612
     22          6           0       -3.337202    1.421394   -0.538231
     23          1           0       -3.019942    2.455513   -0.362735
     24          1           0       -2.978024    1.137737   -1.533661
     25          8           0       -0.820500    1.797200    1.486850
     26          6           0       -4.847830    1.337982   -0.468569
     27          6           0       -5.555977    0.319525   -1.123505
     28          1           0       -5.016194   -0.401130   -1.732554
     29          6           0       -5.571019    2.261987    0.300116
     30          1           0       -5.045320    3.083947    0.780931
     31          6           0       -6.940910    0.211232   -0.999391
     32          1           0       -7.468641   -0.580518   -1.523161
     33          6           0       -6.963271    2.161129    0.430813
     34          1           0       -7.510548    2.920204    0.985943
     35          6           0       -7.652006    1.127253   -0.216523
     36          1           0       -8.734617    1.061633   -0.146025
     37          7           0       -0.303699    0.467302   -0.297737
     38          1           0       -0.609108   -0.189361   -1.016611
     39          6           0        1.056544    0.934407   -0.514491
     40          1           0        1.068745    2.029470   -0.535959
     41          6           0        1.448995    0.368671   -1.903249
     42          6           0        2.019378    0.449492    0.602582
     43          1           0        2.384387   -0.559440    0.372119
     44          1           0        1.457847    0.401770    1.540101
     45          8           0        0.708987   -0.436868   -2.472474
     46          6           0        3.229904    1.361572    0.785454
     47          7           0        3.815054    1.314362    2.005516
     48          1           0        4.650461    1.861972    2.161897
     49          1           0        3.467956    0.735686    2.755027
     50          8           0        3.663582    2.091106   -0.109647
     51          7           0        2.623936    0.807053   -2.393731
     52          1           0        3.188944    1.377127   -1.759737
     53          6           0        3.270390    0.111945   -3.491726
     54          1           0        2.503783   -0.130803   -4.234093
     55          6           0        3.834412   -1.226211   -2.991789
     56          6           0        4.353919    0.978369   -4.163658
     57          1           0        4.707115    0.451836   -5.054282
     58          1           0        3.872080    1.901218   -4.509486
     59          8           0        3.860161   -1.595976   -1.838304
     60          6           0        5.555648    1.324284   -3.270446
     61          1           0        5.246904    1.915200   -2.399416
     62          1           0        6.004778    0.403876   -2.869126
     63          6           0        6.637978    2.113724   -4.019192
     64          1           0        6.183224    3.018114   -4.442253
     65          1           0        7.404409    2.440423   -3.293522
     66          7           0        7.189742    1.323535   -5.105266
     67          1           0        7.421244    0.363230   -4.879961
     68          7           0        7.971801    3.182872   -6.318348
     69          1           0        8.713266    3.524332   -6.916913
     70          1           0        7.868165    3.767840   -5.497694
     71          7           0        8.740635    0.946543   -6.751956
     72          1           0        9.297823    1.400537   -7.476524
     73          6           0        8.046972    1.802108   -6.090501
     74          8           0        4.318735   -1.958405   -4.015682
     75          1           0        4.658828   -2.790896   -3.635982
 ---------------------------------------------------------------------

 SCF Done:  E(RB3LYP) =  -1917.34783045     A.U. after    1 cycles

 Alpha  occ. eigenvalues --  -19.25801 -19.25709 -19.24577 -19.20744 -19.20325
 Alpha  occ. eigenvalues --  -19.20034 -19.19194 -14.59741 -14.48444 -14.48360
 Alpha  occ. eigenvalues --  -14.44552 -14.43995 -14.41844 -14.38464 -14.37981
 Alpha  occ. eigenvalues --  -14.30938 -10.42767 -10.42726 -10.40489 -10.38120
 Alpha  occ. eigenvalues --  -10.38068 -10.37659 -10.36003 -10.35527 -10.34325
 Alpha  occ. eigenvalues --  -10.31784 -10.31286 -10.30555 -10.30368 -10.30134
 Alpha  occ. eigenvalues --  -10.30041 -10.29984 -10.29962 -10.29629 -10.29517
 Alpha  occ. eigenvalues --  -10.27921 -10.27291 -10.24845 -10.24664  -1.18501
 Alpha  occ. eigenvalues --   -1.16753  -1.16461  -1.13553  -1.12772  -1.11703
 Alpha  occ. eigenvalues --   -1.10899  -1.07747  -1.05157  -1.03385  -1.01227
 Alpha  occ. eigenvalues --   -1.00857  -0.99394  -0.98652  -0.96423  -0.93803
 Alpha  occ. eigenvalues --   -0.92575  -0.89779  -0.87682  -0.86981  -0.85317
 Alpha  occ. eigenvalues --   -0.85182  -0.84359  -0.82212  -0.79904  -0.77514
 Alpha  occ. eigenvalues --   -0.75876  -0.74557  -0.73185  -0.72455  -0.71308
 Alpha  occ. eigenvalues --   -0.71055  -0.70393  -0.69055  -0.68936  -0.67938
 Alpha  occ. eigenvalues --   -0.66846  -0.66517  -0.65912  -0.65154  -0.63942
 Alpha  occ. eigenvalues --   -0.63728  -0.63562  -0.62049  -0.61924  -0.61261
 Alpha  occ. eigenvalues --   -0.59423  -0.59224  -0.57924  -0.57365  -0.57276
 Alpha  occ. eigenvalues --   -0.56859  -0.56784  -0.56029  -0.55644  -0.55298
 Alpha  occ. eigenvalues --   -0.54591  -0.54460  -0.54275  -0.53671  -0.53422
 Alpha  occ. eigenvalues --   -0.52730  -0.52587  -0.52455  -0.52131  -0.51822
 Alpha  occ. eigenvalues --   -0.51298  -0.50676  -0.50118  -0.50049  -0.49790
 Alpha  occ. eigenvalues --   -0.49408  -0.48920  -0.48490  -0.48313  -0.47560
 Alpha  occ. eigenvalues --   -0.47027  -0.46657  -0.46247  -0.46013  -0.45307
 Alpha  occ. eigenvalues --   -0.44635  -0.44545  -0.44438  -0.43760  -0.42786
 Alpha  occ. eigenvalues --   -0.41957  -0.40519  -0.40397  -0.40167  -0.39544
 Alpha  occ. eigenvalues --   -0.39172  -0.38704  -0.38481  -0.37955  -0.35901
 Alpha  occ. eigenvalues --   -0.35692  -0.35373  -0.34756  -0.34436  -0.34216
 Alpha  occ. eigenvalues --   -0.33809  -0.33029  -0.32095  -0.30692  -0.28272
 Alpha  occ. eigenvalues --   -0.24874
 Alpha virt. eigenvalues --   -0.12855  -0.11724  -0.11372  -0.10879  -0.09131
 Alpha virt. eigenvalues --   -0.06792  -0.05600  -0.05166  -0.04758  -0.04620
 Alpha virt. eigenvalues --   -0.03843  -0.02432  -0.01367  -0.00772   0.00092

 Mulliken charges:
               1
     1  N   -0.760387
     2  H    0.413412
     3  H    0.424635
     4  H    0.401911
     5  C   -0.096753
     6  H    0.229709
     7  C    0.641015
     8  C   -0.404383
     9  H    0.190968
    10  H    0.210383
    11  O   -0.540711
    12  C    0.633211
    13  N   -0.742581
    14  H    0.374350
    15  H    0.359624
    16  O   -0.495962
    17  N   -0.599398
    18  H    0.397901
    19  C   -0.064638
    20  H    0.195436
    21  C    0.631092
    22  C   -0.366543
    23  H    0.181122
    24  H    0.184739
    25  O   -0.539525
    26  C    0.168400
    27  C   -0.150813
    28  H    0.156879
    29  C   -0.196773
    30  H    0.152063
    31  C   -0.128487
    32  H    0.163429
    33  C   -0.201933
    34  H    0.156845
    35  C   -0.155502
    36  H    0.158731
    37  N   -0.634668
    38  H    0.364212
    39  C   -0.038905
    40  H    0.200275
    41  C    0.608621
    42  C   -0.393791
    43  H    0.220135
    44  H    0.180536
    45  O   -0.544268
    46  C    0.640099
    47  N   -0.741014
    48  H    0.358120
    49  H    0.349766
    50  O   -0.531533
    51  N   -0.628116
    52  H    0.404375
    53  C   -0.058490
    54  H    0.203522
    55  C    0.601142
    56  C   -0.278489
    57  H    0.195641
    58  H    0.158110
    59  O   -0.477009
    60  C   -0.319867
    61  H    0.165849
    62  H    0.147039
    63  C   -0.128441
    64  H    0.154354
    65  H    0.137902
    66  N   -0.580462
    67  H    0.328041
    68  N   -0.751350
    69  H    0.325529
    70  H    0.323225
    71  N   -0.654154
    72  H    0.266905
    73  C    0.584652
    74  O   -0.558272
    75  H    0.419314
 Sum of Mulliken charges =   1.00000

 Dipole moment (field-independent basis, Debye):
    X=            -19.3610    Y=              2.3440    Z=             17.2778  Tot=             26.0550
 Quadrupole moment (field-independent basis, Debye-Ang):
   XX=            -34.8044   YY=           -213.2950   ZZ=           -140.9262
   XY=             20.7669   XZ=            -71.0183   YZ=            -20.8196

 Normal termination of Gaussian 16 at Sat Jun  4 16:59:11 2022.
