 Gaussian 16, Revision C.01,
 Gaussian 16:  ES64L-G16RevC.01  3-Jul-2019

 -------------------------------------------------------------------
 # B3LYP/6-31G* guess=read geom=check nosymm integral(ultrafinegrid)
 -------------------------------------------------------------------

 ------------------------------------------------------
 Candidate Structure: Conf:553 Charge calc in gas phase
 ------------------------------------------------------
 Structure from the checkpoint file:  "conf-553.chk"
 Charge =  1 Multiplicity = 1

                          Input orientation:
 ---------------------------------------------------------------------
 Center     Atomic      Atomic             Coordinates (Angstroms)
 Number     Number       Type             X           Y           Z
 ---------------------------------------------------------------------
      1          7           0       -6.223978    0.164908    2.334458
      2          1           0       -6.449790    1.007762    1.772825
      3          1           0       -6.076871   -0.605742    1.638969
      4          1           0       -6.987487   -0.035390    2.985582
      5          6           0       -4.865852    0.316928    2.984342
      6          1           0       -4.760299    1.346313    3.323503
      7          6           0       -3.930585    0.010365    1.781265
      8          6           0       -4.705098   -0.648495    4.161499
      9          1           0       -5.578668   -0.597179    4.826602
     10          1           0       -4.619989   -1.683717    3.809140
     11          8           0       -4.372375   -0.777898    0.932554
     12          6           0       -3.455817   -0.237206    4.962001
     13          7           0       -3.124420   -1.050858    5.987977
     14          1           0       -2.321967   -0.807277    6.554305
     15          1           0       -3.644512   -1.882756    6.226502
     16          8           0       -2.833385    0.778607    4.671751
     17          7           0       -2.781405    0.676403    1.707966
     18          1           0       -2.407608    1.172451    2.518393
     19          6           0       -2.032851    0.784993    0.461694
     20          1           0       -2.178872   -0.134865   -0.109163
     21          6           0       -0.555737    1.002678    0.834066
     22          6           0       -2.533000    2.018882   -0.368180
     23          1           0       -2.138468    2.921900    0.111225
     24          1           0       -2.079409    1.957703   -1.363574
     25          8           0       -0.265447    1.497746    1.923636
     26          6           0       -4.040585    2.119980   -0.471205
     27          6           0       -4.760125    2.901849    0.444580
     28          1           0       -4.220917    3.495422    1.179500
     29          6           0       -4.757037    1.408175   -1.444677
     30          1           0       -4.218402    0.804525   -2.170704
     31          6           0       -6.160569    2.956350    0.405005
     32          1           0       -6.695570    3.612808    1.088206
     33          6           0       -6.150115    1.456203   -1.491693
     34          1           0       -6.682695    0.903785   -2.260381
     35          6           0       -6.860408    2.225292   -0.563562
     36          1           0       -7.943981    2.287901   -0.620561
     37          7           0        0.328722    0.672278   -0.122386
     38          1           0        0.046245    0.311436   -1.034767
     39          6           0        1.737693    1.034638   -0.086210
     40          1           0        1.837047    2.079589    0.227139
     41          6           0        2.214311    0.880170   -1.555237
     42          6           0        2.531495    0.148211    0.907759
     43          1           0        2.813394   -0.798842    0.429948
     44          1           0        1.873597   -0.088266    1.749325
     45          8           0        1.459901    0.383318   -2.397580
     46          6           0        3.798071    0.823504    1.430904
     47          7           0        4.247657    0.369172    2.626107
     48          1           0        5.088872    0.778606    3.009893
     49          1           0        3.737182   -0.298380    3.183640
     50          8           0        4.390809    1.708804    0.813083
     51          7           0        3.457887    1.309974   -1.817031
     52          1           0        4.027797    1.614118   -1.024025
     53          6           0        4.065378    1.111408   -3.125483
     54          1           0        3.366203    1.453757   -3.893764
     55          6           0        4.324428   -0.364581   -3.435631
     56          6           0        5.374025    1.927970   -3.214928
     57          1           0        5.147243    2.934954   -2.841811
     58          1           0        6.112015    1.494284   -2.524713
     59          8           0        4.398903   -0.822349   -4.551705
     60          6           0        5.952821    2.035861   -4.630311
     61          1           0        6.141479    1.037332   -5.042694
     62          1           0        5.227420    2.528240   -5.286416
     63          6           0        7.249344    2.861029   -4.646979
     64          1           0        7.062376    3.850543   -4.221464
     65          1           0        8.020047    2.373384   -4.036043
     66          7           0        7.809682    3.072899   -5.975674
     67          1           0        8.121334    2.230013   -6.444879
     68          7           0        7.782047    3.958489   -8.110542
     69          1           0        7.489616    4.721344   -8.708882
     70          1           0        8.791543    3.853377   -8.112618
     71          7           0        6.242241    4.734480   -6.426013
     72          1           0        6.004888    5.437473   -7.127517
     73          6           0        7.210963    3.992964   -6.829427
     74          8           0        4.528471   -1.113627   -2.320886
     75          1           0        4.720189   -2.014011   -2.645914
 ---------------------------------------------------------------------

 SCF Done:  E(RB3LYP) =  -1917.35077695     A.U. after    2 cycles

 Alpha  occ. eigenvalues --  -19.25662 -19.25229 -19.24541 -19.20766 -19.19938
 Alpha  occ. eigenvalues --  -19.19163 -19.19030 -14.59689 -14.48410 -14.48307
 Alpha  occ. eigenvalues --  -14.44484 -14.43944 -14.41911 -14.38112 -14.37832
 Alpha  occ. eigenvalues --  -14.31661 -10.42722 -10.42689 -10.40446 -10.38060
 Alpha  occ. eigenvalues --  -10.37616 -10.37250 -10.35847 -10.35488 -10.34284
 Alpha  occ. eigenvalues --  -10.31834 -10.31225 -10.30482 -10.30296 -10.30060
 Alpha  occ. eigenvalues --  -10.29976 -10.29921 -10.29549 -10.29468 -10.29438
 Alpha  occ. eigenvalues --  -10.28207 -10.24933 -10.24585 -10.21946  -1.18452
 Alpha  occ. eigenvalues --   -1.16425  -1.15910  -1.13508  -1.12763  -1.11658
 Alpha  occ. eigenvalues --   -1.10723  -1.06810  -1.05110  -1.03350  -1.01203
 Alpha  occ. eigenvalues --   -1.00706  -0.99208  -0.98584  -0.96351  -0.93760
 Alpha  occ. eigenvalues --   -0.91954  -0.89732  -0.87278  -0.86979  -0.85167
 Alpha  occ. eigenvalues --   -0.85055  -0.84200  -0.82172  -0.78891  -0.77318
 Alpha  occ. eigenvalues --   -0.75684  -0.74498  -0.73130  -0.71696  -0.71235
 Alpha  occ. eigenvalues --   -0.70973  -0.70286  -0.68957  -0.68467  -0.67813
 Alpha  occ. eigenvalues --   -0.66555  -0.66210  -0.65864  -0.64790  -0.64072
 Alpha  occ. eigenvalues --   -0.63313  -0.62137  -0.61836  -0.61555  -0.61031
 Alpha  occ. eigenvalues --   -0.59387  -0.59218  -0.58030  -0.57341  -0.57264
 Alpha  occ. eigenvalues --   -0.56978  -0.56807  -0.55934  -0.55499  -0.55122
 Alpha  occ. eigenvalues --   -0.54591  -0.54370  -0.54197  -0.53450  -0.52947
 Alpha  occ. eigenvalues --   -0.52514  -0.52325  -0.52154  -0.52099  -0.51281
 Alpha  occ. eigenvalues --   -0.51026  -0.50446  -0.50038  -0.49929  -0.49168
 Alpha  occ. eigenvalues --   -0.48833  -0.48369  -0.47734  -0.47592  -0.47086
 Alpha  occ. eigenvalues --   -0.46946  -0.46355  -0.45779  -0.45616  -0.44805
 Alpha  occ. eigenvalues --   -0.44398  -0.44366  -0.43892  -0.42804  -0.42564
 Alpha  occ. eigenvalues --   -0.41276  -0.40463  -0.39873  -0.39506  -0.39204
 Alpha  occ. eigenvalues --   -0.38667  -0.38428  -0.38063  -0.36655  -0.35837
 Alpha  occ. eigenvalues --   -0.35644  -0.35433  -0.34704  -0.34504  -0.34427
 Alpha  occ. eigenvalues --   -0.33425  -0.32903  -0.30967  -0.29781  -0.28654
 Alpha  occ. eigenvalues --   -0.25872
 Alpha virt. eigenvalues --   -0.12816  -0.11669  -0.11303  -0.10835  -0.09077
 Alpha virt. eigenvalues --   -0.06784  -0.05533  -0.04895  -0.04704  -0.04001
 Alpha virt. eigenvalues --   -0.03808  -0.02384  -0.01323  -0.00693   0.00102

 Mulliken charges:
               1
     1  N   -0.760464
     2  H    0.413376
     3  H    0.424571
     4  H    0.401795
     5  C   -0.096542
     6  H    0.229653
     7  C    0.640755
     8  C   -0.404335
     9  H    0.190765
    10  H    0.210289
    11  O   -0.540554
    12  C    0.633062
    13  N   -0.742709
    14  H    0.374287
    15  H    0.359476
    16  O   -0.495715
    17  N   -0.599422
    18  H    0.398029
    19  C   -0.065310
    20  H    0.195986
    21  C    0.629655
    22  C   -0.367539
    23  H    0.180972
    24  H    0.186566
    25  O   -0.539217
    26  C    0.168907
    27  C   -0.196945
    28  H    0.151958
    29  C   -0.150734
    30  H    0.157577
    31  C   -0.202866
    32  H    0.156849
    33  C   -0.128499
    34  H    0.163546
    35  C   -0.154589
    36  H    0.158664
    37  N   -0.634242
    38  H    0.365185
    39  C   -0.037447
    40  H    0.201356
    41  C    0.609162
    42  C   -0.384472
    43  H    0.201545
    44  H    0.182036
    45  O   -0.547718
    46  C    0.634701
    47  N   -0.742356
    48  H    0.359473
    49  H    0.348251
    50  O   -0.522772
    51  N   -0.643201
    52  H    0.394490
    53  C   -0.006577
    54  H    0.198236
    55  C    0.597825
    56  C   -0.315807
    57  H    0.168446
    58  H    0.150409
    59  O   -0.454230
    60  C   -0.275343
    61  H    0.149747
    62  H    0.179141
    63  C   -0.123658
    64  H    0.177738
    65  H    0.133674
    66  N   -0.595368
    67  H    0.318492
    68  N   -0.756575
    69  H    0.322287
    70  H    0.325668
    71  N   -0.654342
    72  H    0.266382
    73  C    0.592248
    74  O   -0.576940
    75  H    0.413262
 Sum of Mulliken charges =   1.00000

 Dipole moment (field-independent basis, Debye):
    X=            -17.0254    Y=             -1.1631    Z=             13.5553  Tot=             21.7936
 Quadrupole moment (field-independent basis, Debye-Ang):
   XX=            -18.6880   YY=           -213.4911   ZZ=           -133.1065
   XY=             -0.6136   XZ=            -84.3646   YZ=            -36.2104

 Normal termination of Gaussian 16 at Sat Jun  4 16:59:26 2022.
