 Gaussian 16, Revision C.01,
 Gaussian 16:  ES64L-G16RevC.01  3-Jul-2019

 -------------------------------------------------------------------
 # B3LYP/6-31G* guess=read geom=check nosymm integral(ultrafinegrid)
 -------------------------------------------------------------------

 ------------------------------------------------------
 Candidate Structure: Conf:156 Charge calc in gas phase
 ------------------------------------------------------
 Structure from the checkpoint file:  "conf-156.chk"
 Charge =  1 Multiplicity = 1

                          Input orientation:
 ---------------------------------------------------------------------
 Center     Atomic      Atomic             Coordinates (Angstroms)
 Number     Number       Type             X           Y           Z
 ---------------------------------------------------------------------
      1          7           0       -4.848747    0.472648    3.453541
      2          1           0       -5.146715    0.074114    2.537894
      3          1           0       -4.424280   -0.323672    4.035631
      4          1           0       -5.626023    0.923861    3.938979
      5          6           0       -3.704280    1.399523    3.132703
      6          1           0       -4.070251    2.430050    3.148386
      7          6           0       -3.286370    1.005251    1.685163
      8          6           0       -2.571908    1.205521    4.167851
      9          1           0       -1.721653    1.842924    3.915615
     10          1           0       -2.926642    1.522861    5.155104
     11          8           0       -3.958439    0.168234    1.084817
     12          6           0       -2.185383   -0.274614    4.258878
     13          7           0       -0.917476   -0.596378    4.018682
     14          1           0       -0.638022   -1.571545    3.933238
     15          1           0       -0.274604    0.066121    3.592142
     16          8           0       -3.080301   -1.100052    4.537855
     17          7           0       -2.188706    1.619167    1.208811
     18          1           0       -1.627950    2.167044    1.853183
     19          6           0       -1.379926    1.060974    0.124919
     20          1           0       -1.945542    0.229546   -0.303124
     21          6           0       -0.081157    0.564235    0.799632
     22          6           0       -1.057941    2.108672   -0.972655
     23          1           0       -0.455183    2.915936   -0.539637
     24          1           0       -0.418856    1.622413   -1.719725
     25          8           0        0.288805    1.071930    1.866048
     26          6           0       -2.294288    2.669761   -1.642511
     27          6           0       -2.881147    2.008400   -2.730519
     28          1           0       -2.432773    1.092022   -3.109186
     29          6           0       -2.881662    3.858045   -1.184276
     30          1           0       -2.430965    4.391458   -0.350274
     31          6           0       -4.028111    2.516657   -3.341876
     32          1           0       -4.466312    1.992936   -4.186769
     33          6           0       -4.027795    4.370793   -1.795505
     34          1           0       -4.463171    5.298522   -1.434410
     35          6           0       -4.605086    3.699534   -2.874721
     36          1           0       -5.493474    4.099708   -3.354754
     37          7           0        0.590911   -0.415180    0.161019
     38          1           0        0.302406   -0.681606   -0.774314
     39          6           0        1.936434   -0.848164    0.560891
     40          1           0        2.106857   -0.431536    1.553575
     41          6           0        2.894121   -0.274804   -0.500797
     42          6           0        2.041904   -2.374328    0.612239
     43          1           0        3.079762   -2.641883    0.853161
     44          1           0        1.840508   -2.794380   -0.379194
     45          8           0        2.860126   -0.708620   -1.649865
     46          6           0        1.141378   -2.987059    1.683488
     47          7           0        0.778128   -4.275308    1.469122
     48          1           0        0.277587   -4.765473    2.198787
     49          1           0        1.135513   -4.815089    0.694174
     50          8           0        0.787400   -2.355451    2.677823
     51          7           0        3.682657    0.744562   -0.088853
     52          1           0        3.584455    1.110005    0.849574
     53          6           0        4.483436    1.530381   -1.029794
     54          1           0        4.960184    0.838680   -1.728679
     55          6           0        5.598055    2.262755   -0.297192
     56          6           0        3.587015    2.515352   -1.825683
     57          1           0        2.843755    1.895140   -2.339905
     58          1           0        3.042292    3.148440   -1.115080
     59          8           0        6.643186    2.595552   -0.799670
     60          6           0        4.327373    3.381667   -2.851792
     61          1           0        5.006435    4.078808   -2.345106
     62          1           0        4.963978    2.755025   -3.490142
     63          6           0        3.367913    4.170449   -3.759161
     64          1           0        3.959280    4.757631   -4.473532
     65          1           0        2.755263    3.475007   -4.339627
     66          7           0        2.465405    5.058813   -3.026600
     67          1           0        2.875007    5.556229   -2.244380
     68          7           0        0.466294    4.196072   -3.872453
     69          1           0       -0.540798    4.163028   -3.768031
     70          1           0        0.737544    4.527935   -4.792366
     71          7           0        0.596253    5.159255   -1.673297
     72          1           0       -0.422690    5.119925   -1.736013
     73          6           0        1.121767    4.820561   -2.803848
     74          8           0        5.260800    2.560613    0.985253
     75          1           0        6.012823    3.051951    1.368113
 ---------------------------------------------------------------------

 SCF Done:  E(RB3LYP) =  -1917.36381829     A.U. after    1 cycles

 Alpha  occ. eigenvalues --  -19.28391 -19.26505 -19.24645 -19.24079 -19.22198
 Alpha  occ. eigenvalues --  -19.21993 -19.20796 -14.56750 -14.49433 -14.48352
 Alpha  occ. eigenvalues --  -14.46608 -14.45969 -14.45635 -14.41251 -14.40567
 Alpha  occ. eigenvalues --  -14.34438 -10.43507 -10.42015 -10.41083 -10.40644
 Alpha  occ. eigenvalues --  -10.40469 -10.39710 -10.38209 -10.35512 -10.34678
 Alpha  occ. eigenvalues --  -10.34415 -10.34069 -10.32378 -10.30233 -10.29577
 Alpha  occ. eigenvalues --  -10.28721 -10.28559 -10.27629 -10.27588 -10.27416
 Alpha  occ. eigenvalues --  -10.27351 -10.27191 -10.26723 -10.25662  -1.19007
 Alpha  occ. eigenvalues --   -1.18808  -1.16155  -1.15825  -1.13612  -1.12830
 Alpha  occ. eigenvalues --   -1.11412  -1.10019  -1.06345  -1.04402  -1.03629
 Alpha  occ. eigenvalues --   -1.02374  -1.01978  -1.00705  -0.94925  -0.94464
 Alpha  occ. eigenvalues --   -0.93103  -0.90349  -0.90202  -0.88319  -0.87066
 Alpha  occ. eigenvalues --   -0.83938  -0.82862  -0.82105  -0.81512  -0.78385
 Alpha  occ. eigenvalues --   -0.75708  -0.75123  -0.73107  -0.72654  -0.72357
 Alpha  occ. eigenvalues --   -0.70669  -0.70062  -0.69389  -0.68947  -0.68665
 Alpha  occ. eigenvalues --   -0.68132  -0.67279  -0.66855  -0.66185  -0.65736
 Alpha  occ. eigenvalues --   -0.64597  -0.63900  -0.63191  -0.62336  -0.60464
 Alpha  occ. eigenvalues --   -0.59963  -0.59638  -0.59372  -0.59010  -0.58770
 Alpha  occ. eigenvalues --   -0.58417  -0.57401  -0.56898  -0.56581  -0.56038
 Alpha  occ. eigenvalues --   -0.55615  -0.55105  -0.54900  -0.54613  -0.54306
 Alpha  occ. eigenvalues --   -0.54109  -0.53461  -0.53186  -0.52798  -0.52601
 Alpha  occ. eigenvalues --   -0.52104  -0.51389  -0.50898  -0.50727  -0.50458
 Alpha  occ. eigenvalues --   -0.50366  -0.50195  -0.49897  -0.49193  -0.49093
 Alpha  occ. eigenvalues --   -0.48370  -0.47953  -0.47304  -0.46859  -0.46588
 Alpha  occ. eigenvalues --   -0.46373  -0.45659  -0.44824  -0.44253  -0.43337
 Alpha  occ. eigenvalues --   -0.42871  -0.42467  -0.41717  -0.41182  -0.40829
 Alpha  occ. eigenvalues --   -0.39954  -0.39798  -0.39248  -0.38493  -0.38320
 Alpha  occ. eigenvalues --   -0.37774  -0.37055  -0.36433  -0.35917  -0.34735
 Alpha  occ. eigenvalues --   -0.33694  -0.33612  -0.33135  -0.32556  -0.31754
 Alpha  occ. eigenvalues --   -0.28358
 Alpha virt. eigenvalues --   -0.12701  -0.10930  -0.10505  -0.08771  -0.08601
 Alpha virt. eigenvalues --   -0.07878  -0.07858  -0.07410  -0.06448  -0.04145
 Alpha virt. eigenvalues --   -0.03131  -0.02375  -0.01696  -0.01501  -0.01253

 Mulliken charges:
               1
     1  N   -0.767039
     2  H    0.423648
     3  H    0.444318
     4  H    0.401534
     5  C   -0.127980
     6  H    0.226153
     7  C    0.641269
     8  C   -0.393489
     9  H    0.200787
    10  H    0.215184
    11  O   -0.508587
    12  C    0.619734
    13  N   -0.738356
    14  H    0.390260
    15  H    0.394982
    16  O   -0.550668
    17  N   -0.571721
    18  H    0.356895
    19  C   -0.095915
    20  H    0.201837
    21  C    0.649800
    22  C   -0.389628
    23  H    0.196688
    24  H    0.173292
    25  O   -0.563626
    26  C    0.172978
    27  C   -0.184388
    28  H    0.131261
    29  C   -0.198231
    30  H    0.134459
    31  C   -0.128106
    32  H    0.151232
    33  C   -0.133898
    34  H    0.147329
    35  C   -0.129416
    36  H    0.151761
    37  N   -0.588446
    38  H    0.353499
    39  C   -0.068280
    40  H    0.198617
    41  C    0.639266
    42  C   -0.391365
    43  H    0.205794
    44  H    0.185392
    45  O   -0.534752
    46  C    0.625672
    47  N   -0.739555
    48  H    0.357643
    49  H    0.357148
    50  O   -0.536489
    51  N   -0.621537
    52  H    0.361768
    53  C   -0.037244
    54  H    0.208486
    55  C    0.589069
    56  C   -0.280221
    57  H    0.171950
    58  H    0.164620
    59  O   -0.442348
    60  C   -0.285862
    61  H    0.158252
    62  H    0.159441
    63  C   -0.147745
    64  H    0.159824
    65  H    0.165063
    66  N   -0.574025
    67  H    0.330162
    68  N   -0.753355
    69  H    0.331169
    70  H    0.333739
    71  N   -0.676169
    72  H    0.266638
    73  C    0.567263
    74  O   -0.584609
    75  H    0.427176
 Sum of Mulliken charges =   1.00000

 Dipole moment (field-independent basis, Debye):
    X=             -9.4560    Y=              2.9568    Z=              7.2063  Tot=             12.2511
 Quadrupole moment (field-independent basis, Debye-Ang):
   XX=           -148.9006   YY=           -183.2672   ZZ=           -169.8394
   XY=            -24.0845   XZ=            -27.6961   YZ=              0.6086

 Normal termination of Gaussian 16 at Sat Jun  4 16:59:16 2022.
