 Gaussian 16, Revision C.01,
 Gaussian 16:  ES64L-G16RevC.01  3-Jul-2019

 ----------------------------------------------------------------------
 # B3LYP/6-31G* empiricaldispersion=gd3bj guess=read geom=check nosymm
 integral(ultrafinegrid)
 ----------------------------------------------------------------------

 ------------------------------------------------------
 Candidate Structure: Conf:950 Charge calc in gas phase
 ------------------------------------------------------
 Structure from the checkpoint file:  "conf-950.chk"
 Charge =  1 Multiplicity = 1

                          Input orientation:
 ---------------------------------------------------------------------
 Center     Atomic      Atomic             Coordinates (Angstroms)
 Number     Number       Type             X           Y           Z
 ---------------------------------------------------------------------
      1          7           0       -5.406477    4.287277   -2.254670
      2          1           0       -6.043132    4.564166   -2.997596
      3          1           0       -4.746829    2.730240   -2.484774
      4          1           0       -4.662991    4.982765   -2.190838
      5          6           0       -6.101339    4.264970   -0.952823
      6          1           0       -6.660208    5.202228   -0.789241
      7          6           0       -4.947756    4.274826    0.072646
      8          6           0       -7.099935    3.086895   -0.848205
      9          1           0       -6.528189    2.176134   -0.622094
     10          8           0       -3.944819    4.951041   -0.159313
     11          6           0       -8.137448    3.347127    0.257706
     12          1           0       -8.799882    4.170296   -0.036292
     13          1           0       -8.759700    2.461022    0.417336
     14          1           0       -7.693617    3.624004    1.219352
     15          6           0       -7.828931    2.833304   -2.176148
     16          1           0       -8.352314    3.734732   -2.521867
     17          1           0       -7.142847    2.498221   -2.958155
     18          1           0       -8.583094    2.051270   -2.041747
     19          7           0       -5.080846    3.528976    1.198316
     20          1           0       -5.816982    2.837353    1.253392
     21          6           0       -3.943773    3.273524    2.070504
     22          1           0       -3.107604    3.866921    1.698127
     23          6           0       -3.668215    1.769590    1.990683
     24          6           0       -4.250405    3.675469    3.510541
     25          1           0       -5.113660    3.093930    3.864570
     26          1           0       -4.510538    4.743334    3.532497
     27          8           0       -4.556672    0.960303    2.255465
     28          8           0       -3.077536    3.390288    4.258744
     29          1           0       -3.268947    3.549772    5.194626
     30          7           0       -2.436847    1.416371    1.568251
     31          1           0       -1.732247    2.108687    1.345534
     32          6           0       -2.048283    0.030917    1.419994
     33          1           0       -2.331204   -0.512955    2.329716
     34          6           0       -0.536120    0.015826    1.244789
     35          6           0       -2.718342   -0.638029    0.202191
     36          1           0       -2.488030   -1.708896    0.162510
     37          1           0       -2.386470   -0.168530   -0.726318
     38          1           0       -3.799473   -0.522440    0.295541
     39          8           0        0.100736    1.036159    0.964331
     40          7           0        0.069978   -1.194970    1.346964
     41          1           0       -0.495551   -2.021900    1.484968
     42          6           0        1.501157   -1.354979    1.100823
     43          1           0        1.969373   -0.425694    1.437675
     44          6           0        1.770609   -1.462116   -0.411167
     45          6           0        2.071398   -2.539244    1.878087
     46          1           0        1.665793   -3.472168    1.461940
     47          1           0        3.155732   -2.556076    1.697625
     48          8           0        2.285813   -2.472920   -0.942346
     49          6           0        1.829476   -2.496943    3.397004
     50          1           0        0.745745   -2.544334    3.570643
     51          6           0        2.464750   -3.729919    4.050968
     52          1           0        3.556059   -3.718040    3.929261
     53          1           0        2.255249   -3.756297    5.124777
     54          1           0        2.083030   -4.660770    3.613824
     55          6           0        2.353329   -1.202839    4.030893
     56          1           0        3.423552   -1.069975    3.825916
     57          1           0        2.225915   -1.229572    5.117690
     58          1           0        1.824658   -0.318115    3.661588
     59          7           0        1.389996   -0.412297   -1.133731
     60          1           0        0.995339    0.391714   -0.644468
     61          6           0        1.656016   -0.320515   -2.556379
     62          1           0        1.143090   -1.144580   -3.064833
     63          6           0        3.167783   -0.466031   -2.788054
     64          6           0        1.134699    1.026831   -3.094999
     65          1           0        1.404593    1.084029   -4.157339
     66          1           0        1.682566    1.832456   -2.592349
     67          8           0        3.990479   -0.153011   -1.933667
     68          6           0       -0.356244    1.207262   -2.911194
     69          6           0       -1.266168    0.327982   -3.517185
     70          1           0       -0.899031   -0.508328   -4.109594
     71          6           0       -0.873412    2.273629   -2.167817
     72          1           0       -0.191400    2.964561   -1.677664
     73          6           0       -2.637063    0.519690   -3.408188
     74          1           0       -3.339509   -0.148459   -3.895857
     75          6           0       -2.247791    2.486724   -2.052942
     76          1           0       -2.621836    3.327129   -1.475818
     77          8           0       -4.485940    1.766705   -2.640337
     78          6           0       -3.147602    1.616387   -2.690898
     79          7           0        3.504087   -0.981982   -4.001290
     80          1           0        2.806897   -1.027095   -4.735937
     81          6           0        4.884296   -1.068129   -4.435332
     82          1           0        5.484791   -0.492851   -3.726266
     83          6           0        4.988699   -0.432874   -5.815104
     84          6           0        5.402145   -2.528820   -4.503620
     85          1           0        4.941764   -3.024644   -5.366931
     86          1           0        6.480514   -2.498257   -4.692718
     87          8           0        4.034789   -0.168030   -6.512543
     88          6           0        5.098237   -3.364551   -3.253319
     89          1           0        5.452121   -4.388174   -3.444275
     90          1           0        4.007540   -3.408440   -3.136869
     91          6           0        5.728039   -2.822143   -1.962492
     92          1           0        6.802175   -2.653598   -2.110027
     93          1           0        5.283524   -1.855794   -1.707781
     94          6           0        5.603362   -3.770709   -0.773249
     95          1           0        5.898345   -3.282279    0.158179
     96          1           0        6.206064   -4.674678   -0.899361
     97          7           0        4.175490   -4.235620   -0.577505
     98          1           0        4.073259   -4.772688    0.287419
     99          1           0        3.454954   -3.435922   -0.568702
    100          1           0        3.890380   -4.842721   -1.351205
    101          8           0        6.268954   -0.249291   -6.179464
    102          1           0        6.264457    0.125744   -7.081475
 ---------------------------------------------------------------------

 SCF Done:  E(RB3LYP) =  -2312.34488889     A.U. after    2 cycles

 Alpha  occ. eigenvalues --  -19.29143 -19.24688 -19.23599 -19.22576 -19.21315
 Alpha  occ. eigenvalues --  -19.20879 -19.19751 -19.18481 -19.17982 -14.57174
 Alpha  occ. eigenvalues --  -14.47299 -14.46511 -14.45865 -14.43085 -14.42928
 Alpha  occ. eigenvalues --  -14.40151 -10.41595 -10.40516 -10.39302 -10.38495
 Alpha  occ. eigenvalues --  -10.37580 -10.35681 -10.35156 -10.34374 -10.33545
 Alpha  occ. eigenvalues --  -10.33085 -10.31872 -10.30335 -10.30228 -10.30007
 Alpha  occ. eigenvalues --  -10.29880 -10.29634 -10.29590 -10.29432 -10.29350
 Alpha  occ. eigenvalues --  -10.28844 -10.28033 -10.26663 -10.26028 -10.25862
 Alpha  occ. eigenvalues --  -10.25454 -10.25350 -10.25244 -10.25038 -10.23977
 Alpha  occ. eigenvalues --  -10.23758 -10.23751 -10.23322  -1.20163  -1.16034
 Alpha  occ. eigenvalues --   -1.14556  -1.13319  -1.12002  -1.11295  -1.10871
 Alpha  occ. eigenvalues --   -1.09925  -1.08454  -1.08096  -1.04180  -1.03115
 Alpha  occ. eigenvalues --   -1.02659  -0.99758  -0.99497  -0.96749  -0.92490
 Alpha  occ. eigenvalues --   -0.91761  -0.91375  -0.88798  -0.87452  -0.86343
 Alpha  occ. eigenvalues --   -0.85795  -0.83973  -0.83032  -0.81890  -0.80417
 Alpha  occ. eigenvalues --   -0.79939  -0.77420  -0.76628  -0.75951  -0.75539
 Alpha  occ. eigenvalues --   -0.74256  -0.74202  -0.73654  -0.71990  -0.71436
 Alpha  occ. eigenvalues --   -0.70886  -0.70551  -0.69781  -0.68753  -0.68297
 Alpha  occ. eigenvalues --   -0.67948  -0.67253  -0.66552  -0.65900  -0.65249
 Alpha  occ. eigenvalues --   -0.64990  -0.63845  -0.62972  -0.62656  -0.62000
 Alpha  occ. eigenvalues --   -0.61305  -0.60194  -0.59639  -0.59097  -0.58948
 Alpha  occ. eigenvalues --   -0.58647  -0.58098  -0.58009  -0.57583  -0.56778
 Alpha  occ. eigenvalues --   -0.56350  -0.56230  -0.55166  -0.54902  -0.54643
 Alpha  occ. eigenvalues --   -0.54300  -0.53764  -0.53415  -0.53168  -0.52951
 Alpha  occ. eigenvalues --   -0.52686  -0.52640  -0.52393  -0.51827  -0.51575
 Alpha  occ. eigenvalues --   -0.50950  -0.50630  -0.50609  -0.50133  -0.49857
 Alpha  occ. eigenvalues --   -0.49615  -0.49398  -0.49086  -0.49050  -0.48771
 Alpha  occ. eigenvalues --   -0.48526  -0.48252  -0.48008  -0.47789  -0.47575
 Alpha  occ. eigenvalues --   -0.47415  -0.47214  -0.46391  -0.46202  -0.45907
 Alpha  occ. eigenvalues --   -0.45633  -0.45404  -0.45341  -0.45255  -0.44739
 Alpha  occ. eigenvalues --   -0.44689  -0.44256  -0.44216  -0.43908  -0.43501
 Alpha  occ. eigenvalues --   -0.42849  -0.42547  -0.42338  -0.42280  -0.42206
 Alpha  occ. eigenvalues --   -0.41240  -0.41113  -0.40505  -0.40211  -0.39860
 Alpha  occ. eigenvalues --   -0.39819  -0.39625  -0.38842  -0.37948  -0.37275
 Alpha  occ. eigenvalues --   -0.37026  -0.36358  -0.35794  -0.35598  -0.34849
 Alpha  occ. eigenvalues --   -0.33726  -0.33432  -0.33153  -0.32366  -0.31861
 Alpha  occ. eigenvalues --   -0.30958  -0.30849  -0.26915
 Alpha virt. eigenvalues --   -0.10802  -0.09847  -0.08390  -0.07891  -0.07672
 Alpha virt. eigenvalues --   -0.06105  -0.05649  -0.04647  -0.04336  -0.03780
 Alpha virt. eigenvalues --   -0.02656  -0.02129  -0.01303  -0.00749  -0.00590

 Mulliken charges:
               1
     1  N   -0.794030
     2  H    0.331422
     3  H    0.483279
     4  H    0.351825
     5  C   -0.051727
     6  H    0.163292
     7  C    0.626296
     8  C   -0.107653
     9  H    0.152398
    10  O   -0.531185
    11  C   -0.469510
    12  H    0.156182
    13  H    0.164331
    14  H    0.147446
    15  C   -0.470668
    16  H    0.140805
    17  H    0.173202
    18  H    0.160765
    19  N   -0.614177
    20  H    0.360652
    21  C   -0.074598
    22  H    0.191817
    23  C    0.654077
    24  C   -0.027284
    25  H    0.145442
    26  H    0.146416
    27  O   -0.551616
    28  O   -0.625132
    29  H    0.406198
    30  N   -0.615526
    31  H    0.365171
    32  C   -0.026713
    33  H    0.182016
    34  C    0.633344
    35  C   -0.468272
    36  H    0.127028
    37  H    0.193103
    38  H    0.208905
    39  O   -0.550021
    40  N   -0.607172
    41  H    0.345417
    42  C   -0.078609
    43  H    0.216970
    44  C    0.678736
    45  C   -0.295175
    46  H    0.132455
    47  H    0.122973
    48  O   -0.622074
    49  C   -0.069758
    50  H    0.136051
    51  C   -0.448107
    52  H    0.135493
    53  H    0.171717
    54  H    0.137542
    55  C   -0.459911
    56  H    0.144552
    57  H    0.167108
    58  H    0.165847
    59  N   -0.600314
    60  H    0.403724
    61  C   -0.038685
    62  H    0.171483
    63  C    0.641019
    64  C   -0.403519
    65  H    0.175676
    66  H    0.175432
    67  O   -0.533707
    68  C    0.162745
    69  C   -0.190329
    70  H    0.113592
    71  C   -0.203755
    72  H    0.135445
    73  C   -0.170716
    74  H    0.140513
    75  C   -0.219250
    76  H    0.163943
    77  O   -0.703469
    78  C    0.345886
    79  N   -0.605433
    80  H    0.352396
    81  C   -0.057968
    82  H    0.212606
    83  C    0.589189
    84  C   -0.275448
    85  H    0.160539
    86  H    0.178763
    87  O   -0.456729
    88  C   -0.299055
    89  H    0.145645
    90  H    0.153290
    91  C   -0.307468
    92  H    0.175980
    93  H    0.229351
    94  C   -0.196697
    95  H    0.207649
    96  H    0.198684
    97  N   -0.773306
    98  H    0.398658
    99  H    0.467347
   100  H    0.401646
   101  O   -0.556921
   102  H    0.430211
 Sum of Mulliken charges =   1.00000

 Dipole moment (field-independent basis, Debye):
    X=             10.6947    Y=            -11.6407    Z=             -3.0064  Tot=             16.0910
 Quadrupole moment (field-independent basis, Debye-Ang):
   XX=           -155.1235   YY=           -202.0434   ZZ=           -228.6828
   XY=            -95.7471   XZ=            -34.2428   YZ=              7.6520

 Normal termination of Gaussian 16 at Thu Jul 14 00:52:37 2022.
