 Gaussian 16, Revision C.01,
 Gaussian 16:  ES64L-G16RevC.01  3-Jul-2019

 ----------------------------------------------------------------------
 # B3LYP/6-31G* empiricaldispersion=gd3bj guess=read geom=check nosymm
 integral(ultrafinegrid)
 ----------------------------------------------------------------------

 ------------------------------------------------------
 Candidate Structure: Conf:549 Charge calc in gas phase
 ------------------------------------------------------
 Structure from the checkpoint file:  "conf-549.chk"
 Charge =  1 Multiplicity = 1

                          Input orientation:
 ---------------------------------------------------------------------
 Center     Atomic      Atomic             Coordinates (Angstroms)
 Number     Number       Type             X           Y           Z
 ---------------------------------------------------------------------
      1          7           0       -6.768952    2.828460    4.054770
      2          1           0       -6.873452    2.689282    5.060758
      3          1           0       -7.501652    3.446291    3.714207
      4          1           0       -5.860718    3.270719    3.891801
      5          6           0       -6.750017    1.542840    3.326330
      6          1           0       -7.413652    0.828446    3.830217
      7          6           0       -5.321029    1.014547    3.383096
      8          6           0       -7.257640    1.708092    1.874975
      9          1           0       -8.267225    2.119700    1.996056
     10          8           0       -4.363243    1.782390    3.441596
     11          6           0       -6.434793    2.706987    1.066157
     12          1           0       -5.428706    2.324666    0.898603
     13          1           0       -6.897273    2.874654    0.091368
     14          1           0       -6.350274    3.668054    1.572978
     15          6           0       -7.373816    0.382208    1.127500
     16          1           0       -6.382966   -0.000377    0.867458
     17          1           0       -7.901348   -0.376142    1.711263
     18          1           0       -7.927468    0.527858    0.196988
     19          7           0       -5.174419   -0.323274    3.315029
     20          1           0       -5.986421   -0.898627    3.160180
     21          6           0       -3.864682   -0.949584    3.301314
     22          1           0       -3.210699   -0.318654    3.913163
     23          6           0       -3.281816   -0.998347    1.884391
     24          6           0       -3.929060   -2.344265    3.907646
     25          1           0       -4.578016   -2.986718    3.299190
     26          1           0       -4.352815   -2.268653    4.910021
     27          8           0       -2.888418   -2.050710    1.367484
     28          8           0       -2.636061   -2.902396    4.039525
     29          1           0       -2.344336   -3.063370    3.134462
     30          7           0       -3.246398    0.171296    1.226345
     31          1           0       -3.373663    1.028415    1.753509
     32          6           0       -2.684265    0.250517   -0.111299
     33          1           0       -2.895189   -0.715483   -0.579810
     34          6           0       -1.161240    0.420127   -0.011286
     35          6           0       -3.343205    1.371449   -0.892167
     36          1           0       -3.014551    1.362058   -1.933145
     37          1           0       -3.091151    2.340995   -0.457138
     38          1           0       -4.427977    1.235246   -0.876008
     39          8           0       -0.587738    1.462636   -0.301843
     40          7           0       -0.493641   -0.653059    0.495642
     41          1           0       -0.979975   -1.539995    0.538740
     42          6           0        0.949695   -0.720768    0.383101
     43          1           0        1.320413    0.303096    0.418336
     44          6           0        1.306990   -1.350227   -0.956609
     45          6           0        1.542987   -1.553705    1.520113
     46          1           0        1.218177   -1.112849    2.464672
     47          1           0        1.101598   -2.552075    1.459404
     48          8           0        0.769405   -2.375169   -1.341620
     49          6           0        3.069926   -1.689733    1.523883
     50          1           0        3.373121   -2.123722    0.563062
     51          6           0        3.772611   -0.347186    1.690186
     52          1           0        3.522945    0.093459    2.659962
     53          1           0        4.857143   -0.476080    1.639228
     54          1           0        3.498064    0.371032    0.911831
     55          6           0        3.486017   -2.653176    2.632796
     56          1           0        3.172651   -2.265166    3.604708
     57          1           0        4.569603   -2.786780    2.654098
     58          1           0        3.028382   -3.634387    2.491715
     59          7           0        2.280225   -0.704885   -1.650717
     60          1           0        2.925369   -0.098111   -1.171437
     61          6           0        2.764145   -1.204433   -2.907194
     62          1           0        2.307788   -2.182506   -3.057761
     63          6           0        4.288517   -1.307172   -2.790187
     64          6           0        2.366512   -0.278974   -4.072112
     65          1           0        2.672430   -0.747126   -5.011002
     66          1           0        2.929809    0.652843   -3.969273
     67          8           0        4.899552   -0.747656   -1.894949
     68          6           0        0.901198    0.033553   -4.092535
     69          6           0       -0.008002   -0.695444   -4.875756
     70          1           0        0.353874   -1.505762   -5.500530
     71          6           0        0.400000    1.078682   -3.292603
     72          1           0        1.082883    1.621217   -2.640790
     73          6           0       -1.354259   -0.403135   -4.888251
     74          1           0       -2.048785   -0.967691   -5.496116
     75          6           0       -0.926952    1.426382   -3.297026
     76          1           0       -1.293807    2.247323   -2.704613
     77          8           0       -3.091179    0.990459   -4.126157
     78          6           0       -1.887281    0.696937   -4.100231
     79          7           0        4.898538   -2.016882   -3.763418
     80          1           0        4.371268   -2.440153   -4.511423
     81          6           0        6.343055   -2.137573   -3.808705
     82          1           0        6.784687   -1.167025   -3.562139
     83          6           0        6.708029   -2.519349   -5.222787
     84          6           0        6.847026   -3.169718   -2.787606
     85          1           0        6.371980   -2.911595   -1.839717
     86          1           0        6.482164   -4.160455   -3.069130
     87          8           0        5.955096   -3.015882   -6.022240
     88          6           0        8.357530   -3.189493   -2.612900
     89          1           0        8.702930   -2.172596   -2.396046
     90          1           0        8.844590   -3.492847   -3.540342
     91          6           0        8.773637   -4.108887   -1.475861
     92          1           0        8.241159   -3.814448   -0.565450
     93          1           0        8.467771   -5.134700   -1.703157
     94          6           0       10.261152   -4.082360   -1.179556
     95          1           0       10.469304   -4.618729   -0.252127
     96          1           0       10.573016   -3.045582   -1.025363
     97          7           0       11.073662   -4.669376   -2.276067
     98          1           0       12.074766   -4.605363   -2.090083
     99          1           0       10.844741   -5.652676   -2.420970
    100          1           0       10.896366   -4.187957   -3.156586
    101          8           0        8.000761   -2.255257   -5.496782
    102          1           0        8.155532   -2.562625   -6.398517
 ---------------------------------------------------------------------

 SCF Done:  E(RB3LYP) =  -2312.14086350     A.U. after    3 cycles

 Alpha  occ. eigenvalues --  -19.28618 -19.25165 -19.22681 -19.20066 -19.19098
 Alpha  occ. eigenvalues --  -19.16990 -19.13804 -19.13208 -19.04167 -14.61643
 Alpha  occ. eigenvalues --  -14.61268 -14.48750 -14.42469 -14.41837 -14.37716
 Alpha  occ. eigenvalues --  -14.37419 -10.41932 -10.40521 -10.39919 -10.38942
 Alpha  occ. eigenvalues --  -10.35903 -10.33415 -10.33332 -10.32115 -10.31991
 Alpha  occ. eigenvalues --  -10.31690 -10.30895 -10.30847 -10.30097 -10.29811
 Alpha  occ. eigenvalues --  -10.28852 -10.28522 -10.28048 -10.26515 -10.25156
 Alpha  occ. eigenvalues --  -10.24998 -10.22585 -10.21682 -10.21280 -10.21124
 Alpha  occ. eigenvalues --  -10.20136 -10.19530 -10.18910 -10.15737 -10.15681
 Alpha  occ. eigenvalues --  -10.15394 -10.13567 -10.13268  -1.19911  -1.18872
 Alpha  occ. eigenvalues --   -1.16697  -1.15772  -1.11263  -1.10814  -1.09595
 Alpha  occ. eigenvalues --   -1.07885  -1.06207  -1.05308  -1.05185  -0.99273
 Alpha  occ. eigenvalues --   -0.99104  -0.95037  -0.94929  -0.94676  -0.94646
 Alpha  occ. eigenvalues --   -0.93959  -0.88263  -0.87587  -0.85257  -0.84161
 Alpha  occ. eigenvalues --   -0.83318  -0.81781  -0.80837  -0.80291  -0.78750
 Alpha  occ. eigenvalues --   -0.77164  -0.76576  -0.76517  -0.75062  -0.75006
 Alpha  occ. eigenvalues --   -0.73772  -0.72957  -0.72389  -0.71981  -0.71916
 Alpha  occ. eigenvalues --   -0.70816  -0.70811  -0.69672  -0.69410  -0.68439
 Alpha  occ. eigenvalues --   -0.67475  -0.65957  -0.65465  -0.65001  -0.64866
 Alpha  occ. eigenvalues --   -0.63231  -0.62128  -0.61783  -0.60915  -0.60398
 Alpha  occ. eigenvalues --   -0.59896  -0.59709  -0.59120  -0.58592  -0.58269
 Alpha  occ. eigenvalues --   -0.58112  -0.57014  -0.56937  -0.56529  -0.55976
 Alpha  occ. eigenvalues --   -0.55588  -0.55262  -0.54400  -0.53601  -0.53567
 Alpha  occ. eigenvalues --   -0.52953  -0.52761  -0.52370  -0.51503  -0.51104
 Alpha  occ. eigenvalues --   -0.51022  -0.50659  -0.50211  -0.49845  -0.49574
 Alpha  occ. eigenvalues --   -0.49323  -0.49177  -0.48928  -0.48641  -0.48142
 Alpha  occ. eigenvalues --   -0.47346  -0.47172  -0.46928  -0.46881  -0.46718
 Alpha  occ. eigenvalues --   -0.45992  -0.45942  -0.45912  -0.45243  -0.45068
 Alpha  occ. eigenvalues --   -0.44606  -0.44339  -0.44174  -0.43988  -0.43098
 Alpha  occ. eigenvalues --   -0.42865  -0.42544  -0.42242  -0.41858  -0.41389
 Alpha  occ. eigenvalues --   -0.40723  -0.40547  -0.40396  -0.39892  -0.39724
 Alpha  occ. eigenvalues --   -0.39683  -0.39435  -0.38772  -0.38651  -0.38507
 Alpha  occ. eigenvalues --   -0.38063  -0.37267  -0.36610  -0.36462  -0.36214
 Alpha  occ. eigenvalues --   -0.35891  -0.35772  -0.33962  -0.33866  -0.33155
 Alpha  occ. eigenvalues --   -0.32396  -0.31855  -0.31782  -0.30995  -0.30564
 Alpha  occ. eigenvalues --   -0.29060  -0.27576  -0.27288  -0.26814  -0.26008
 Alpha  occ. eigenvalues --   -0.21510  -0.17682  -0.13525
 Alpha virt. eigenvalues --   -0.12727  -0.12409  -0.11257  -0.07706  -0.06940
 Alpha virt. eigenvalues --   -0.06174  -0.06119  -0.05960  -0.04611  -0.02885
 Alpha virt. eigenvalues --   -0.02822  -0.02099  -0.00748  -0.00700  -0.00001

 Mulliken charges:
               1
     1  N   -0.716100
     2  H    0.416411
     3  H    0.411944
     4  H    0.429119
     5  C   -0.140586
     6  H    0.201251
     7  C    0.636053
     8  C   -0.108095
     9  H    0.152273
    10  O   -0.541602
    11  C   -0.471212
    12  H    0.205091
    13  H    0.205076
    14  H    0.123131
    15  C   -0.480031
    16  H    0.196802
    17  H    0.148951
    18  H    0.203090
    19  N   -0.590401
    20  H    0.347451
    21  C   -0.102327
    22  H    0.215143
    23  C    0.639050
    24  C   -0.035001
    25  H    0.140647
    26  H    0.148707
    27  O   -0.547319
    28  O   -0.619286
    29  H    0.422365
    30  N   -0.607403
    31  H    0.365078
    32  C   -0.086529
    33  H    0.205170
    34  C    0.641699
    35  C   -0.488058
    36  H    0.267148
    37  H    0.137410
    38  H    0.117970
    39  O   -0.513598
    40  N   -0.615659
    41  H    0.359176
    42  C   -0.065619
    43  H    0.172420
    44  C    0.632677
    45  C   -0.262146
    46  H    0.134693
    47  H    0.143658
    48  O   -0.533197
    49  C   -0.089160
    50  H    0.135865
    51  C   -0.439276
    52  H    0.138861
    53  H    0.138283
    54  H    0.147251
    55  C   -0.439640
    56  H    0.142198
    57  H    0.127145
    58  H    0.145136
    59  N   -0.592469
    60  H    0.349377
    61  C   -0.068303
    62  H    0.186481
    63  C    0.631644
    64  C   -0.362096
    65  H    0.126362
    66  H    0.137342
    67  O   -0.553812
    68  C    0.156526
    69  C   -0.174211
    70  H    0.077597
    71  C   -0.166542
    72  H    0.089631
    73  C   -0.205883
    74  H    0.091253
    75  C   -0.232793
    76  H    0.109401
    77  O   -0.630780
    78  C    0.412450
    79  N   -0.629055
    80  H    0.362439
    81  C   -0.013263
    82  H    0.195946
    83  C    0.573685
    84  C   -0.279292
    85  H    0.196300
    86  H    0.156334
    87  O   -0.444992
    88  C   -0.282753
    89  H    0.163964
    90  H    0.127265
    91  C   -0.287815
    92  H    0.200859
    93  H    0.162267
    94  C   -0.220657
    95  H    0.218795
    96  H    0.218665
    97  N   -0.645541
    98  H    0.364732
    99  H    0.361406
   100  H    0.369777
   101  O   -0.572428
   102  H    0.420041
 Sum of Mulliken charges =   1.00000

 Dipole moment (field-independent basis, Debye):
    X=             17.0865    Y=             -9.8460    Z=             15.5431  Tot=             25.1093
 Quadrupole moment (field-independent basis, Debye-Ang):
   XX=            374.1861   YY=           -190.5907   ZZ=           -243.9936
   XY=           -252.0797   XZ=           -235.8197   YZ=             87.7599

 Normal termination of Gaussian 16 at Thu Jul 14 00:52:50 2022.
