 Gaussian 16, Revision C.01,
 Gaussian 16:  ES64L-G16RevC.01  3-Jul-2019

 ----------------------------------------------------------------------
 # B3LYP/6-31G* empiricaldispersion=gd3bj guess=read geom=check nosymm
 integral(ultrafinegrid)
 ----------------------------------------------------------------------

 -----------------------------------------------------
 Candidate Structure: Conf:34 Charge calc in gas phase
 -----------------------------------------------------
 Structure from the checkpoint file:  "conf-34.chk"
 Charge =  1 Multiplicity = 1

                          Input orientation:
 ---------------------------------------------------------------------
 Center     Atomic      Atomic             Coordinates (Angstroms)
 Number     Number       Type             X           Y           Z
 ---------------------------------------------------------------------
      1          7           0       -7.697224    3.033714    5.640998
      2          1           0       -7.033564    3.232198    6.391855
      3          1           0       -8.525874    2.596916    6.046012
      4          1           0       -7.976306    3.921343    5.216138
      5          6           0       -7.087323    2.189456    4.591667
      6          1           0       -6.603799    1.323695    5.060560
      7          6           0       -6.024160    3.016484    3.879978
      8          6           0       -8.136592    1.663204    3.592014
      9          1           0       -8.714871    2.535462    3.275569
     10          8           0       -6.189730    4.201612    3.624447
     11          6           0       -7.510885    1.031614    2.347474
     12          1           0       -6.835920    0.215190    2.623349
     13          1           0       -8.296306    0.617762    1.710541
     14          1           0       -6.949132    1.754341    1.749724
     15          6           0       -9.067524    0.649597    4.253180
     16          1           0       -8.500815   -0.241802    4.532262
     17          1           0       -9.554191    1.030711    5.151483
     18          1           0       -9.852682    0.349476    3.556292
     19          7           0       -4.892028    2.335207    3.545656
     20          1           0       -4.925652    1.325450    3.564729
     21          6           0       -3.987898    2.825852    2.524800
     22          1           0       -4.426741    3.709028    2.055356
     23          6           0       -3.797983    1.695958    1.517680
     24          6           0       -2.651272    3.231489    3.149175
     25          1           0       -1.919729    3.426691    2.361061
     26          1           0       -2.278447    2.402760    3.763172
     27          8           0       -4.039018    0.534659    1.802384
     28          8           0       -2.778204    4.418845    3.908542
     29          1           0       -3.378747    4.230867    4.635611
     30          7           0       -3.332030    2.078129    0.289968
     31          1           0       -2.947828    3.006599    0.235701
     32          6           0       -2.617438    1.114524   -0.533529
     33          1           0       -3.060647    0.139926   -0.337876
     34          6           0       -1.143772    1.097044   -0.111504
     35          6           0       -2.735452    1.473776   -2.010716
     36          1           0       -2.172480    0.761333   -2.620629
     37          1           0       -2.324414    2.471336   -2.186409
     38          1           0       -3.780750    1.464492   -2.319146
     39          8           0       -0.583964    2.068442    0.361065
     40          7           0       -0.495175   -0.087695   -0.326970
     41          1           0       -0.928897   -0.710624   -0.985721
     42          6           0        0.958739   -0.089083   -0.363152
     43          1           0        1.290143    0.556468    0.447967
     44          6           0        1.424962    0.501289   -1.700474
     45          6           0        1.478382   -1.512862   -0.151070
     46          1           0        1.010908   -1.887695    0.762333
     47          1           0        1.108560   -2.129795   -0.975743
     48          8           0        0.745011    0.453995   -2.715331
     49          6           0        2.992697   -1.694271   -0.019833
     50          1           0        3.475830   -1.318962   -0.927290
     51          6           0        3.555127   -0.941582    1.179115
     52          1           0        3.161358   -1.361803    2.109021
     53          1           0        4.646066   -1.017071    1.201065
     54          1           0        3.302367    0.123943    1.160522
     55          6           0        3.308624   -3.183597    0.088919
     56          1           0        2.820107   -3.610250    0.967745
     57          1           0        4.383421   -3.354183    0.182987
     58          1           0        2.959254   -3.725296   -0.792569
     59          7           0        2.659347    1.053371   -1.687790
     60          1           0        3.286459    0.965487   -0.905940
     61          6           0        3.303814    1.472720   -2.906487
     62          1           0        3.029929    0.781795   -3.709637
     63          6           0        4.808534    1.381693   -2.632363
     64          6           0        2.858558    2.889816   -3.315126
     65          1           0        3.178734    3.601349   -2.552622
     66          1           0        1.768425    2.871206   -3.335196
     67          8           0        5.234092    1.276453   -1.491591
     68          6           0        3.410323    3.251999   -4.652915
     69          6           0        4.469276    4.160562   -4.781537
     70          1           0        4.820158    4.693941   -3.900727
     71          6           0        2.950370    2.560451   -5.782885
     72          1           0        2.119086    1.865965   -5.654676
     73          6           0        5.114894    4.324597   -5.973101
     74          1           0        5.958955    4.996934   -6.085603
     75          6           0        3.541383    2.706953   -7.004234
     76          1           0        3.200791    2.168104   -7.879316
     77          8           0        5.243994    3.752659   -8.247171
     78          6           0        4.682654    3.597684   -7.160084
     79          7           0        5.618811    1.420861   -3.713989
     80          1           0        5.245300    1.628933   -4.637893
     81          6           0        7.058364    1.434123   -3.527491
     82          1           0        7.305748    2.103811   -2.695988
     83          6           0        7.694450    1.921874   -4.800292
     84          6           0        7.588768    0.029401   -3.192928
     85          1           0        7.009991   -0.332000   -2.343724
     86          1           0        7.379944   -0.633760   -4.035458
     87          8           0        7.328725    1.622526   -5.909036
     88          6           0        9.072341    0.013163   -2.862846
     89          1           0        9.267108    0.741902   -2.069415
     90          1           0        9.665480    0.328198   -3.724846
     91          6           0        9.543254   -1.355969   -2.404218
     92          1           0        8.956915   -1.677786   -1.539131
     93          1           0        9.371593   -2.088162   -3.197966
     94          6           0       11.009542   -1.368156   -2.034698
     95          1           0       11.181844   -0.647286   -1.231925
     96          1           0       11.597021   -1.037972   -2.894651
     97          7           0       11.474136   -2.710167   -1.603413
     98          1           0       12.464860   -2.718007   -1.358827
     99          1           0       10.953853   -3.031479   -0.787705
    100          1           0       11.334581   -3.398171   -2.342603
    101          8           0        8.780978    2.687856   -4.574855
    102          1           0        9.133623    2.895739   -5.449878
 ---------------------------------------------------------------------

 SCF Done:  E(RB3LYP) =  -2312.13465650     A.U. after    4 cycles

 Alpha  occ. eigenvalues --  -19.24498 -19.24492 -19.22074 -19.21163 -19.18371
 Alpha  occ. eigenvalues --  -19.17846 -19.16035 -19.14920 -19.03520 -14.61931
 Alpha  occ. eigenvalues --  -14.61162 -14.47291 -14.43658 -14.41072 -14.39628
 Alpha  occ. eigenvalues --  -14.38415 -10.41598 -10.39867 -10.38280 -10.37657
 Alpha  occ. eigenvalues --  -10.36449 -10.34330 -10.33660 -10.32393 -10.32149
 Alpha  occ. eigenvalues --  -10.31775 -10.31262 -10.31251 -10.30457 -10.29640
 Alpha  occ. eigenvalues --  -10.29015 -10.28815 -10.27951 -10.27505 -10.25684
 Alpha  occ. eigenvalues --  -10.25171 -10.24040 -10.23963 -10.23824 -10.22562
 Alpha  occ. eigenvalues --  -10.22517 -10.19248 -10.18922 -10.16127 -10.16004
 Alpha  occ. eigenvalues --  -10.15600 -10.13990 -10.13925  -1.18455  -1.16482
 Alpha  occ. eigenvalues --   -1.15777  -1.15546  -1.13446  -1.10229  -1.09890
 Alpha  occ. eigenvalues --   -1.08696  -1.07119  -1.06405  -1.04076  -1.00648
 Alpha  occ. eigenvalues --   -0.98046  -0.96970  -0.95660  -0.95482  -0.94271
 Alpha  occ. eigenvalues --   -0.93109  -0.88129  -0.87068  -0.86464  -0.85274
 Alpha  occ. eigenvalues --   -0.83111  -0.82627  -0.81013  -0.80816  -0.79834
 Alpha  occ. eigenvalues --   -0.77487  -0.76267  -0.75794  -0.75524  -0.74650
 Alpha  occ. eigenvalues --   -0.73817  -0.73773  -0.72788  -0.72012  -0.71730
 Alpha  occ. eigenvalues --   -0.71326  -0.70343  -0.70216  -0.69191  -0.68719
 Alpha  occ. eigenvalues --   -0.67456  -0.65872  -0.65696  -0.64567  -0.64198
 Alpha  occ. eigenvalues --   -0.63590  -0.63279  -0.62126  -0.61659  -0.60938
 Alpha  occ. eigenvalues --   -0.60816  -0.60200  -0.60114  -0.58484  -0.57866
 Alpha  occ. eigenvalues --   -0.57392  -0.56984  -0.56285  -0.55874  -0.54991
 Alpha  occ. eigenvalues --   -0.54319  -0.54257  -0.53949  -0.53809  -0.53720
 Alpha  occ. eigenvalues --   -0.52792  -0.52459  -0.52376  -0.52001  -0.51596
 Alpha  occ. eigenvalues --   -0.51387  -0.50852  -0.50547  -0.50255  -0.50054
 Alpha  occ. eigenvalues --   -0.49706  -0.49368  -0.48919  -0.48588  -0.48144
 Alpha  occ. eigenvalues --   -0.47917  -0.47775  -0.47435  -0.47310  -0.46886
 Alpha  occ. eigenvalues --   -0.46594  -0.46337  -0.46194  -0.45748  -0.45500
 Alpha  occ. eigenvalues --   -0.45232  -0.44738  -0.44512  -0.44116  -0.43807
 Alpha  occ. eigenvalues --   -0.43633  -0.43309  -0.42911  -0.42622  -0.42067
 Alpha  occ. eigenvalues --   -0.41948  -0.41869  -0.41607  -0.41437  -0.41138
 Alpha  occ. eigenvalues --   -0.40582  -0.39359  -0.39105  -0.38936  -0.38464
 Alpha  occ. eigenvalues --   -0.37972  -0.37894  -0.37811  -0.36861  -0.36401
 Alpha  occ. eigenvalues --   -0.36049  -0.35391  -0.34473  -0.34257  -0.33737
 Alpha  occ. eigenvalues --   -0.32345  -0.32214  -0.32108  -0.31407  -0.31002
 Alpha  occ. eigenvalues --   -0.30236  -0.29887  -0.28586  -0.28133  -0.27047
 Alpha  occ. eigenvalues --   -0.22754  -0.17011  -0.13431
 Alpha virt. eigenvalues --   -0.12785  -0.12426  -0.10791  -0.07218  -0.06690
 Alpha virt. eigenvalues --   -0.05745  -0.05674  -0.05591  -0.04200  -0.03829
 Alpha virt. eigenvalues --   -0.02937  -0.02731  -0.01534  -0.00906  -0.00587

 Mulliken charges:
               1
     1  N   -0.693293
     2  H    0.398215
     3  H    0.394638
     4  H    0.418034
     5  C   -0.140297
     6  H    0.200230
     7  C    0.591122
     8  C   -0.099655
     9  H    0.165078
    10  O   -0.507110
    11  C   -0.472981
    12  H    0.176106
    13  H    0.186157
    14  H    0.186000
    15  C   -0.464013
    16  H    0.175710
    17  H    0.128287
    18  H    0.199718
    19  N   -0.598324
    20  H    0.355670
    21  C   -0.113116
    22  H    0.208068
    23  C    0.611603
    24  C   -0.036553
    25  H    0.198110
    26  H    0.140908
    27  O   -0.526538
    28  O   -0.593326
    29  H    0.389909
    30  N   -0.570622
    31  H    0.346109
    32  C   -0.103901
    33  H    0.185886
    34  C    0.628407
    35  C   -0.453178
    36  H    0.190810
    37  H    0.173022
    38  H    0.165383
    39  O   -0.523171
    40  N   -0.584330
    41  H    0.333524
    42  C   -0.086421
    43  H    0.183765
    44  C    0.623548
    45  C   -0.262866
    46  H    0.145309
    47  H    0.140076
    48  O   -0.544973
    49  C   -0.091559
    50  H    0.141575
    51  C   -0.447261
    52  H    0.139772
    53  H    0.145404
    54  H    0.151699
    55  C   -0.440681
    56  H    0.141871
    57  H    0.131859
    58  H    0.147984
    59  N   -0.618730
    60  H    0.359537
    61  C   -0.046213
    62  H    0.179449
    63  C    0.615541
    64  C   -0.337156
    65  H    0.134398
    66  H    0.164301
    67  O   -0.566963
    68  C    0.091399
    69  C   -0.183082
    70  H    0.082842
    71  C   -0.197605
    72  H    0.103752
    73  C   -0.229929
    74  H    0.088960
    75  C   -0.217247
    76  H    0.100537
    77  O   -0.602139
    78  C    0.424673
    79  N   -0.628305
    80  H    0.395558
    81  C    0.014683
    82  H    0.182826
    83  C    0.564936
    84  C   -0.283640
    85  H    0.175719
    86  H    0.163408
    87  O   -0.431874
    88  C   -0.276584
    89  H    0.160883
    90  H    0.163424
    91  C   -0.284443
    92  H    0.161838
    93  H    0.163741
    94  C   -0.220996
    95  H    0.219304
    96  H    0.220345
    97  N   -0.649505
    98  H    0.371591
    99  H    0.367807
   100  H    0.370536
   101  O   -0.574131
   102  H    0.421161
 Sum of Mulliken charges =   1.00000

 Dipole moment (field-independent basis, Debye):
    X=              2.4482    Y=            -12.0326    Z=             30.5805  Tot=             32.9536
 Quadrupole moment (field-independent basis, Debye-Ang):
   XX=            385.7005   YY=           -282.4854   ZZ=           -306.7755
   XY=           -210.1535   XZ=           -142.1724   YZ=            126.6635

 Normal termination of Gaussian 16 at Thu Jul 14 00:53:18 2022.
