 Gaussian 16, Revision C.01,
 Gaussian 16:  ES64L-G16RevC.01  3-Jul-2019

 ----------------------------------------------------------------------
 # B3LYP/6-31G* empiricaldispersion=gd3bj guess=read geom=check nosymm
 integral(ultrafinegrid)
 ----------------------------------------------------------------------

 ------------------------------------------------------
 Candidate Structure: Conf:879 Charge calc in gas phase
 ------------------------------------------------------
 Structure from the checkpoint file:  "conf-879.chk"
 Charge =  1 Multiplicity = 1

                          Input orientation:
 ---------------------------------------------------------------------
 Center     Atomic      Atomic             Coordinates (Angstroms)
 Number     Number       Type             X           Y           Z
 ---------------------------------------------------------------------
      1          7           0       -4.597714   -4.172717    2.949723
      2          1           0       -3.869001   -4.761397    3.362877
      3          1           0       -5.417340   -4.750508    2.745908
      4          1           0       -4.821219   -3.430247    3.642516
      5          6           0       -4.105961   -3.414221    1.743016
      6          1           0       -3.572015   -4.096147    1.074515
      7          6           0       -3.188335   -2.366528    2.384704
      8          6           0       -5.294511   -2.784924    0.986259
      9          1           0       -5.872720   -2.209364    1.723852
     10          8           0       -3.547505   -1.948970    3.493358
     11          6           0       -4.798511   -1.828139   -0.106195
     12          1           0       -4.162358   -2.359483   -0.826236
     13          1           0       -5.656875   -1.435255   -0.657849
     14          1           0       -4.226736   -0.978708    0.272195
     15          6           0       -6.197506   -3.868914    0.374847
     16          1           0       -5.650736   -4.447302   -0.379042
     17          1           0       -6.608172   -4.578151    1.108467
     18          1           0       -7.054364   -3.402985   -0.118114
     19          7           0       -2.088355   -2.010592    1.728201
     20          1           0       -1.959437   -2.249700    0.746960
     21          6           0       -1.273564   -0.876928    2.145005
     22          1           0       -1.178482   -0.885686    3.234192
     23          6           0       -1.939516    0.420100    1.678122
     24          6           0        0.114310   -1.063568    1.481139
     25          1           0        0.595436   -1.924945    1.956172
     26          1           0        0.735842   -0.175792    1.648060
     27          8           0       -2.417359    0.493506    0.546408
     28          8           0       -0.015123   -1.369490    0.110980
     29          1           0       -0.093801   -0.528746   -0.390878
     30          7           0       -1.898560    1.445191    2.550608
     31          1           0       -1.363768    1.317413    3.402451
     32          6           0       -2.098663    2.838969    2.121262
     33          1           0       -2.777937    2.789538    1.265820
     34          6           0       -0.734444    3.390665    1.642096
     35          6           0       -2.695573    3.669888    3.246184
     36          1           0       -2.849436    4.697452    2.910231
     37          1           0       -2.018269    3.706448    4.105114
     38          1           0       -3.654154    3.246464    3.560635
     39          8           0       -0.195134    4.349296    2.181399
     40          7           0       -0.196733    2.666958    0.631222
     41          1           0       -0.751663    1.984405    0.122296
     42          6           0        1.106322    2.951902    0.053616
     43          1           0        1.165855    4.018870   -0.184412
     44          6           0        1.181938    2.114237   -1.226127
     45          6           0        2.248266    2.601466    1.042448
     46          1           0        1.919336    2.946883    2.028647
     47          1           0        2.346850    1.508163    1.087090
     48          8           0        0.382650    1.185124   -1.438481
     49          6           0        3.614867    3.247310    0.756336
     50          1           0        4.019455    2.845485   -0.178508
     51          6           0        3.504340    4.779619    0.650915
     52          1           0        2.830362    5.168151    1.426064
     53          1           0        4.491044    5.233037    0.778587
     54          1           0        3.123419    5.103274   -0.323215
     55          6           0        4.615952    2.864901    1.851482
     56          1           0        4.298170    3.263981    2.824723
     57          1           0        5.598651    3.279631    1.609285
     58          1           0        4.707151    1.775148    1.942367
     59          7           0        2.161406    2.439034   -2.089382
     60          1           0        2.896062    3.065939   -1.765025
     61          6           0        2.577640    1.530602   -3.134639
     62          1           0        1.709485    1.313497   -3.768638
     63          6           0        3.036812    0.191196   -2.534597
     64          6           0        3.693613    2.223152   -3.985865
     65          1           0        3.198557    2.983557   -4.599743
     66          1           0        4.113291    1.467999   -4.666706
     67          8           0        3.277905   -0.000129   -1.353820
     68          6           0        4.766919    2.853810   -3.140125
     69          6           0        4.794205    4.246996   -2.911836
     70          1           0        4.117844    4.885308   -3.483149
     71          6           0        5.682207    2.061506   -2.413019
     72          1           0        5.714390    0.994635   -2.609860
     73          6           0        5.625437    4.813067   -1.961708
     74          1           0        5.616906    5.883597   -1.777145
     75          6           0        6.513034    2.598774   -1.451542
     76          1           0        7.176659    1.967572   -0.865914
     77          8           0        7.121741    4.486276   -0.131276
     78          6           0        6.479450    4.007729   -1.109504
     79          7           0        3.157624   -0.816447   -3.466781
     80          1           0        3.131876   -0.568922   -4.447330
     81          6           0        3.745107   -2.086926   -3.098404
     82          1           0        3.218921   -2.470501   -2.220404
     83          6           0        5.215239   -1.991322   -2.688002
     84          6           0        3.625554   -3.070870   -4.274003
     85          1           0        2.570537   -3.117892   -4.572154
     86          1           0        4.186942   -2.668956   -5.128245
     87          8           0        5.719117   -2.644391   -1.802297
     88          6           0        4.139795   -4.472239   -3.931691
     89          1           0        3.606134   -4.852680   -3.051010
     90          1           0        5.197352   -4.422956   -3.649045
     91          6           0        3.974816   -5.447325   -5.103599
     92          1           0        2.919237   -5.509689   -5.402275
     93          1           0        4.530212   -5.073116   -5.974873
     94          6           0        4.490517   -6.832616   -4.730674
     95          1           0        3.929484   -7.256423   -3.894107
     96          1           0        5.545596   -6.798989   -4.448020
     97          7           0        4.371791   -7.805055   -5.888179
     98          1           0        4.728273   -8.750888   -5.640930
     99          1           0        3.380779   -7.908805   -6.188745
    100          1           0        4.913016   -7.469738   -6.710834
    101          8           0        5.905821   -1.160200   -3.496372
    102          1           0        6.830869   -1.148959   -3.180957
 ---------------------------------------------------------------------

 SCF Done:  E(RB3LYP) =  -2312.16967686     A.U. after    3 cycles

 Alpha  occ. eigenvalues --  -19.26326 -19.25575 -19.21863 -19.20490 -19.20059
 Alpha  occ. eigenvalues --  -19.16877 -19.16814 -19.15842 -19.04633 -14.62078
 Alpha  occ. eigenvalues --  -14.61354 -14.48772 -14.44481 -14.42008 -14.39693
 Alpha  occ. eigenvalues --  -14.39459 -10.42612 -10.40337 -10.40098 -10.38457
 Alpha  occ. eigenvalues --  -10.37170 -10.34030 -10.33563 -10.33528 -10.33336
 Alpha  occ. eigenvalues --  -10.32986 -10.32886 -10.32020 -10.31241 -10.31202
 Alpha  occ. eigenvalues --  -10.30458 -10.29392 -10.29242 -10.28607 -10.27438
 Alpha  occ. eigenvalues --  -10.26594 -10.23413 -10.22541 -10.20647 -10.19993
 Alpha  occ. eigenvalues --  -10.19077 -10.17501 -10.17413 -10.17256 -10.16755
 Alpha  occ. eigenvalues --  -10.16617 -10.15144 -10.14954  -1.18904  -1.17140
 Alpha  occ. eigenvalues --   -1.15933  -1.14744  -1.12403  -1.09436  -1.09177
 Alpha  occ. eigenvalues --   -1.08141  -1.08116  -1.07383  -1.05132  -1.00808
 Alpha  occ. eigenvalues --   -0.98940  -0.97009  -0.96221  -0.95286  -0.94374
 Alpha  occ. eigenvalues --   -0.93670  -0.88284  -0.88051  -0.85113  -0.84150
 Alpha  occ. eigenvalues --   -0.82819  -0.82225  -0.81802  -0.80935  -0.79353
 Alpha  occ. eigenvalues --   -0.76972  -0.76453  -0.75811  -0.74942  -0.74497
 Alpha  occ. eigenvalues --   -0.73576  -0.73568  -0.72395  -0.72240  -0.71867
 Alpha  occ. eigenvalues --   -0.70794  -0.70245  -0.70000  -0.68326  -0.67845
 Alpha  occ. eigenvalues --   -0.67642  -0.66908  -0.65746  -0.65607  -0.64823
 Alpha  occ. eigenvalues --   -0.64326  -0.63858  -0.62607  -0.61688  -0.61354
 Alpha  occ. eigenvalues --   -0.61158  -0.59661  -0.59399  -0.58368  -0.58253
 Alpha  occ. eigenvalues --   -0.57662  -0.57159  -0.56793  -0.56430  -0.55799
 Alpha  occ. eigenvalues --   -0.55546  -0.55118  -0.54648  -0.54430  -0.54099
 Alpha  occ. eigenvalues --   -0.53788  -0.53179  -0.52644  -0.52206  -0.51943
 Alpha  occ. eigenvalues --   -0.51843  -0.51624  -0.51047  -0.50353  -0.50149
 Alpha  occ. eigenvalues --   -0.49855  -0.49445  -0.48890  -0.48436  -0.48239
 Alpha  occ. eigenvalues --   -0.47757  -0.47532  -0.47192  -0.46984  -0.46736
 Alpha  occ. eigenvalues --   -0.46533  -0.46363  -0.45897  -0.45707  -0.45623
 Alpha  occ. eigenvalues --   -0.45346  -0.44770  -0.44636  -0.44256  -0.44036
 Alpha  occ. eigenvalues --   -0.43805  -0.43268  -0.43033  -0.42734  -0.42109
 Alpha  occ. eigenvalues --   -0.41412  -0.41119  -0.41057  -0.40071  -0.39984
 Alpha  occ. eigenvalues --   -0.39531  -0.39457  -0.38995  -0.38827  -0.38336
 Alpha  occ. eigenvalues --   -0.38047  -0.36632  -0.36415  -0.35842  -0.35114
 Alpha  occ. eigenvalues --   -0.34987  -0.34696  -0.33796  -0.33260  -0.32931
 Alpha  occ. eigenvalues --   -0.32714  -0.32518  -0.31908  -0.31713  -0.31098
 Alpha  occ. eigenvalues --   -0.30670  -0.29480  -0.28987  -0.28372  -0.27965
 Alpha  occ. eigenvalues --   -0.23197  -0.18042  -0.14992
 Alpha virt. eigenvalues --   -0.14145  -0.12714  -0.10890  -0.07287  -0.07273
 Alpha virt. eigenvalues --   -0.07163  -0.06704  -0.06163  -0.04755  -0.04700
 Alpha virt. eigenvalues --   -0.03161  -0.03057  -0.02502  -0.01796  -0.01235

 Mulliken charges:
               1
     1  N   -0.734052
     2  H    0.420084
     3  H    0.410430
     4  H    0.428675
     5  C   -0.126516
     6  H    0.196139
     7  C    0.664263
     8  C   -0.097791
     9  H    0.169204
    10  O   -0.545473
    11  C   -0.493451
    12  H    0.151229
    13  H    0.183138
    14  H    0.228620
    15  C   -0.469963
    16  H    0.170438
    17  H    0.129319
    18  H    0.202262
    19  N   -0.579033
    20  H    0.369173
    21  C   -0.105629
    22  H    0.176276
    23  C    0.631162
    24  C   -0.064782
    25  H    0.160513
    26  H    0.186271
    27  O   -0.540991
    28  O   -0.646903
    29  H    0.450071
    30  N   -0.570447
    31  H    0.340283
    32  C   -0.089446
    33  H    0.193316
    34  C    0.617938
    35  C   -0.444670
    36  H    0.185088
    37  H    0.164670
    38  H    0.148161
    39  O   -0.509671
    40  N   -0.659018
    41  H    0.370734
    42  C   -0.040834
    43  H    0.188799
    44  C    0.631435
    45  C   -0.281856
    46  H    0.156750
    47  H    0.144142
    48  O   -0.588530
    49  C   -0.090767
    50  H    0.161413
    51  C   -0.472605
    52  H    0.142044
    53  H    0.191197
    54  H    0.128321
    55  C   -0.468383
    56  H    0.120872
    57  H    0.204769
    58  H    0.121589
    59  N   -0.604511
    60  H    0.388685
    61  C   -0.062386
    62  H    0.158519
    63  C    0.666022
    64  C   -0.379477
    65  H    0.156196
    66  H    0.126817
    67  O   -0.519758
    68  C    0.086659
    69  C   -0.203290
    70  H    0.095141
    71  C   -0.177856
    72  H    0.095549
    73  C   -0.202082
    74  H    0.106910
    75  C   -0.214825
    76  H    0.095115
    77  O   -0.634184
    78  C    0.430941
    79  N   -0.628473
    80  H    0.328673
    81  C    0.007201
    82  H    0.194206
    83  C    0.600819
    84  C   -0.317793
    85  H    0.160056
    86  H    0.162630
    87  O   -0.463929
    88  C   -0.277611
    89  H    0.161173
    90  H    0.181095
    91  C   -0.283609
    92  H    0.159568
    93  H    0.166295
    94  C   -0.203750
    95  H    0.213577
    96  H    0.222429
    97  N   -0.653750
    98  H    0.362081
    99  H    0.353025
   100  H    0.360361
   101  O   -0.558082
   102  H    0.427645
 Sum of Mulliken charges =   1.00000

 Dipole moment (field-independent basis, Debye):
    X=            -15.8547    Y=            -51.6832    Z=            -13.3191  Tot=             55.6769
 Quadrupole moment (field-independent basis, Debye-Ang):
   XX=           -235.9870   YY=            -58.6625   ZZ=           -124.2560
   XY=           -114.2897   XZ=           -135.8515   YZ=            121.6637

 Normal termination of Gaussian 16 at Thu Jul 14 00:52:57 2022.
