 Gaussian 16, Revision C.01,
 Gaussian 16:  ES64L-G16RevC.01  3-Jul-2019

 ----------------------------------------------------------------------
 # B3LYP/6-31G* empiricaldispersion=gd3bj guess=read geom=check nosymm
 integral(ultrafinegrid)
 ----------------------------------------------------------------------

 -----------------------------------------------------
 Candidate Structure: Conf:12 Charge calc in gas phase
 -----------------------------------------------------
 Structure from the checkpoint file:  "conf-12.chk"
 Charge =  1 Multiplicity = 1

                          Input orientation:
 ---------------------------------------------------------------------
 Center     Atomic      Atomic             Coordinates (Angstroms)
 Number     Number       Type             X           Y           Z
 ---------------------------------------------------------------------
      1          7           0       -7.671308    0.865683    6.202050
      2          1           0       -7.068822    1.157493    6.973767
      3          1           0       -8.341782    0.181175    6.553364
      4          1           0       -8.189359    1.683610    5.871945
      5          6           0       -6.880402    0.331895    5.072562
      6          1           0       -6.169624   -0.413162    5.450443
      7          6           0       -6.099327    1.486123    4.457365
      8          6           0       -7.771326   -0.353887    4.017443
      9          1           0       -8.572093    0.355810    3.792756
     10          8           0       -6.588611    2.599765    4.324689
     11          6           0       -7.028390   -0.658491    2.715558
     12          1           0       -6.152146   -1.286634    2.905444
     13          1           0       -7.688851   -1.199974    2.033932
     14          1           0       -6.696482    0.247673    2.201800
     15          6           0       -8.375729   -1.645754    4.562239
     16          1           0       -7.581651   -2.373089    4.746751
     17          1           0       -8.924841   -1.507335    5.494097
     18          1           0       -9.067205   -2.073998    3.833773
     19          7           0       -4.831618    1.179449    4.061623
     20          1           0       -4.586484    0.202729    3.979413
     21          6           0       -4.120090    1.999973    3.102398
     22          1           0       -4.791984    2.774054    2.726767
     23          6           0       -3.661183    1.077220    1.981439
     24          6           0       -2.927448    2.684932    3.769039
     25          1           0       -2.304477    3.163995    3.010185
     26          1           0       -2.321507    1.927204    4.281822
     27          8           0       -3.566621   -0.129246    2.133592
     28          8           0       -3.348588    3.698000    4.662657
     29          1           0       -3.854514    3.272392    5.360937
     30          7           0       -3.351397    1.692307    0.803120
     31          1           0       -3.235148    2.688862    0.832714
     32          6           0       -2.500141    1.009611   -0.157870
     33          1           0       -2.865839   -0.014302   -0.234655
     34          6           0       -1.056040    0.987153    0.352476
     35          6           0       -2.554887    1.717665   -1.506183
     36          1           0       -1.873415    1.230826   -2.211726
     37          1           0       -2.251177    2.760079   -1.390438
     38          1           0       -3.568730    1.684463   -1.905932
     39          8           0       -0.579027    1.913739    0.988303
     40          7           0       -0.355856   -0.138150    0.035519
     41          1           0       -0.719038   -0.659506   -0.745025
     42          6           0        1.092170   -0.111079    0.090544
     43          1           0        1.377912    0.666226    0.804086
     44          6           0        1.633383    0.297147   -1.288599
     45          6           0        1.656637   -1.449731    0.551355
     46          1           0        1.451946   -2.208363   -0.208938
     47          1           0        2.743633   -1.365831    0.623166
     48          8           0        0.894930    0.487678   -2.244512
     49          6           0        1.117534   -1.924515    1.903216
     50          1           0        0.056611   -2.164746    1.785194
     51          6           0        1.849380   -3.195160    2.321116
     52          1           0        2.909450   -2.984482    2.482940
     53          1           0        1.440679   -3.599991    3.250244
     54          1           0        1.770489   -3.969671    1.554380
     55          6           0        1.242730   -0.841615    2.969092
     56          1           0        2.283116   -0.507926    3.051888
     57          1           0        0.942070   -1.230765    3.945502
     58          1           0        0.621298    0.029296    2.754103
     59          7           0        2.983421    0.417461   -1.353768
     60          1           0        3.552757    0.268038   -0.536478
     61          6           0        3.668888    0.897904   -2.530172
     62          1           0        3.037177    0.665555   -3.386592
     63          6           0        5.018812    0.186016   -2.588290
     64          6           0        3.886571    2.423455   -2.474063
     65          1           0        4.398051    2.730687   -3.388609
     66          1           0        4.543563    2.652538   -1.633965
     67          8           0        5.683883    0.015067   -1.575411
     68          6           0        2.587122    3.137703   -2.330707
     69          6           0        1.719287    3.247789   -3.422163
     70          1           0        2.036411    2.838118   -4.378523
     71          6           0        2.173220    3.636746   -1.086033
     72          1           0        2.836883    3.540094   -0.232365
     73          6           0        0.472445    3.808731   -3.308029
     74          1           0       -0.203641    3.887460   -4.147757
     75          6           0        0.943020    4.222899   -0.914233
     76          1           0        0.625770    4.625980    0.036903
     77          8           0       -1.094833    4.858585   -1.903420
     78          6           0        0.018193    4.327616   -2.025256
     79          7           0        5.430494   -0.194266   -3.821143
     80          1           0        4.869087    0.019686   -4.630407
     81          6           0        6.742030   -0.772974   -4.031125
     82          1           0        7.348195   -0.544036   -3.151614
     83          6           0        7.431130   -0.160311   -5.232801
     84          6           0        6.702817   -2.298252   -4.202024
     85          1           0        6.105477   -2.561977   -5.076490
     86          1           0        7.727186   -2.624877   -4.399131
     87          8           0        8.621502   -0.040621   -5.351816
     88          6           0        6.169601   -3.010896   -2.968257
     89          1           0        5.126776   -2.747114   -2.804059
     90          1           0        6.718190   -2.663975   -2.087693
     91          6           0        6.280654   -4.520917   -3.075935
     92          1           0        5.731847   -4.864554   -3.956965
     93          1           0        7.326055   -4.809619   -3.215909
     94          6           0        5.734043   -5.225171   -1.854092
     95          1           0        4.694608   -4.923544   -1.705286
     96          1           0        6.292600   -4.899224   -0.973538
     97          7           0        5.809987   -6.703106   -1.970069
     98          1           0        5.436804   -7.177158   -1.146984
     99          1           0        5.283995   -7.032188   -2.778956
    100          1           0        6.774607   -7.010413   -2.090247
    101          8           0        6.552880    0.191525   -6.202879
    102          1           0        7.072849    0.547406   -6.934646
 ---------------------------------------------------------------------

 SCF Done:  E(RB3LYP) =  -2312.13523128     A.U. after    4 cycles

 Alpha  occ. eigenvalues --  -19.26657 -19.24259 -19.21097 -19.20755 -19.19757
 Alpha  occ. eigenvalues --  -19.17132 -19.15584 -19.14519 -19.03957 -14.62171
 Alpha  occ. eigenvalues --  -14.61133 -14.46892 -14.42502 -14.41951 -14.39623
 Alpha  occ. eigenvalues --  -14.39128 -10.41415 -10.39849 -10.38891 -10.38645
 Alpha  occ. eigenvalues --  -10.36168 -10.33940 -10.33603 -10.32250 -10.31897
 Alpha  occ. eigenvalues --  -10.31677 -10.31135 -10.30866 -10.30516 -10.30210
 Alpha  occ. eigenvalues --  -10.28801 -10.28706 -10.27842 -10.27397 -10.26707
 Alpha  occ. eigenvalues --  -10.26383 -10.23987 -10.23937 -10.23190 -10.21862
 Alpha  occ. eigenvalues --  -10.20254 -10.20225 -10.18965 -10.15869 -10.15809
 Alpha  occ. eigenvalues --  -10.15652 -10.13805 -10.13643  -1.18474  -1.17803
 Alpha  occ. eigenvalues --   -1.16549  -1.15395  -1.12135  -1.09661  -1.08934
 Alpha  occ. eigenvalues --   -1.08763  -1.07947  -1.06567  -1.03580  -0.99547
 Alpha  occ. eigenvalues --   -0.98852  -0.96796  -0.96125  -0.95422  -0.94462
 Alpha  occ. eigenvalues --   -0.93709  -0.87725  -0.87687  -0.86874  -0.84355
 Alpha  occ. eigenvalues --   -0.83344  -0.82074  -0.81245  -0.80887  -0.79430
 Alpha  occ. eigenvalues --   -0.77638  -0.76676  -0.76337  -0.75643  -0.74714
 Alpha  occ. eigenvalues --   -0.73760  -0.73572  -0.73007  -0.71653  -0.71182
 Alpha  occ. eigenvalues --   -0.70422  -0.70282  -0.69822  -0.69457  -0.68342
 Alpha  occ. eigenvalues --   -0.67875  -0.66820  -0.65267  -0.64891  -0.64677
 Alpha  occ. eigenvalues --   -0.63476  -0.63168  -0.62396  -0.62191  -0.61533
 Alpha  occ. eigenvalues --   -0.60838  -0.60079  -0.59475  -0.59078  -0.57625
 Alpha  occ. eigenvalues --   -0.57345  -0.56749  -0.56636  -0.55433  -0.55281
 Alpha  occ. eigenvalues --   -0.55025  -0.54672  -0.54426  -0.53794  -0.53587
 Alpha  occ. eigenvalues --   -0.53097  -0.52572  -0.52179  -0.51765  -0.51702
 Alpha  occ. eigenvalues --   -0.51657  -0.51128  -0.50805  -0.50079  -0.49822
 Alpha  occ. eigenvalues --   -0.49628  -0.49266  -0.49197  -0.48650  -0.48187
 Alpha  occ. eigenvalues --   -0.47803  -0.47539  -0.47421  -0.47127  -0.46484
 Alpha  occ. eigenvalues --   -0.46413  -0.46119  -0.45973  -0.45704  -0.45462
 Alpha  occ. eigenvalues --   -0.45063  -0.44675  -0.44442  -0.43996  -0.43934
 Alpha  occ. eigenvalues --   -0.43647  -0.43540  -0.43066  -0.42785  -0.42191
 Alpha  occ. eigenvalues --   -0.41928  -0.41472  -0.41181  -0.40573  -0.40213
 Alpha  occ. eigenvalues --   -0.39651  -0.39088  -0.38872  -0.38739  -0.38554
 Alpha  occ. eigenvalues --   -0.38055  -0.37996  -0.37707  -0.37405  -0.37158
 Alpha  occ. eigenvalues --   -0.35844  -0.35212  -0.34878  -0.34094  -0.32861
 Alpha  occ. eigenvalues --   -0.32579  -0.32334  -0.31596  -0.31400  -0.31117
 Alpha  occ. eigenvalues --   -0.30275  -0.28926  -0.28719  -0.28307  -0.26653
 Alpha  occ. eigenvalues --   -0.21892  -0.17447  -0.13591
 Alpha virt. eigenvalues --   -0.12707  -0.12672  -0.10622  -0.06804  -0.06298
 Alpha virt. eigenvalues --   -0.05932  -0.05767  -0.05737  -0.05560  -0.03385
 Alpha virt. eigenvalues --   -0.02802  -0.02753  -0.01625  -0.00837  -0.00356

 Mulliken charges:
               1
     1  N   -0.703432
     2  H    0.410647
     3  H    0.403847
     4  H    0.422320
     5  C   -0.139442
     6  H    0.200309
     7  C    0.593526
     8  C   -0.100331
     9  H    0.166169
    10  O   -0.502915
    11  C   -0.472914
    12  H    0.176023
    13  H    0.184500
    14  H    0.191968
    15  C   -0.464407
    16  H    0.174931
    17  H    0.127257
    18  H    0.199950
    19  N   -0.595819
    20  H    0.353179
    21  C   -0.116728
    22  H    0.210840
    23  C    0.619022
    24  C   -0.033341
    25  H    0.205350
    26  H    0.139339
    27  O   -0.540541
    28  O   -0.592079
    29  H    0.386245
    30  N   -0.576725
    31  H    0.357921
    32  C   -0.085945
    33  H    0.159709
    34  C    0.644897
    35  C   -0.488809
    36  H    0.186019
    37  H    0.230593
    38  H    0.147321
    39  O   -0.521310
    40  N   -0.578606
    41  H    0.327587
    42  C   -0.104720
    43  H    0.212384
    44  C    0.646996
    45  C   -0.265697
    46  H    0.117323
    47  H    0.126970
    48  O   -0.523005
    49  C   -0.055855
    50  H    0.139181
    51  C   -0.441594
    52  H    0.135131
    53  H    0.144364
    54  H    0.119132
    55  C   -0.465401
    56  H    0.138114
    57  H    0.133702
    58  H    0.181785
    59  N   -0.614361
    60  H    0.336310
    61  C   -0.049484
    62  H    0.167877
    63  C    0.624890
    64  C   -0.357884
    65  H    0.131643
    66  H    0.147460
    67  O   -0.552400
    68  C    0.156906
    69  C   -0.149926
    70  H    0.067009
    71  C   -0.195160
    72  H    0.076801
    73  C   -0.206375
    74  H    0.090654
    75  C   -0.193207
    76  H    0.093022
    77  O   -0.639516
    78  C    0.420529
    79  N   -0.620527
    80  H    0.355490
    81  C   -0.049636
    82  H    0.213538
    83  C    0.585315
    84  C   -0.274612
    85  H    0.153077
    86  H    0.165967
    87  O   -0.443448
    88  C   -0.271561
    89  H    0.167372
    90  H    0.177195
    91  C   -0.284731
    92  H    0.158178
    93  H    0.162621
    94  C   -0.218843
    95  H    0.217323
    96  H    0.220683
    97  N   -0.635658
    98  H    0.358282
    99  H    0.355703
   100  H    0.357983
   101  O   -0.576038
   102  H    0.426603
 Sum of Mulliken charges =   1.00000

 Dipole moment (field-independent basis, Debye):
    X=             -7.4296    Y=            -35.0713    Z=             15.8712  Tot=             39.2057
 Quadrupole moment (field-independent basis, Debye-Ang):
   XX=             37.7798   YY=           -199.2099   ZZ=           -113.8411
   XY=           -130.3441   XZ=           -224.4351   YZ=             70.1800

 Normal termination of Gaussian 16 at Thu Jul 14 00:54:30 2022.
