 Gaussian 16, Revision C.01,
 Gaussian 16:  ES64L-G16RevC.01  3-Jul-2019

 ----------------------------------------------------------------------
 # B3LYP/6-31G* empiricaldispersion=gd3bj guess=read geom=check nosymm
 integral(ultrafinegrid)
 ----------------------------------------------------------------------

 ------------------------------------------------------
 Candidate Structure: Conf:772 Charge calc in gas phase
 ------------------------------------------------------
 Structure from the checkpoint file:  "conf-772.chk"
 Charge =  1 Multiplicity = 1

                          Input orientation:
 ---------------------------------------------------------------------
 Center     Atomic      Atomic             Coordinates (Angstroms)
 Number     Number       Type             X           Y           Z
 ---------------------------------------------------------------------
      1          7           0       -6.060697    0.448595    5.913899
      2          1           0       -5.700586   -0.413128    6.331871
      3          1           0       -7.066494    0.508288    6.092056
      4          1           0       -5.544484    1.282620    6.335426
      5          6           0       -5.708873    0.584662    4.445383
      6          1           0       -5.307720   -0.373709    4.106909
      7          6           0       -4.583494    1.652170    4.484168
      8          6           0       -6.957346    0.969112    3.620313
      9          1           0       -7.716172    0.210576    3.864674
     10          8           0       -4.405643    2.263119    5.550649
     11          6           0       -7.496127    2.356303    3.995987
     12          1           0       -6.773348    3.138961    3.743775
     13          1           0       -8.416624    2.558581    3.441852
     14          1           0       -7.734735    2.456306    5.062347
     15          6           0       -6.683019    0.861158    2.113162
     16          1           0       -6.023281    1.659444    1.761164
     17          1           0       -6.236789   -0.103308    1.846508
     18          1           0       -7.625740    0.953942    1.566928
     19          7           0       -3.903395    1.820835    3.362300
     20          1           0       -4.071507    1.224408    2.551269
     21          6           0       -2.643253    2.543797    3.235299
     22          1           0       -2.785650    3.612752    3.431725
     23          6           0       -2.223124    2.290654    1.778500
     24          6           0       -1.586788    1.954967    4.212221
     25          1           0       -1.919303    2.162044    5.232161
     26          1           0       -0.629308    2.473371    4.064946
     27          8           0       -2.897834    1.550251    1.058848
     28          8           0       -1.475952    0.564372    4.061243
     29          1           0       -0.827558    0.379589    3.348460
     30          7           0       -1.048770    2.819346    1.364003
     31          1           0       -0.460788    3.272038    2.052415
     32          6           0       -0.346466    2.125334    0.278677
     33          1           0       -0.969238    2.187465   -0.617700
     34          6           0       -0.179404    0.657917    0.717471
     35          6           0        1.022577    2.754422    0.024578
     36          1           0        1.535845    2.230271   -0.787765
     37          1           0        1.646309    2.676601    0.921453
     38          1           0        0.916149    3.807333   -0.252635
     39          8           0        0.226332    0.394098    1.855337
     40          7           0       -0.470095   -0.271635   -0.208563
     41          1           0       -0.934555    0.030050   -1.056004
     42          6           0       -0.355673   -1.710638    0.021421
     43          1           0        0.247529   -1.813450    0.927810
     44          6           0        0.440511   -2.391899   -1.110124
     45          6           0       -1.729334   -2.358826    0.235616
     46          1           0       -2.361736   -2.120998   -0.631528
     47          1           0       -1.585269   -3.444300    0.226839
     48          8           0        0.417412   -3.608234   -1.259583
     49          6           0       -2.428372   -1.910410    1.532068
     50          1           0       -2.386477   -0.816480    1.583779
     51          6           0       -3.909073   -2.308411    1.502615
     52          1           0       -4.030203   -3.394954    1.414671
     53          1           0       -4.413885   -2.000464    2.430152
     54          1           0       -4.432840   -1.842824    0.659150
     55          6           0       -1.739453   -2.472717    2.781205
     56          1           0       -1.786374   -3.568497    2.795129
     57          1           0       -2.218696   -2.094205    3.690622
     58          1           0       -0.686916   -2.178345    2.834944
     59          7           0        1.158583   -1.537094   -1.874614
     60          1           0        1.265087   -0.567400   -1.593548
     61          6           0        2.142343   -1.952122   -2.850597
     62          1           0        2.767521   -2.746068   -2.421961
     63          6           0        3.023299   -0.706098   -3.079499
     64          6           0        1.473141   -2.512584   -4.136927
     65          1           0        0.846720   -1.725146   -4.569468
     66          1           0        0.808766   -3.313578   -3.796340
     67          8           0        2.788355    0.364875   -2.510961
     68          6           0        2.452721   -3.022449   -5.169546
     69          6           0        2.560705   -2.406813   -6.425392
     70          1           0        1.900491   -1.578759   -6.667763
     71          6           0        3.341968   -4.068369   -4.878487
     72          1           0        3.271736   -4.582604   -3.922488
     73          6           0        3.525261   -2.798414   -7.347154
     74          1           0        3.610965   -2.309323   -8.312083
     75          6           0        4.324314   -4.462122   -5.787531
     76          1           0        4.997868   -5.279290   -5.546150
     77          8           0        5.377814   -4.134061   -7.946496
     78          6           0        4.433706   -3.821565   -7.033386
     79          7           0        4.071742   -0.885016   -3.905048
     80          1           0        4.078966   -1.727334   -4.466398
     81          6           0        4.960349    0.194501   -4.296104
     82          1           0        5.492656    0.570518   -3.417330
     83          6           0        4.220685    1.394016   -4.881744
     84          6           0        5.952823   -0.340955   -5.348174
     85          1           0        5.369910   -0.643562   -6.227473
     86          1           0        6.604278    0.482166   -5.659283
     87          8           0        4.604331    2.535511   -4.787408
     88          6           0        6.779490   -1.538328   -4.855758
     89          1           0        6.124743   -2.230904   -4.314588
     90          1           0        7.533743   -1.203693   -4.132092
     91          6           0        7.424219   -2.313562   -6.012824
     92          1           0        6.689702   -2.415769   -6.817088
     93          1           0        8.268014   -1.750571   -6.432844
     94          6           0        7.872886   -3.724145   -5.606787
     95          1           0        7.174695   -4.126447   -4.864713
     96          1           0        8.865673   -3.696765   -5.133612
     97          7           0        7.822518   -4.639008   -6.768985
     98          1           0        8.150774   -5.566317   -6.502003
     99          1           0        6.192159   -4.519532   -7.505879
    100          1           0        8.459640   -4.311951   -7.495871
    101          8           0        3.131175    1.032713   -5.602376
    102          1           0        2.770406    1.861485   -5.969268
 ---------------------------------------------------------------------

 SCF Done:  E(RB3LYP) =  -2312.32605950     A.U. after    1 cycles

 Alpha  occ. eigenvalues --  -19.26832 -19.25160 -19.23834 -19.22573 -19.21417
 Alpha  occ. eigenvalues --  -19.19487 -19.19143 -19.18950 -19.17598 -14.59649
 Alpha  occ. eigenvalues --  -14.49112 -14.46966 -14.45896 -14.42178 -14.41750
 Alpha  occ. eigenvalues --  -14.40020 -10.43353 -10.40353 -10.40179 -10.38435
 Alpha  occ. eigenvalues --  -10.37316 -10.35510 -10.35068 -10.34972 -10.34458
 Alpha  occ. eigenvalues --  -10.33420 -10.33329 -10.30668 -10.30500 -10.29862
 Alpha  occ. eigenvalues --  -10.29846 -10.29814 -10.29352 -10.27428 -10.27021
 Alpha  occ. eigenvalues --  -10.25898 -10.25444 -10.25441 -10.25274 -10.24936
 Alpha  occ. eigenvalues --  -10.24510 -10.24451 -10.24333 -10.24077 -10.23915
 Alpha  occ. eigenvalues --  -10.23826 -10.23763 -10.23171  -1.19284  -1.16054
 Alpha  occ. eigenvalues --   -1.15954  -1.13587  -1.13186  -1.10789  -1.10528
 Alpha  occ. eigenvalues --   -1.09452  -1.08164  -1.06879  -1.06056  -1.03542
 Alpha  occ. eigenvalues --   -1.02448  -0.99626  -0.98566  -0.95723  -0.95215
 Alpha  occ. eigenvalues --   -0.90474  -0.89402  -0.88455  -0.86874  -0.86472
 Alpha  occ. eigenvalues --   -0.84597  -0.84067  -0.82210  -0.81651  -0.81431
 Alpha  occ. eigenvalues --   -0.79689  -0.78057  -0.76814  -0.75516  -0.75421
 Alpha  occ. eigenvalues --   -0.75377  -0.74717  -0.73492  -0.72847  -0.71775
 Alpha  occ. eigenvalues --   -0.70692  -0.69139  -0.69051  -0.68833  -0.68138
 Alpha  occ. eigenvalues --   -0.67035  -0.66763  -0.66421  -0.65503  -0.64821
 Alpha  occ. eigenvalues --   -0.64385  -0.64245  -0.62704  -0.62601  -0.61959
 Alpha  occ. eigenvalues --   -0.61700  -0.61022  -0.59776  -0.58927  -0.58438
 Alpha  occ. eigenvalues --   -0.58240  -0.58001  -0.56995  -0.56594  -0.56094
 Alpha  occ. eigenvalues --   -0.55923  -0.55741  -0.55213  -0.54479  -0.54351
 Alpha  occ. eigenvalues --   -0.53991  -0.53764  -0.53331  -0.53130  -0.52273
 Alpha  occ. eigenvalues --   -0.52194  -0.51805  -0.51572  -0.51200  -0.51110
 Alpha  occ. eigenvalues --   -0.50946  -0.50621  -0.50450  -0.50343  -0.49807
 Alpha  occ. eigenvalues --   -0.49526  -0.49510  -0.48947  -0.48614  -0.48164
 Alpha  occ. eigenvalues --   -0.47818  -0.47614  -0.47485  -0.47176  -0.47165
 Alpha  occ. eigenvalues --   -0.47093  -0.46937  -0.46318  -0.46244  -0.45980
 Alpha  occ. eigenvalues --   -0.45798  -0.45639  -0.45404  -0.45197  -0.44863
 Alpha  occ. eigenvalues --   -0.44459  -0.44189  -0.43551  -0.42525  -0.42411
 Alpha  occ. eigenvalues --   -0.42199  -0.42058  -0.41104  -0.40979  -0.40209
 Alpha  occ. eigenvalues --   -0.39961  -0.39758  -0.39737  -0.39643  -0.39512
 Alpha  occ. eigenvalues --   -0.39237  -0.39148  -0.38123  -0.37967  -0.37301
 Alpha  occ. eigenvalues --   -0.36963  -0.36249  -0.35978  -0.35600  -0.34961
 Alpha  occ. eigenvalues --   -0.34255  -0.32813  -0.32275  -0.32248  -0.31051
 Alpha  occ. eigenvalues --   -0.30799  -0.30258  -0.26253
 Alpha virt. eigenvalues --   -0.12428  -0.10968  -0.09995  -0.07582  -0.06782
 Alpha virt. eigenvalues --   -0.05933  -0.05307  -0.05197  -0.04242  -0.03705
 Alpha virt. eigenvalues --   -0.03450  -0.02465  -0.01479  -0.00884  -0.00441

 Mulliken charges:
               1
     1  N   -0.763499
     2  H    0.419179
     3  H    0.410244
     4  H    0.435750
     5  C   -0.117466
     6  H    0.225471
     7  C    0.668011
     8  C   -0.108754
     9  H    0.159470
    10  O   -0.550943
    11  C   -0.471477
    12  H    0.186484
    13  H    0.194587
    14  H    0.140757
    15  C   -0.485834
    16  H    0.182394
    17  H    0.175896
    18  H    0.188477
    19  N   -0.611100
    20  H    0.394268
    21  C   -0.062179
    22  H    0.195604
    23  C    0.618504
    24  C   -0.066380
    25  H    0.188354
    26  H    0.144187
    27  O   -0.534052
    28  O   -0.658005
    29  H    0.467817
    30  N   -0.583090
    31  H    0.346258
    32  C   -0.047369
    33  H    0.175400
    34  C    0.647401
    35  C   -0.498187
    36  H    0.215616
    37  H    0.175166
    38  H    0.178890
    39  O   -0.577194
    40  N   -0.605415
    41  H    0.347495
    42  C   -0.079738
    43  H    0.212213
    44  C    0.613776
    45  C   -0.257892
    46  H    0.130502
    47  H    0.183519
    48  O   -0.526889
    49  C   -0.089237
    50  H    0.140071
    51  C   -0.456963
    52  H    0.160377
    53  H    0.104874
    54  H    0.148481
    55  C   -0.453361
    56  H    0.147256
    57  H    0.135162
    58  H    0.161491
    59  N   -0.637133
    60  H    0.357302
    61  C   -0.048147
    62  H    0.182276
    63  C    0.628217
    64  C   -0.337917
    65  H    0.147230
    66  H    0.194922
    67  O   -0.556231
    68  C    0.090948
    69  C   -0.175492
    70  H    0.135091
    71  C   -0.204965
    72  H    0.142303
    73  C   -0.168102
    74  H    0.145253
    75  C   -0.192297
    76  H    0.133852
    77  O   -0.689980
    78  C    0.365067
    79  N   -0.632877
    80  H    0.379319
    81  C    0.002701
    82  H    0.185832
    83  C    0.595603
    84  C   -0.327743
    85  H    0.169758
    86  H    0.174014
    87  O   -0.462660
    88  C   -0.275852
    89  H    0.145186
    90  H    0.148668
    91  C   -0.289074
    92  H    0.173330
    93  H    0.145413
    94  C   -0.139360
    95  H    0.151136
    96  H    0.144736
    97  N   -0.769382
    98  H    0.325568
    99  H    0.458928
   100  H    0.327873
   101  O   -0.571383
   102  H    0.413690
 Sum of Mulliken charges =   1.00000

 Dipole moment (field-independent basis, Debye):
    X=            -14.9386    Y=              1.7254    Z=             12.1940  Tot=             19.3606
 Quadrupole moment (field-independent basis, Debye-Ang):
   XX=            -63.0789   YY=           -267.6141   ZZ=           -164.4846
   XY=            -52.7461   XZ=           -158.8358   YZ=             23.4702

 Normal termination of Gaussian 16 at Thu Jul 14 00:52:11 2022.
