 Gaussian 16, Revision C.01,
 Gaussian 16:  ES64L-G16RevC.01  3-Jul-2019

 ----------------------------------------------------------------------
 # B3LYP/6-31G* empiricaldispersion=gd3bj guess=read geom=check nosymm
 integral(ultrafinegrid)
 ----------------------------------------------------------------------

 ------------------------------------------------------
 Candidate Structure: Conf:883 Charge calc in gas phase
 ------------------------------------------------------
 Structure from the checkpoint file:  "conf-883.chk"
 Charge =  1 Multiplicity = 1

                          Input orientation:
 ---------------------------------------------------------------------
 Center     Atomic      Atomic             Coordinates (Angstroms)
 Number     Number       Type             X           Y           Z
 ---------------------------------------------------------------------
      1          7           0       -8.275520    3.067672    4.113710
      2          1           0       -7.835616    3.380175    4.983020
      3          1           0       -9.189350    2.662844    4.333418
      4          1           0       -8.372878    3.899413    3.450117
      5          6           0       -7.397314    2.137026    3.299838
      6          1           0       -6.566828    1.816102    3.932588
      7          6           0       -6.912885    3.070532    2.160263
      8          6           0       -8.213179    0.912935    2.818366
      9          1           0       -8.666897    0.489279    3.727148
     10          8           0       -7.496097    4.158850    2.025511
     11          6           0       -9.328566    1.306543    1.839895
     12          1           0       -8.912953    1.702164    0.907679
     13          1           0       -9.928033    0.426700    1.591615
     14          1           0      -10.015242    2.061359    2.242660
     15          6           0       -7.301821   -0.171239    2.224903
     16          1           0       -6.884673    0.119603    1.256398
     17          1           0       -6.475134   -0.423211    2.898898
     18          1           0       -7.884658   -1.082601    2.065233
     19          7           0       -5.926105    2.622518    1.400322
     20          1           0       -5.521647    1.692616    1.518837
     21          6           0       -5.429194    3.286506    0.204530
     22          1           0       -6.252698    3.784696   -0.314105
     23          6           0       -4.813389    2.171795   -0.643122
     24          6           0       -4.342977    4.348739    0.562813
     25          1           0       -3.579717    3.861447    1.183694
     26          1           0       -4.831437    5.129728    1.153900
     27          8           0       -4.600252    1.060954   -0.148024
     28          8           0       -3.788733    4.932438   -0.588142
     29          1           0       -2.997079    4.392417   -0.821924
     30          7           0       -4.472365    2.523556   -1.903620
     31          1           0       -4.491481    3.526339   -2.074781
     32          6           0       -3.393052    1.793104   -2.565213
     33          1           0       -3.675662    0.738209   -2.603741
     34          6           0       -2.117713    1.949800   -1.711182
     35          6           0       -3.170464    2.343441   -3.974509
     36          1           0       -2.379522    1.782381   -4.479785
     37          1           0       -2.865543    3.394902   -3.932703
     38          1           0       -4.087342    2.262986   -4.565175
     39          8           0       -1.902760    2.993172   -1.073387
     40          7           0       -1.286491    0.905379   -1.716212
     41          1           0       -1.436244    0.110214   -2.332557
     42          6           0       -0.010843    0.862950   -1.018641
     43          1           0        0.347758    1.888162   -0.897076
     44          6           0        0.929982    0.052816   -1.925042
     45          6           0       -0.133758    0.159393    0.351451
     46          1           0       -0.444622   -0.875508    0.157889
     47          1           0        0.867866    0.106866    0.798815
     48          8           0        0.467080   -0.728719   -2.760245
     49          6           0       -1.106887    0.807628    1.350634
     50          1           0       -2.079072    0.920644    0.853717
     51          6           0       -1.302873   -0.127744    2.551283
     52          1           0       -0.356552   -0.293095    3.081315
     53          1           0       -2.011231    0.301757    3.270148
     54          1           0       -1.687793   -1.105579    2.239553
     55          6           0       -0.630192    2.190766    1.810045
     56          1           0        0.353291    2.125496    2.292925
     57          1           0       -1.326822    2.613756    2.544963
     58          1           0       -0.566715    2.892594    0.974992
     59          7           0        2.241898    0.221965   -1.695231
     60          1           0        2.596754    0.901504   -1.028004
     61          6           0        3.278489   -0.494401   -2.415085
     62          1           0        2.982093   -1.542779   -2.516449
     63          6           0        4.551088   -0.357842   -1.573631
     64          6           0        3.496543    0.107926   -3.835250
     65          1           0        3.662267    1.183747   -3.714160
     66          1           0        2.557787   -0.028705   -4.381460
     67          8           0        4.713002    0.627751   -0.849661
     68          6           0        4.658294   -0.526580   -4.555216
     69          6           0        5.914472    0.095608   -4.575554
     70          1           0        6.023928    1.085953   -4.140426
     71          6           0        4.548711   -1.806304   -5.109372
     72          1           0        3.584308   -2.309600   -5.114803
     73          6           0        7.030014   -0.536064   -5.112703
     74          1           0        8.005451   -0.062191   -5.107402
     75          6           0        5.658638   -2.455739   -5.647597
     76          1           0        5.557299   -3.455149   -6.065134
     77          8           0        8.034251   -2.414595   -6.129413
     78          6           0        6.906660   -1.826168   -5.638455
     79          7           0        5.456974   -1.342958   -1.721082
     80          1           0        5.302230   -2.076134   -2.405150
     81          6           0        6.836862   -1.195017   -1.286673
     82          1           0        7.121397   -0.142864   -1.357028
     83          6           0        7.719007   -2.018960   -2.207518
     84          6           0        7.035440   -1.679869    0.180212
     85          1           0        6.626573   -0.894463    0.823014
     86          1           0        6.405620   -2.566185    0.321012
     87          8           0        8.940063   -1.512688   -2.300419
     88          6           0        8.491480   -2.010845    0.572503
     89          1           0        8.611696   -1.837363    1.647528
     90          1           0        9.168990   -1.312824    0.072061
     91          6           0        8.900519   -3.476801    0.259461
     92          1           0        8.782149   -4.071558    1.172349
     93          1           0        8.206797   -3.916858   -0.466045
     94          6           0       10.334195   -3.686344   -0.262984
     95          1           0       10.716249   -4.654495    0.089336
     96          1           0       11.002174   -2.914513    0.134692
     97          7           0       10.402533   -3.612050   -1.745083
     98          1           0       11.365374   -3.719266   -2.060632
     99          1           0        9.870235   -4.381962   -2.150765
    100          1           0        9.606319   -2.297830   -2.335815
    101          8           0        7.351904   -3.081930   -2.686273
    102          1           0        7.826639   -3.326145   -6.386530
 ---------------------------------------------------------------------

 SCF Done:  E(RB3LYP) =  -2312.32320784     A.U. after    1 cycles

 Alpha  occ. eigenvalues --  -19.27165 -19.22808 -19.22149 -19.21723 -19.20727
 Alpha  occ. eigenvalues --  -19.20328 -19.18225 -19.17298 -19.16917 -14.60145
 Alpha  occ. eigenvalues --  -14.49828 -14.45379 -14.44167 -14.42206 -14.40743
 Alpha  occ. eigenvalues --  -14.39841 -10.43848 -10.40852 -10.39171 -10.37402
 Alpha  occ. eigenvalues --  -10.35316 -10.35140 -10.34890 -10.34091 -10.33855
 Alpha  occ. eigenvalues --  -10.32800 -10.32405 -10.30784 -10.30377 -10.30157
 Alpha  occ. eigenvalues --  -10.29002 -10.28954 -10.27499 -10.27010 -10.26915
 Alpha  occ. eigenvalues --  -10.25417 -10.25160 -10.24222 -10.23765 -10.23490
 Alpha  occ. eigenvalues --  -10.23355 -10.23287 -10.23242 -10.23196 -10.23182
 Alpha  occ. eigenvalues --  -10.23075 -10.22763 -10.22470  -1.19698  -1.14837
 Alpha  occ. eigenvalues --   -1.13979  -1.12672  -1.12286  -1.10276  -1.09938
 Alpha  occ. eigenvalues --   -1.09861  -1.08698  -1.06529  -1.04149  -1.02461
 Alpha  occ. eigenvalues --   -1.00802  -0.98874  -0.97562  -0.95609  -0.95368
 Alpha  occ. eigenvalues --   -0.89808  -0.89022  -0.87947  -0.86224  -0.85128
 Alpha  occ. eigenvalues --   -0.84236  -0.83735  -0.81734  -0.81483  -0.79904
 Alpha  occ. eigenvalues --   -0.79011  -0.77306  -0.75992  -0.75761  -0.74479
 Alpha  occ. eigenvalues --   -0.74309  -0.74205  -0.73935  -0.72648  -0.71378
 Alpha  occ. eigenvalues --   -0.70186  -0.69437  -0.68439  -0.67465  -0.66898
 Alpha  occ. eigenvalues --   -0.66461  -0.66216  -0.65507  -0.64643  -0.63798
 Alpha  occ. eigenvalues --   -0.63478  -0.62821  -0.62525  -0.62074  -0.61661
 Alpha  occ. eigenvalues --   -0.61336  -0.60476  -0.59089  -0.58578  -0.58460
 Alpha  occ. eigenvalues --   -0.57581  -0.56948  -0.56530  -0.55951  -0.55422
 Alpha  occ. eigenvalues --   -0.55034  -0.54944  -0.54617  -0.54065  -0.53632
 Alpha  occ. eigenvalues --   -0.53405  -0.52888  -0.52398  -0.52322  -0.51540
 Alpha  occ. eigenvalues --   -0.51358  -0.51255  -0.51024  -0.50984  -0.50703
 Alpha  occ. eigenvalues --   -0.50279  -0.49828  -0.49726  -0.49372  -0.49112
 Alpha  occ. eigenvalues --   -0.48967  -0.48575  -0.48108  -0.47987  -0.47646
 Alpha  occ. eigenvalues --   -0.47529  -0.47522  -0.47362  -0.46839  -0.46559
 Alpha  occ. eigenvalues --   -0.46384  -0.46123  -0.45779  -0.45733  -0.45508
 Alpha  occ. eigenvalues --   -0.44954  -0.44654  -0.44549  -0.44392  -0.44299
 Alpha  occ. eigenvalues --   -0.43110  -0.42975  -0.42385  -0.41790  -0.41650
 Alpha  occ. eigenvalues --   -0.41587  -0.40991  -0.40680  -0.40537  -0.40258
 Alpha  occ. eigenvalues --   -0.39906  -0.39165  -0.38847  -0.38734  -0.38238
 Alpha  occ. eigenvalues --   -0.37920  -0.37781  -0.37522  -0.37076  -0.36945
 Alpha  occ. eigenvalues --   -0.36530  -0.35221  -0.34234  -0.33910  -0.33738
 Alpha  occ. eigenvalues --   -0.32526  -0.32098  -0.31701  -0.31443  -0.30512
 Alpha  occ. eigenvalues --   -0.29756  -0.29409  -0.25667
 Alpha virt. eigenvalues --   -0.12599  -0.11429  -0.08911  -0.07100  -0.06171
 Alpha virt. eigenvalues --   -0.04990  -0.04910  -0.04521  -0.03473  -0.02771
 Alpha virt. eigenvalues --   -0.02027  -0.01508  -0.00977  -0.00086   0.00780

 Mulliken charges:
               1
     1  N   -0.762465
     2  H    0.417058
     3  H    0.411917
     4  H    0.437216
     5  C   -0.105920
     6  H    0.211632
     7  C    0.650863
     8  C   -0.111989
     9  H    0.160037
    10  O   -0.544649
    11  C   -0.470707
    12  H    0.186650
    13  H    0.195839
    14  H    0.142498
    15  C   -0.482086
    16  H    0.190056
    17  H    0.166071
    18  H    0.190838
    19  N   -0.605822
    20  H    0.381248
    21  C   -0.089843
    22  H    0.202377
    23  C    0.619088
    24  C   -0.034174
    25  H    0.156300
    26  H    0.170454
    27  O   -0.543646
    28  O   -0.641944
    29  H    0.445952
    30  N   -0.583663
    31  H    0.353769
    32  C   -0.068739
    33  H    0.186111
    34  C    0.657082
    35  C   -0.473793
    36  H    0.183424
    37  H    0.174073
    38  H    0.181659
    39  O   -0.577224
    40  N   -0.586888
    41  H    0.360192
    42  C   -0.081253
    43  H    0.183605
    44  C    0.633963
    45  C   -0.252286
    46  H    0.147680
    47  H    0.149033
    48  O   -0.552313
    49  C   -0.084120
    50  H    0.143607
    51  C   -0.440576
    52  H    0.150072
    53  H    0.122003
    54  H    0.144503
    55  C   -0.462286
    56  H    0.142919
    57  H    0.124805
    58  H    0.177538
    59  N   -0.619472
    60  H    0.355813
    61  C   -0.034153
    62  H    0.173259
    63  C    0.608749
    64  C   -0.353177
    65  H    0.155358
    66  H    0.176942
    67  O   -0.552943
    68  C    0.146422
    69  C   -0.189074
    70  H    0.137754
    71  C   -0.212282
    72  H    0.135082
    73  C   -0.166529
    74  H    0.152842
    75  C   -0.179526
    76  H    0.125853
    77  O   -0.640051
    78  C    0.371810
    79  N   -0.605783
    80  H    0.358719
    81  C   -0.001561
    82  H    0.183248
    83  C    0.590681
    84  C   -0.279637
    85  H    0.167883
    86  H    0.148347
    87  O   -0.605394
    88  C   -0.286835
    89  H    0.143131
    90  H    0.169495
    91  C   -0.291910
    92  H    0.147558
    93  H    0.164702
    94  C   -0.140928
    95  H    0.144563
    96  H    0.162844
    97  N   -0.776378
    98  H    0.331166
    99  H    0.338553
   100  H    0.456688
   101  O   -0.517734
   102  H    0.410161
 Sum of Mulliken charges =   1.00000

 Dipole moment (field-independent basis, Debye):
    X=            -22.4668    Y=              2.8943    Z=             11.4508  Tot=             25.3822
 Quadrupole moment (field-independent basis, Debye-Ang):
   XX=             59.6880   YY=           -249.9814   ZZ=           -203.7191
   XY=           -116.8666   XZ=           -119.9062   YZ=             43.9831

 Normal termination of Gaussian 16 at Thu Jul 14 00:52:08 2022.
