 Gaussian 16, Revision C.01,
 Gaussian 16:  ES64L-G16RevC.01  3-Jul-2019

 ----------------------------------------------------------------------
 # B3LYP/6-31G* empiricaldispersion=gd3bj guess=read geom=check nosymm
 integral(ultrafinegrid)
 ----------------------------------------------------------------------

 ------------------------------------------------------
 Candidate Structure: Conf:962 Charge calc in gas phase
 ------------------------------------------------------
 Structure from the checkpoint file:  "conf-962.chk"
 Charge =  1 Multiplicity = 1

                          Input orientation:
 ---------------------------------------------------------------------
 Center     Atomic      Atomic             Coordinates (Angstroms)
 Number     Number       Type             X           Y           Z
 ---------------------------------------------------------------------
      1          7           0       -6.547136    3.188949   -1.158326
      2          1           0       -6.383981    4.195852   -1.126306
      3          1           0       -7.200738    3.005674   -1.917209
      4          1           0       -4.789385    2.735263   -1.032534
      5          6           0       -7.151022    2.810532    0.142421
      6          1           0       -8.084574    3.367397    0.320818
      7          6           0       -6.139153    3.352271    1.174668
      8          6           0       -7.487177    1.304952    0.182307
      9          1           0       -7.714294    1.058068    1.229251
     10          8           0       -5.765497    4.515904    1.079923
     11          6           0       -8.766896    1.018399   -0.618950
     12          1           0       -8.628891    1.230546   -1.686855
     13          1           0       -9.046135   -0.037076   -0.535326
     14          1           0       -9.609345    1.620030   -0.260495
     15          6           0       -6.343447    0.400566   -0.305899
     16          1           0       -6.198319    0.517026   -1.385048
     17          1           0       -5.391882    0.620105    0.182774
     18          1           0       -6.588206   -0.649225   -0.113669
     19          7           0       -5.657288    2.495780    2.115039
     20          1           0       -5.942872    1.524386    2.106088
     21          6           0       -4.320242    2.682337    2.658775
     22          1           0       -3.804129    3.425167    2.046501
     23          6           0       -3.647081    1.309279    2.553354
     24          6           0       -4.351706    3.171702    4.106470
     25          1           0       -4.907867    2.449494    4.722259
     26          1           0       -4.881769    4.133147    4.125741
     27          8           0       -4.303696    0.279845    2.736355
     28          8           0       -2.996957    3.293379    4.524656
     29          1           0       -2.986704    3.708842    5.399311
     30          7           0       -2.340488    1.283390    2.220850
     31          1           0       -1.810636    2.133620    2.077319
     32          6           0       -1.652160    0.025547    2.028145
     33          1           0       -1.818670   -0.609194    2.907581
     34          6           0       -0.167013    0.311623    1.861774
     35          6           0       -2.153991   -0.721997    0.771693
     36          1           0       -1.685413   -1.709078    0.683453
     37          1           0       -1.937997   -0.144318   -0.129516
     38          1           0       -3.231839   -0.862374    0.860588
     39          8           0        0.275448    1.425877    1.600722
     40          7           0        0.644597   -0.792125    1.951374
     41          1           0        0.191446   -1.696956    1.995543
     42          6           0        1.984323   -0.756217    1.372938
     43          1           0        2.290817    0.290072    1.409228
     44          6           0        1.903925   -1.198493   -0.099546
     45          6           0        2.969545   -1.621961    2.152907
     46          1           0        2.657807   -2.671256    2.047509
     47          1           0        3.945777   -1.522052    1.650860
     48          8           0        2.213278   -2.346050   -0.456228
     49          6           0        3.130552   -1.271923    3.638651
     50          1           0        2.162654   -1.434650    4.129223
     51          6           0        4.151121   -2.226077    4.272418
     52          1           0        5.144555   -2.096985    3.812269
     53          1           0        4.277315   -2.035408    5.342503
     54          1           0        3.839988   -3.276258    4.169568
     55          6           0        3.534478    0.191619    3.851398
     56          1           0        4.460879    0.428490    3.311776
     57          1           0        3.706829    0.394742    4.913174
     58          1           0        2.756198    0.879500    3.507595
     59          7           0        1.442121   -0.268537   -0.950734
     60          1           0        1.129960    0.625457   -0.584417
     61          6           0        1.271166   -0.532729   -2.377421
     62          1           0        0.567836   -1.365922   -2.497094
     63          6           0        2.646606   -0.887084   -2.972505
     64          6           0        0.727016    0.723140   -3.093480
     65          1           0        0.557641    0.446670   -4.139886
     66          1           0        1.528456    1.469012   -3.086612
     67          8           0        3.570017   -0.082118   -2.950357
     68          6           0       -0.528318    1.285074   -2.473902
     69          6           0       -1.801754    0.825767   -2.834167
     70          1           0       -1.897958    0.063702   -3.604652
     71          6           0       -0.445356    2.281509   -1.490392
     72          1           0        0.524907    2.691500   -1.216841
     73          6           0       -2.954439    1.332255   -2.234814
     74          1           0       -3.933784    0.964881   -2.527550
     75          6           0       -1.582371    2.784548   -0.872523
     76          1           0       -1.512739    3.563339   -0.120748
     77          8           0       -3.905460    2.827035   -0.573886
     78          6           0       -2.851776    2.314457   -1.237157
     79          7           0        2.746968   -2.126000   -3.523895
     80          1           0        1.994819   -2.781721   -3.366811
     81          6           0        4.012159   -2.641126   -4.011748
     82          1           0        4.601302   -1.763007   -4.303122
     83          6           0        3.848155   -3.496812   -5.265324
     84          6           0        4.784153   -3.429740   -2.933000
     85          1           0        4.098619   -4.191093   -2.535745
     86          1           0        5.607360   -3.963909   -3.417115
     87          8           0        4.702663   -4.248396   -5.675232
     88          6           0        5.304353   -2.522473   -1.812019
     89          1           0        4.516679   -1.840800   -1.490542
     90          1           0        6.116188   -1.896751   -2.197082
     91          6           0        5.811249   -3.275456   -0.570998
     92          1           0        6.678821   -3.903961   -0.810628
     93          1           0        6.147226   -2.527403    0.161542
     94          6           0        4.701770   -4.123859    0.047156
     95          1           0        4.600889   -5.101917   -0.426153
     96          1           0        3.738233   -3.604068    0.033107
     97          7           0        5.010697   -4.406003    1.517644
     98          1           0        4.339407   -5.064202    1.928095
     99          1           0        5.951318   -4.799623    1.637103
    100          1           0        4.958198   -3.541068    2.073112
    101          8           0        2.657287   -3.320377   -5.873965
    102          1           0        2.673516   -3.881623   -6.673348
 ---------------------------------------------------------------------

 SCF Done:  E(RB3LYP) =  -2312.30470207     A.U. after    1 cycles

 Alpha  occ. eigenvalues --  -19.28346 -19.22756 -19.22409 -19.21962 -19.20889
 Alpha  occ. eigenvalues --  -19.20324 -19.19939 -19.17860 -19.16297 -14.62703
 Alpha  occ. eigenvalues --  -14.46516 -14.46058 -14.45081 -14.42570 -14.40706
 Alpha  occ. eigenvalues --  -14.39450 -10.40745 -10.39225 -10.38653 -10.38646
 Alpha  occ. eigenvalues --  -10.37242 -10.34863 -10.33769 -10.33536 -10.33037
 Alpha  occ. eigenvalues --  -10.32750 -10.32480 -10.31606 -10.30747 -10.30373
 Alpha  occ. eigenvalues --  -10.29979 -10.29727 -10.28992 -10.28845 -10.28704
 Alpha  occ. eigenvalues --  -10.28320 -10.28187 -10.27004 -10.26788 -10.25588
 Alpha  occ. eigenvalues --  -10.25532 -10.25479 -10.25431 -10.25262 -10.24682
 Alpha  occ. eigenvalues --  -10.24135 -10.23486 -10.23028  -1.19261  -1.16734
 Alpha  occ. eigenvalues --   -1.14548  -1.13726  -1.12079  -1.10178  -1.10158
 Alpha  occ. eigenvalues --   -1.09502  -1.08334  -1.07470  -1.03397  -1.02291
 Alpha  occ. eigenvalues --   -1.01789  -0.99343  -0.97488  -0.95733  -0.93633
 Alpha  occ. eigenvalues --   -0.92596  -0.91632  -0.88527  -0.87312  -0.85921
 Alpha  occ. eigenvalues --   -0.85268  -0.83870  -0.83039  -0.80932  -0.80779
 Alpha  occ. eigenvalues --   -0.80193  -0.79167  -0.77974  -0.76574  -0.75315
 Alpha  occ. eigenvalues --   -0.74603  -0.74528  -0.74228  -0.73803  -0.72609
 Alpha  occ. eigenvalues --   -0.70578  -0.69945  -0.69449  -0.68732  -0.68216
 Alpha  occ. eigenvalues --   -0.67889  -0.67330  -0.66819  -0.65236  -0.65108
 Alpha  occ. eigenvalues --   -0.64729  -0.64036  -0.62863  -0.62665  -0.61865
 Alpha  occ. eigenvalues --   -0.60581  -0.60261  -0.60210  -0.59426  -0.58866
 Alpha  occ. eigenvalues --   -0.58090  -0.57335  -0.57063  -0.56862  -0.56738
 Alpha  occ. eigenvalues --   -0.55763  -0.55497  -0.55186  -0.54850  -0.54349
 Alpha  occ. eigenvalues --   -0.54249  -0.53973  -0.53919  -0.53431  -0.52912
 Alpha  occ. eigenvalues --   -0.52469  -0.52328  -0.51923  -0.51158  -0.50866
 Alpha  occ. eigenvalues --   -0.50468  -0.50211  -0.49999  -0.49886  -0.49605
 Alpha  occ. eigenvalues --   -0.49466  -0.49279  -0.48972  -0.48891  -0.48538
 Alpha  occ. eigenvalues --   -0.48286  -0.48133  -0.47978  -0.47742  -0.47602
 Alpha  occ. eigenvalues --   -0.47504  -0.46988  -0.46698  -0.46153  -0.45861
 Alpha  occ. eigenvalues --   -0.45345  -0.45053  -0.44887  -0.44715  -0.44495
 Alpha  occ. eigenvalues --   -0.44228  -0.43989  -0.43840  -0.43704  -0.43490
 Alpha  occ. eigenvalues --   -0.43371  -0.43116  -0.42696  -0.42081  -0.41904
 Alpha  occ. eigenvalues --   -0.41259  -0.40399  -0.40229  -0.39566  -0.39146
 Alpha  occ. eigenvalues --   -0.39058  -0.38643  -0.38538  -0.37565  -0.36913
 Alpha  occ. eigenvalues --   -0.36573  -0.35702  -0.34838  -0.34045  -0.33110
 Alpha  occ. eigenvalues --   -0.32992  -0.32824  -0.32190  -0.31832  -0.31232
 Alpha  occ. eigenvalues --   -0.30486  -0.29464  -0.27354
 Alpha virt. eigenvalues --   -0.13502  -0.09877  -0.07922  -0.07645  -0.07177
 Alpha virt. eigenvalues --   -0.06972  -0.06819  -0.06198  -0.04944  -0.04686
 Alpha virt. eigenvalues --   -0.04621  -0.02845  -0.02485  -0.01855  -0.01162

 Mulliken charges:
               1
     1  N   -0.778989
     2  H    0.349710
     3  H    0.321818
     4  H    0.460397
     5  C   -0.051113
     6  H    0.155969
     7  C    0.624209
     8  C   -0.111395
     9  H    0.142275
    10  O   -0.525814
    11  C   -0.456011
    12  H    0.138197
    13  H    0.158494
    14  H    0.155219
    15  C   -0.466206
    16  H    0.144976
    17  H    0.166398
    18  H    0.150856
    19  N   -0.626646
    20  H    0.360259
    21  C   -0.051379
    22  H    0.198426
    23  C    0.640833
    24  C   -0.031089
    25  H    0.139622
    26  H    0.159007
    27  O   -0.561166
    28  O   -0.632246
    29  H    0.404565
    30  N   -0.609407
    31  H    0.366672
    32  C   -0.020288
    33  H    0.177621
    34  C    0.614483
    35  C   -0.478676
    36  H    0.121686
    37  H    0.190830
    38  H    0.210966
    39  O   -0.527817
    40  N   -0.600847
    41  H    0.335705
    42  C   -0.085090
    43  H    0.211461
    44  C    0.648619
    45  C   -0.289411
    46  H    0.113701
    47  H    0.124620
    48  O   -0.574458
    49  C   -0.060837
    50  H    0.156232
    51  C   -0.469890
    52  H    0.126613
    53  H    0.190894
    54  H    0.112774
    55  C   -0.466198
    56  H    0.144015
    57  H    0.166057
    58  H    0.184597
    59  N   -0.609442
    60  H    0.377452
    61  C   -0.024795
    62  H    0.153186
    63  C    0.643046
    64  C   -0.407467
    65  H    0.171179
    66  H    0.192647
    67  O   -0.533730
    68  C    0.161973
    69  C   -0.194765
    70  H    0.126072
    71  C   -0.214174
    72  H    0.139263
    73  C   -0.193506
    74  H    0.139244
    75  C   -0.171384
    76  H    0.149013
    77  O   -0.691650
    78  C    0.366508
    79  N   -0.583637
    80  H    0.337352
    81  C   -0.070045
    82  H    0.225301
    83  C    0.586561
    84  C   -0.272056
    85  H    0.130602
    86  H    0.187167
    87  O   -0.452035
    88  C   -0.279367
    89  H    0.190359
    90  H    0.175010
    91  C   -0.301783
    92  H    0.170031
    93  H    0.153966
    94  C   -0.241995
    95  H    0.211454
    96  H    0.282516
    97  N   -0.750824
    98  H    0.420165
    99  H    0.417399
   100  H    0.426407
   101  O   -0.559886
   102  H    0.424866
 Sum of Mulliken charges =   1.00000

 Dipole moment (field-independent basis, Debye):
    X=             12.4923    Y=            -17.4668    Z=              5.1008  Tot=             22.0718
 Quadrupole moment (field-independent basis, Debye-Ang):
   XX=           -151.2684   YY=           -215.8094   ZZ=           -234.2566
   XY=            -86.0071   XZ=             45.5130   YZ=            -13.5383

 Normal termination of Gaussian 16 at Thu Jul 14 00:52:16 2022.
