 Gaussian 16, Revision C.01,
 Gaussian 16:  ES64L-G16RevC.01  3-Jul-2019

 ----------------------------------------------------------------------
 # B3LYP/6-31G* empiricaldispersion=gd3bj guess=read geom=check nosymm
 integral(ultrafinegrid)
 ----------------------------------------------------------------------

 ------------------------------------------------------
 Candidate Structure: Conf:404 Charge calc in gas phase
 ------------------------------------------------------
 Structure from the checkpoint file:  "conf-404.chk"
 Charge =  1 Multiplicity = 1

                          Input orientation:
 ---------------------------------------------------------------------
 Center     Atomic      Atomic             Coordinates (Angstroms)
 Number     Number       Type             X           Y           Z
 ---------------------------------------------------------------------
      1          7           0       -5.800410    4.958236    1.485264
      2          1           0       -6.313818    5.400935    2.250605
      3          1           0       -5.808104    5.575844    0.671646
      4          1           0       -4.824455    4.802266    1.802721
      5          6           0       -6.317296    3.588463    1.170751
      6          1           0       -7.399280    3.557751    1.335129
      7          6           0       -5.591247    2.683848    2.164669
      8          6           0       -6.032617    3.223054   -0.306416
      9          1           0       -6.524444    4.017575   -0.887559
     10          8           0       -4.459696    3.024190    2.537620
     11          6           0       -4.539256    3.240309   -0.655189
     12          1           0       -3.985633    2.470968   -0.116189
     13          1           0       -4.411346    3.060501   -1.726002
     14          1           0       -4.068674    4.201989   -0.426885
     15          6           0       -6.685739    1.893473   -0.688586
     16          1           0       -6.138517    1.049611   -0.258373
     17          1           0       -7.729258    1.835160   -0.361542
     18          1           0       -6.670134    1.774890   -1.774880
     19          7           0       -6.203440    1.559036    2.556889
     20          1           0       -7.097599    1.276230    2.171452
     21          6           0       -5.512619    0.531896    3.333760
     22          1           0       -4.816226    1.047962    3.999774
     23          6           0       -4.735692   -0.398338    2.380006
     24          6           0       -6.562080   -0.252357    4.114123
     25          1           0       -7.071054    0.416278    4.811991
     26          1           0       -6.078289   -1.055363    4.681753
     27          8           0       -5.085584   -1.564197    2.185443
     28          8           0       -7.544359   -0.754784    3.224644
     29          1           0       -7.077182   -1.431451    2.703829
     30          7           0       -3.695974    0.170561    1.743318
     31          1           0       -3.442424    1.142614    1.901958
     32          6           0       -2.937952   -0.545318    0.733528
     33          1           0       -2.745474   -1.554948    1.106604
     34          6           0       -1.633646    0.232235    0.538820
     35          6           0       -3.693118   -0.658259   -0.597791
     36          1           0       -3.077523   -1.159950   -1.349372
     37          1           0       -3.955238    0.334028   -0.975831
     38          1           0       -4.609256   -1.233353   -0.450801
     39          8           0       -1.612380    1.451115    0.705520
     40          7           0       -0.571931   -0.500808    0.148655
     41          1           0       -0.691249   -1.461089   -0.152502
     42          6           0        0.679811    0.094173   -0.290223
     43          1           0        0.490197    1.143740   -0.522464
     44          6           0        1.113847   -0.656613   -1.547498
     45          6           0        1.791982   -0.023147    0.765427
     46          1           0        1.900628   -1.086076    1.013718
     47          1           0        2.738944    0.274653    0.303313
     48          8           0        0.821741   -1.842118   -1.705115
     49          6           0        1.568058    0.781539    2.052635
     50          1           0        0.609021    0.477277    2.489485
     51          6           0        2.675864    0.442653    3.055145
     52          1           0        3.657173    0.709489    2.648561
     53          1           0        2.539202    0.988287    3.994084
     54          1           0        2.688436   -0.627959    3.286611
     55          6           0        1.521837    2.289272    1.791092
     56          1           0        2.465493    2.629786    1.348545
     57          1           0        1.378397    2.835426    2.729073
     58          1           0        0.702922    2.561134    1.121429
     59          7           0        1.846531    0.072554   -2.422138
     60          1           0        2.234355    0.926750   -2.045425
     61          6           0        2.719302   -0.585504   -3.392652
     62          1           0        2.118226   -1.292584   -3.966731
     63          6           0        3.799892   -1.365424   -2.614953
     64          6           0        3.330145    0.446409   -4.370985
     65          1           0        3.848125    1.225492   -3.800205
     66          1           0        2.505030    0.911226   -4.921746
     67          8           0        4.191438   -0.977891   -1.513087
     68          6           0        4.285468   -0.291787   -5.257632
     69          6           0        5.651293   -0.321956   -4.946216
     70          1           0        6.036665    0.360277   -4.189842
     71          6           0        3.798738   -1.173719   -6.234357
     72          1           0        2.740912   -1.138541   -6.498089
     73          6           0        6.494470   -1.258812   -5.507172
     74          1           0        7.531652   -1.347951   -5.204271
     75          6           0        4.611877   -2.144355   -6.791407
     76          1           0        4.229902   -2.887708   -7.482942
     77          8           0        6.654288   -3.331398   -6.631006
     78          6           0        5.981397   -2.287103   -6.371981
     79          7           0        4.226365   -2.502754   -3.212360
     80          1           0        3.982272   -2.674081   -4.181376
     81          6           0        5.232290   -3.371318   -2.614333
     82          1           0        5.698483   -2.815815   -1.800095
     83          6           0        6.308222   -3.698485   -3.650562
     84          6           0        4.563425   -4.638750   -2.069989
     85          1           0        4.155087   -5.214926   -2.906439
     86          1           0        5.322498   -5.263989   -1.584755
     87          8           0        7.488303   -3.511011   -3.467164
     88          6           0        3.450675   -4.275417   -1.089713
     89          1           0        2.720694   -3.636972   -1.597007
     90          1           0        3.863210   -3.675374   -0.269866
     91          6           0        2.733101   -5.499151   -0.531871
     92          1           0        2.348217   -6.104302   -1.363191
     93          1           0        3.428285   -6.132229    0.034369
     94          6           0        1.577829   -5.079260    0.356187
     95          1           0        0.887272   -4.437409   -0.197247
     96          1           0        1.935161   -4.516325    1.221927
     97          7           0        0.810823   -6.277185    0.859402
     98          1           0        0.021952   -6.019759    1.459290
     99          1           0        0.441943   -6.822508    0.075029
    100          1           0        1.422229   -6.898271    1.397413
    101          8           0        5.742184   -4.193649   -4.751661
    102          1           0        6.336576   -4.060950   -5.555863
 ---------------------------------------------------------------------

 SCF Done:  E(RB3LYP) =  -2312.18847041     A.U. after    1 cycles

 Alpha  occ. eigenvalues --  -19.28422 -19.24978 -19.23814 -19.21864 -19.19908
 Alpha  occ. eigenvalues --  -19.14615 -19.13324 -19.11438 -19.04466 -14.63725
 Alpha  occ. eigenvalues --  -14.63377 -14.51998 -14.47317 -14.45596 -14.42223
 Alpha  occ. eigenvalues --  -14.38020 -10.45366 -10.42614 -10.40762 -10.39222
 Alpha  occ. eigenvalues --  -10.38880 -10.36191 -10.36127 -10.36003 -10.34610
 Alpha  occ. eigenvalues --  -10.34266 -10.31831 -10.31500 -10.31270 -10.31152
 Alpha  occ. eigenvalues --  -10.30977 -10.29702 -10.28903 -10.26853 -10.25941
 Alpha  occ. eigenvalues --  -10.25567 -10.25466 -10.24737 -10.23615 -10.23566
 Alpha  occ. eigenvalues --  -10.23275 -10.21704 -10.19884 -10.17243 -10.16673
 Alpha  occ. eigenvalues --  -10.16603 -10.15016 -10.14184  -1.21428  -1.18017
 Alpha  occ. eigenvalues --   -1.17394  -1.15964  -1.13897  -1.12623  -1.11479
 Alpha  occ. eigenvalues --   -1.08151  -1.07032  -1.06247  -1.03930  -1.02191
 Alpha  occ. eigenvalues --   -0.99141  -0.98973  -0.97462  -0.95336  -0.94540
 Alpha  occ. eigenvalues --   -0.92904  -0.90890  -0.89029  -0.87665  -0.86310
 Alpha  occ. eigenvalues --   -0.85096  -0.84084  -0.83023  -0.82505  -0.79806
 Alpha  occ. eigenvalues --   -0.78565  -0.78523  -0.77914  -0.76699  -0.76393
 Alpha  occ. eigenvalues --   -0.76233  -0.75789  -0.74727  -0.74490  -0.72907
 Alpha  occ. eigenvalues --   -0.72079  -0.71840  -0.71780  -0.71020  -0.69653
 Alpha  occ. eigenvalues --   -0.69229  -0.68059  -0.67025  -0.65758  -0.65372
 Alpha  occ. eigenvalues --   -0.64812  -0.64205  -0.63789  -0.63333  -0.62603
 Alpha  occ. eigenvalues --   -0.61523  -0.61133  -0.60784  -0.60225  -0.60129
 Alpha  occ. eigenvalues --   -0.59133  -0.58792  -0.58335  -0.57941  -0.56755
 Alpha  occ. eigenvalues --   -0.56429  -0.56299  -0.55207  -0.54905  -0.54626
 Alpha  occ. eigenvalues --   -0.54156  -0.54049  -0.53803  -0.53616  -0.53548
 Alpha  occ. eigenvalues --   -0.53248  -0.53058  -0.52694  -0.52162  -0.51829
 Alpha  occ. eigenvalues --   -0.51225  -0.50744  -0.50488  -0.49907  -0.49614
 Alpha  occ. eigenvalues --   -0.49342  -0.49081  -0.48810  -0.48730  -0.48382
 Alpha  occ. eigenvalues --   -0.47832  -0.47365  -0.47105  -0.46823  -0.46058
 Alpha  occ. eigenvalues --   -0.45742  -0.45663  -0.45396  -0.45254  -0.44712
 Alpha  occ. eigenvalues --   -0.44469  -0.44346  -0.43517  -0.43264  -0.43046
 Alpha  occ. eigenvalues --   -0.42956  -0.42573  -0.42317  -0.42291  -0.40999
 Alpha  occ. eigenvalues --   -0.40239  -0.39816  -0.39574  -0.39491  -0.39245
 Alpha  occ. eigenvalues --   -0.39096  -0.38847  -0.38608  -0.38421  -0.37613
 Alpha  occ. eigenvalues --   -0.37404  -0.36790  -0.35821  -0.35414  -0.35143
 Alpha  occ. eigenvalues --   -0.34782  -0.33378  -0.32584  -0.32086  -0.31984
 Alpha  occ. eigenvalues --   -0.29829  -0.28791  -0.28025  -0.26596  -0.24364
 Alpha  occ. eigenvalues --   -0.22882  -0.19158  -0.16044
 Alpha virt. eigenvalues --   -0.15313  -0.14088  -0.13322  -0.10286  -0.08646
 Alpha virt. eigenvalues --   -0.07697  -0.07656  -0.07344  -0.06614  -0.05561
 Alpha virt. eigenvalues --   -0.04690  -0.03951  -0.02911  -0.02376  -0.01382

 Mulliken charges:
               1
     1  N   -0.737986
     2  H    0.426821
     3  H    0.420950
     4  H    0.436973
     5  C   -0.125457
     6  H    0.209376
     7  C    0.654661
     8  C   -0.110584
     9  H    0.160982
    10  O   -0.543427
    11  C   -0.479663
    12  H    0.204454
    13  H    0.193256
    14  H    0.138142
    15  C   -0.479638
    16  H    0.179120
    17  H    0.162984
    18  H    0.197462
    19  N   -0.587959
    20  H    0.364399
    21  C   -0.106376
    22  H    0.205282
    23  C    0.633124
    24  C   -0.050343
    25  H    0.167675
    26  H    0.171206
    27  O   -0.540892
    28  O   -0.634274
    29  H    0.424864
    30  N   -0.634126
    31  H    0.388788
    32  C   -0.029884
    33  H    0.165693
    34  C    0.619104
    35  C   -0.465403
    36  H    0.172828
    37  H    0.159255
    38  H    0.184238
    39  O   -0.538876
    40  N   -0.601191
    41  H    0.332032
    42  C   -0.090590
    43  H    0.181244
    44  C    0.637169
    45  C   -0.248259
    46  H    0.114627
    47  H    0.188543
    48  O   -0.570850
    49  C   -0.069673
    50  H    0.114654
    51  C   -0.440110
    52  H    0.162535
    53  H    0.146248
    54  H    0.124655
    55  C   -0.462443
    56  H    0.146548
    57  H    0.143072
    58  H    0.163172
    59  N   -0.579601
    60  H    0.338670
    61  C   -0.062807
    62  H    0.169844
    63  C    0.631443
    64  C   -0.360075
    65  H    0.136181
    66  H    0.139931
    67  O   -0.571775
    68  C    0.119815
    69  C   -0.177305
    70  H    0.099386
    71  C   -0.217174
    72  H    0.081114
    73  C   -0.207363
    74  H    0.130342
    75  C   -0.198366
    76  H    0.099194
    77  O   -0.701249
    78  C    0.386069
    79  N   -0.600195
    80  H    0.372553
    81  C   -0.032527
    82  H    0.182337
    83  C    0.600332
    84  C   -0.273490
    85  H    0.161008
    86  H    0.148024
    87  O   -0.485689
    88  C   -0.289793
    89  H    0.193994
    90  H    0.160823
    91  C   -0.288097
    92  H    0.160739
    93  H    0.160276
    94  C   -0.228230
    95  H    0.239396
    96  H    0.222779
    97  N   -0.721978
    98  H    0.421992
    99  H    0.426496
   100  H    0.426019
   101  O   -0.621197
   102  H    0.460024
 Sum of Mulliken charges =   1.00000

 Dipole moment (field-independent basis, Debye):
    X=            -41.8479    Y=              2.3038    Z=             24.4966  Tot=             48.5452
 Quadrupole moment (field-independent basis, Debye-Ang):
   XX=           -271.9680   YY=            -66.8936   ZZ=           -365.4302
   XY=            -74.0249   XZ=             87.7766   YZ=            -49.1945

 Normal termination of Gaussian 16 at Thu Jul 14 00:52:11 2022.
