 Gaussian 16, Revision C.01,
 Gaussian 16:  ES64L-G16RevC.01  3-Jul-2019

 ----------------------------------------------------------------------
 # B3LYP/6-31G* empiricaldispersion=gd3bj guess=read geom=check nosymm
 integral(ultrafinegrid)
 ----------------------------------------------------------------------

 ------------------------------------------------------
 Candidate Structure: Conf:472 Charge calc in gas phase
 ------------------------------------------------------
 Structure from the checkpoint file:  "conf-472.chk"
 Charge =  1 Multiplicity = 1

                          Input orientation:
 ---------------------------------------------------------------------
 Center     Atomic      Atomic             Coordinates (Angstroms)
 Number     Number       Type             X           Y           Z
 ---------------------------------------------------------------------
      1          7           0       -7.590917    0.858379    6.063695
      2          1           0       -7.447423    1.631401    6.717075
      3          1           0       -8.334870    0.255194    6.419123
      4          1           0       -7.869439    1.260560    5.149721
      5          6           0       -6.324847    0.107728    5.785068
      6          1           0       -5.730222    0.040575    6.701199
      7          6           0       -5.621610    0.965629    4.733974
      8          6           0       -6.617560   -1.331495    5.299297
      9          1           0       -7.134093   -1.815375    6.142107
     10          8           0       -6.327836    1.561102    3.916558
     11          6           0       -7.539761   -1.382066    4.075433
     12          1           0       -7.060858   -0.919999    3.208946
     13          1           0       -7.768200   -2.421400    3.828286
     14          1           0       -8.491713   -0.866812    4.242783
     15          6           0       -5.312209   -2.091956    5.041094
     16          1           0       -4.786343   -1.701184    4.165485
     17          1           0       -4.633834   -2.039013    5.900662
     18          1           0       -5.533681   -3.146415    4.858494
     19          7           0       -4.283724    1.020484    4.773700
     20          1           0       -3.764401    0.371590    5.354251
     21          6           0       -3.524576    1.590768    3.673813
     22          1           0       -3.994125    2.531423    3.378134
     23          6           0       -3.469245    0.632119    2.483149
     24          6           0       -2.082266    1.824083    4.154856
     25          1           0       -2.072182    2.592682    4.930921
     26          1           0       -1.463618    2.150772    3.308819
     27          8           0       -3.256825   -0.569441    2.662636
     28          8           0       -1.573227    0.640463    4.753862
     29          1           0       -1.613434   -0.059225    4.079447
     30          7           0       -3.580354    1.208130    1.258396
     31          1           0       -3.579742    2.220927    1.268611
     32          6           0       -2.820798    0.651055    0.134083
     33          1           0       -2.981093   -0.427896    0.139895
     34          6           0       -1.327574    0.961590    0.381766
     35          6           0       -3.287658    1.273932   -1.178128
     36          1           0       -2.793364    0.791480   -2.025464
     37          1           0       -3.031791    2.337857   -1.197892
     38          1           0       -4.368888    1.163617   -1.288284
     39          8           0       -0.989604    2.064292    0.823645
     40          7           0       -0.490635   -0.057849    0.089182
     41          1           0       -0.807713   -0.787011   -0.543661
     42          6           0        0.955438    0.071657    0.093069
     43          1           0        1.197960    1.128393    0.227622
     44          6           0        1.426988   -0.411612   -1.287092
     45          6           0        1.600342   -0.766928    1.208251
     46          1           0        1.418384   -1.826223    0.989041
     47          1           0        2.686316   -0.616756    1.169063
     48          8           0        0.689531   -1.108379   -1.984339
     49          6           0        1.098442   -0.445674    2.623001
     50          1           0        0.014292   -0.628663    2.636114
     51          6           0        1.744459   -1.384337    3.644462
     52          1           0        2.828938   -1.228055    3.680520
     53          1           0        1.345349   -1.199017    4.647712
     54          1           0        1.561745   -2.435704    3.396462
     55          6           0        1.345874    1.016829    3.002748
     56          1           0        2.418477    1.243496    2.980560
     57          1           0        0.977867    1.216794    4.014037
     58          1           0        0.836961    1.701777    2.321583
     59          7           0        2.676300   -0.063091   -1.634720
     60          1           0        3.261690    0.510814   -1.039978
     61          6           0        3.266300   -0.444105   -2.908308
     62          1           0        2.996227   -1.480756   -3.126063
     63          6           0        4.786879   -0.315619   -2.745149
     64          6           0        2.719563    0.423383   -4.082801
     65          1           0        2.909390    1.479928   -3.869698
     66          1           0        1.637175    0.261674   -4.100496
     67          8           0        5.265941    0.495811   -1.949647
     68          6           0        3.397729   -0.002730   -5.346514
     69          6           0        4.470180    0.738245   -5.862504
     70          1           0        4.686618    1.718748   -5.438157
     71          6           0        3.114653   -1.255124   -5.914348
     72          1           0        2.265404   -1.824370   -5.532579
     73          6           0        5.294583    0.222708   -6.841406
     74          1           0        6.172811    0.757587   -7.185503
     75          6           0        3.946947   -1.814571   -6.867549
     76          1           0        3.789147   -2.818968   -7.247463
     77          8           0        6.050980   -1.719859   -7.958601
     78          6           0        5.134426   -1.129061   -7.306928
     79          7           0        5.533630   -1.142079   -3.518774
     80          1           0        5.072420   -1.687487   -4.240795
     81          6           0        6.979496   -0.980042   -3.656933
     82          1           0        7.236595    0.023852   -3.314173
     83          6           0        7.389341   -1.092671   -5.127604
     84          6           0        7.766797   -2.011410   -2.838902
     85          1           0        7.499949   -3.019397   -3.172641
     86          1           0        8.830942   -1.867014   -3.063481
     87          8           0        8.155832   -0.319364   -5.654207
     88          6           0        7.535285   -1.868275   -1.337027
     89          1           0        6.485918   -2.069823   -1.102287
     90          1           0        7.724487   -0.831533   -1.034843
     91          6           0        8.433041   -2.812907   -0.538030
     92          1           0        8.240150   -3.850025   -0.842519
     93          1           0        9.486471   -2.603095   -0.764383
     94          6           0        8.200793   -2.674021    0.955717
     95          1           0        7.160288   -2.890660    1.209799
     96          1           0        8.421862   -1.657948    1.291646
     97          7           0        9.076627   -3.621831    1.738902
     98          1           0        8.933240   -3.543071    2.753863
     99          1           0        8.888758   -4.596076    1.471012
    100          1           0       10.070184   -3.439970    1.548785
    101          8           0        6.817469   -2.155512   -5.692138
    102          1           0        6.813552   -2.070390   -6.695957
 ---------------------------------------------------------------------

 SCF Done:  E(RB3LYP) =  -2312.18939007     A.U. after    1 cycles

 Alpha  occ. eigenvalues --  -19.26906 -19.24772 -19.22657 -19.19149 -19.16456
 Alpha  occ. eigenvalues --  -19.15256 -19.15032 -19.12266 -19.03669 -14.63129
 Alpha  occ. eigenvalues --  -14.62550 -14.50105 -14.45695 -14.42713 -14.40264
 Alpha  occ. eigenvalues --  -14.38379 -10.43826 -10.41269 -10.39357 -10.39282
 Alpha  occ. eigenvalues --  -10.36053 -10.34823 -10.34726 -10.33695 -10.33484
 Alpha  occ. eigenvalues --  -10.31811 -10.31472 -10.31431 -10.30710 -10.30479
 Alpha  occ. eigenvalues --  -10.29703 -10.29036 -10.26869 -10.25804 -10.25804
 Alpha  occ. eigenvalues --  -10.25465 -10.25433 -10.25182 -10.24175 -10.24033
 Alpha  occ. eigenvalues --  -10.22700 -10.19725 -10.18862 -10.16089 -10.15686
 Alpha  occ. eigenvalues --  -10.15457 -10.13939 -10.13238  -1.20128  -1.17320
 Alpha  occ. eigenvalues --   -1.16311  -1.14580  -1.12041  -1.10767  -1.08602
 Alpha  occ. eigenvalues --   -1.07963  -1.06651  -1.06522  -1.02384  -0.99723
 Alpha  occ. eigenvalues --   -0.99495  -0.96817  -0.96119  -0.95168  -0.93725
 Alpha  occ. eigenvalues --   -0.92968  -0.89438  -0.87901  -0.86369  -0.85267
 Alpha  occ. eigenvalues --   -0.84405  -0.82901  -0.81510  -0.81132  -0.79642
 Alpha  occ. eigenvalues --   -0.77595  -0.77466  -0.75762  -0.75740  -0.75692
 Alpha  occ. eigenvalues --   -0.75550  -0.74480  -0.74075  -0.73101  -0.71849
 Alpha  occ. eigenvalues --   -0.71319  -0.70967  -0.70624  -0.69943  -0.68392
 Alpha  occ. eigenvalues --   -0.67229  -0.67021  -0.65462  -0.64447  -0.64000
 Alpha  occ. eigenvalues --   -0.63675  -0.63521  -0.62960  -0.62309  -0.61541
 Alpha  occ. eigenvalues --   -0.61236  -0.60903  -0.60269  -0.59938  -0.59537
 Alpha  occ. eigenvalues --   -0.57846  -0.57189  -0.56929  -0.56496  -0.55488
 Alpha  occ. eigenvalues --   -0.54742  -0.54280  -0.54073  -0.53882  -0.53764
 Alpha  occ. eigenvalues --   -0.53541  -0.53221  -0.52765  -0.52268  -0.52048
 Alpha  occ. eigenvalues --   -0.51960  -0.51002  -0.50803  -0.50655  -0.50199
 Alpha  occ. eigenvalues --   -0.49849  -0.49729  -0.49070  -0.48907  -0.48551
 Alpha  occ. eigenvalues --   -0.48116  -0.47917  -0.47484  -0.47281  -0.46926
 Alpha  occ. eigenvalues --   -0.46637  -0.46312  -0.46213  -0.45685  -0.45203
 Alpha  occ. eigenvalues --   -0.44975  -0.44736  -0.44506  -0.44266  -0.43936
 Alpha  occ. eigenvalues --   -0.43867  -0.43684  -0.43351  -0.43042  -0.42064
 Alpha  occ. eigenvalues --   -0.41907  -0.41821  -0.41455  -0.41164  -0.40537
 Alpha  occ. eigenvalues --   -0.40507  -0.40047  -0.39172  -0.38952  -0.38746
 Alpha  occ. eigenvalues --   -0.38638  -0.38440  -0.37773  -0.37077  -0.36789
 Alpha  occ. eigenvalues --   -0.36587  -0.35484  -0.35336  -0.34038  -0.32871
 Alpha  occ. eigenvalues --   -0.32674  -0.31787  -0.31028  -0.30464  -0.30227
 Alpha  occ. eigenvalues --   -0.29593  -0.29018  -0.28598  -0.26615  -0.25028
 Alpha  occ. eigenvalues --   -0.21985  -0.17876  -0.14854
 Alpha virt. eigenvalues --   -0.13791  -0.13734  -0.12289  -0.09483  -0.07666
 Alpha virt. eigenvalues --   -0.07198  -0.07015  -0.05676  -0.05424  -0.03797
 Alpha virt. eigenvalues --   -0.03598  -0.02493  -0.01780  -0.01543  -0.00958

 Mulliken charges:
               1
     1  N   -0.737148
     2  H    0.425685
     3  H    0.419040
     4  H    0.432508
     5  C   -0.129185
     6  H    0.205988
     7  C    0.661327
     8  C   -0.106770
     9  H    0.155929
    10  O   -0.532155
    11  C   -0.468424
    12  H    0.201619
    13  H    0.195202
    14  H    0.127126
    15  C   -0.494125
    16  H    0.216905
    17  H    0.152177
    18  H    0.188911
    19  N   -0.580155
    20  H    0.362457
    21  C   -0.111178
    22  H    0.186441
    23  C    0.624178
    24  C   -0.078382
    25  H    0.174341
    26  H    0.209552
    27  O   -0.535755
    28  O   -0.633291
    29  H    0.428244
    30  N   -0.557385
    31  H    0.344155
    32  C   -0.075584
    33  H    0.185044
    34  C    0.609251
    35  C   -0.469252
    36  H    0.189897
    37  H    0.174310
    38  H    0.173090
    39  O   -0.543230
    40  N   -0.581539
    41  H    0.356682
    42  C   -0.091586
    43  H    0.188871
    44  C    0.631797
    45  C   -0.247757
    46  H    0.141884
    47  H    0.132152
    48  O   -0.548624
    49  C   -0.071631
    50  H    0.115047
    51  C   -0.443295
    52  H    0.130070
    53  H    0.147976
    54  H    0.138964
    55  C   -0.487063
    56  H    0.132334
    57  H    0.151952
    58  H    0.186482
    59  N   -0.621405
    60  H    0.342030
    61  C   -0.033415
    62  H    0.170202
    63  C    0.609317
    64  C   -0.343616
    65  H    0.137505
    66  H    0.156418
    67  O   -0.575073
    68  C    0.119942
    69  C   -0.185413
    70  H    0.094564
    71  C   -0.220175
    72  H    0.092554
    73  C   -0.214573
    74  H    0.123120
    75  C   -0.199169
    76  H    0.095639
    77  O   -0.697036
    78  C    0.387285
    79  N   -0.611446
    80  H    0.380055
    81  C   -0.029551
    82  H    0.183318
    83  C    0.602803
    84  C   -0.275112
    85  H    0.161519
    86  H    0.153939
    87  O   -0.480925
    88  C   -0.267068
    89  H    0.160296
    90  H    0.170629
    91  C   -0.289340
    92  H    0.162526
    93  H    0.165357
    94  C   -0.216104
    95  H    0.222369
    96  H    0.227539
    97  N   -0.707473
    98  H    0.411489
    99  H    0.412774
   100  H    0.414360
   101  O   -0.616554
   102  H    0.451824
 Sum of Mulliken charges =   1.00000

 Dipole moment (field-independent basis, Debye):
    X=            -11.2683    Y=             -9.7957    Z=             51.8117  Tot=             53.9202
 Quadrupole moment (field-independent basis, Debye-Ang):
   XX=            131.1198   YY=           -229.8838   ZZ=           -289.6512
   XY=           -132.8175   XZ=             20.7873   YZ=            -34.5240

 Normal termination of Gaussian 16 at Thu Jul 14 00:52:08 2022.
