 Gaussian 16, Revision C.01,
 Gaussian 16:  ES64L-G16RevC.01  3-Jul-2019

 ----------------------------------------------------------------------
 # B3LYP/6-31G* empiricaldispersion=gd3bj guess=read geom=check nosymm
 integral(ultrafinegrid)
 ----------------------------------------------------------------------

 ------------------------------------------------------
 Candidate Structure: Conf:315 Charge calc in gas phase
 ------------------------------------------------------
 Structure from the checkpoint file:  "conf-315.chk"
 Charge =  1 Multiplicity = 1

                          Input orientation:
 ---------------------------------------------------------------------
 Center     Atomic      Atomic             Coordinates (Angstroms)
 Number     Number       Type             X           Y           Z
 ---------------------------------------------------------------------
      1          7           0       -9.673647    3.897596    2.733383
      2          1           0       -9.695266    3.650992    3.724470
      3          1           0      -10.621490    3.828686    2.361570
      4          1           0       -9.364188    4.868733    2.649623
      5          6           0       -8.728955    3.041627    1.983499
      6          1           0       -8.930401    1.989847    2.220032
      7          6           0       -7.316836    3.388647    2.439574
      8          6           0       -8.872346    3.223004    0.459821
      9          1           0       -8.798541    4.298137    0.276209
     10          8           0       -6.970542    4.545794    2.636858
     11          6           0       -7.760901    2.525986   -0.324450
     12          1           0       -7.749216    1.453076   -0.103284
     13          1           0       -7.934767    2.645673   -1.396164
     14          1           0       -6.771309    2.933600   -0.103399
     15          6           0      -10.224524    2.716894   -0.036885
     16          1           0      -10.299430    1.640020    0.132357
     17          1           0      -11.073680    3.193678    0.453607
     18          1           0      -10.321094    2.899605   -1.109088
     19          7           0       -6.479249    2.325234    2.602807
     20          1           0       -6.745192    1.445984    2.182846
     21          6           0       -5.041204    2.496692    2.639394
     22          1           0       -4.804509    3.536893    2.404551
     23          6           0       -4.456300    1.546673    1.591881
     24          6           0       -4.496901    2.188113    4.032304
     25          1           0       -3.405110    2.222083    4.018583
     26          1           0       -4.805259    1.176547    4.324688
     27          8           0       -5.100773    0.613646    1.137656
     28          8           0       -4.924887    3.151037    4.978874
     29          1           0       -5.882155    3.084232    5.040154
     30          7           0       -3.176579    1.784214    1.235906
     31          1           0       -2.637323    2.552099    1.603287
     32          6           0       -2.489108    0.925199    0.298583
     33          1           0       -2.693626   -0.113698    0.566248
     34          6           0       -0.996074    1.238579    0.464467
     35          6           0       -2.958027    1.160422   -1.136583
     36          1           0       -2.406848    0.521687   -1.830659
     37          1           0       -2.805790    2.204187   -1.423038
     38          1           0       -4.019574    0.932317   -1.206747
     39          8           0       -0.618294    2.297438    0.940981
     40          7           0       -0.154695    0.268012    0.025287
     41          1           0       -0.503823   -0.470930   -0.568111
     42          6           0        1.264844    0.492930   -0.123309
     43          1           0        1.451988    1.569578   -0.123220
     44          6           0        1.658114   -0.116091   -1.475001
     45          6           0        2.100921   -0.163753    0.980110
     46          1           0        1.881160   -1.236048    0.977928
     47          1           0        3.157926   -0.055274    0.711254
     48          8           0        0.936297   -0.898954   -2.069251
     49          6           0        1.924849    0.363921    2.403410
     50          1           0        0.880760    0.245249    2.693450
     51          6           0        2.779286   -0.481671    3.343984
     52          1           0        3.835391   -0.378149    3.083853
     53          1           0        2.650427   -0.174235    4.383697
     54          1           0        2.518626   -1.540937    3.271980
     55          6           0        2.305226    1.836833    2.527217
     56          1           0        3.356228    1.974770    2.257800
     57          1           0        2.175797    2.174315    3.558665
     58          1           0        1.695389    2.472378    1.885520
     59          7           0        2.883946    0.228603   -1.927069
     60          1           0        3.479357    0.881920   -1.445556
     61          6           0        3.512416   -0.503001   -3.001958
     62          1           0        3.169546   -1.541526   -2.957951
     63          6           0        5.017273   -0.427828   -2.742714
     64          6           0        3.122084    0.055565   -4.380324
     65          1           0        2.044472   -0.087959   -4.469552
     66          1           0        3.611093   -0.550215   -5.148958
     67          8           0        5.499261    0.391558   -1.976558
     68          6           0        3.457443    1.494145   -4.544592
     69          6           0        2.509640    2.479912   -4.201886
     70          1           0        1.539098    2.160849   -3.830044
     71          6           0        4.724640    1.898343   -5.006653
     72          1           0        5.456965    1.131357   -5.253944
     73          6           0        2.783550    3.813048   -4.321098
     74          1           0        2.060425    4.576103   -4.064101
     75          6           0        5.056649    3.216152   -5.142490
     76          1           0        6.028024    3.530279   -5.499823
     77          8           0        4.355069    5.448782   -4.930009
     78          6           0        4.086860    4.255336   -4.808497
     79          7           0        5.768091   -1.323308   -3.420042
     80          1           0        5.351570   -1.947060   -4.091350
     81          6           0        7.198779   -1.417942   -3.221078
     82          1           0        7.567243   -0.426016   -2.943055
     83          6           0        7.827762   -1.837064   -4.530800
     84          6           0        7.589607   -2.411290   -2.111614
     85          1           0        7.261297   -3.415123   -2.391272
     86          1           0        8.678537   -2.433633   -2.053002
     87          8           0        7.238194   -2.292467   -5.477860
     88          6           0        6.995616   -2.018721   -0.768960
     89          1           0        5.913853   -1.975807   -0.857776
     90          1           0        7.322919   -1.005273   -0.516521
     91          6           0        7.362851   -2.952066    0.374069
     92          1           0        7.069324   -3.977569    0.130846
     93          1           0        8.448708   -2.952000    0.515824
     94          6           0        6.698771   -2.536386    1.680071
     95          1           0        6.866882   -1.465074    1.836711
     96          1           0        7.156601   -3.049222    2.528545
     97          7           0        5.236225   -2.794395    1.689820
     98          1           0        4.747080   -2.250435    2.401957
     99          1           0        4.814647   -2.546804    0.791419
    100          1           0        5.040572   -3.783607    1.847146
    101          8           0        9.164522   -1.667577   -4.510981
    102          1           0        9.481546   -1.976455   -5.369435
 ---------------------------------------------------------------------

 SCF Done:  E(RB3LYP) =  -2312.14032691     A.U. after    3 cycles

 Alpha  occ. eigenvalues --  -19.26586 -19.24542 -19.23170 -19.21454 -19.21317
 Alpha  occ. eigenvalues --  -19.20009 -19.18322 -19.18137 -19.03918 -14.61832
 Alpha  occ. eigenvalues --  -14.61025 -14.47611 -14.44671 -14.43265 -14.42782
 Alpha  occ. eigenvalues --  -14.41288 -10.41637 -10.39913 -10.39212 -10.38673
 Alpha  occ. eigenvalues --  -10.38255 -10.36766 -10.35014 -10.34927 -10.33683
 Alpha  occ. eigenvalues --  -10.32884 -10.32694 -10.31894 -10.31413 -10.31340
 Alpha  occ. eigenvalues --  -10.30526 -10.30374 -10.29214 -10.29063 -10.28180
 Alpha  occ. eigenvalues --  -10.27941 -10.27348 -10.27229 -10.27063 -10.25347
 Alpha  occ. eigenvalues --  -10.23747 -10.21012 -10.19219 -10.16460 -10.16440
 Alpha  occ. eigenvalues --  -10.16208 -10.14124 -10.14101  -1.18449  -1.18148
 Alpha  occ. eigenvalues --   -1.16350  -1.15617  -1.14043  -1.12366  -1.11166
 Alpha  occ. eigenvalues --   -1.10961  -1.10484  -1.09104  -1.04394  -1.01650
 Alpha  occ. eigenvalues --   -1.00428  -1.00070  -0.98505  -0.95566  -0.94826
 Alpha  occ. eigenvalues --   -0.93531  -0.90163  -0.88598  -0.88073  -0.86261
 Alpha  occ. eigenvalues --   -0.84782  -0.83674  -0.82560  -0.81963  -0.81141
 Alpha  occ. eigenvalues --   -0.79155  -0.76875  -0.76532  -0.76326  -0.75549
 Alpha  occ. eigenvalues --   -0.75091  -0.74697  -0.74463  -0.73332  -0.73182
 Alpha  occ. eigenvalues --   -0.72094  -0.71815  -0.70400  -0.69964  -0.69937
 Alpha  occ. eigenvalues --   -0.68873  -0.67590  -0.67086  -0.66376  -0.66003
 Alpha  occ. eigenvalues --   -0.65384  -0.65013  -0.64785  -0.63974  -0.62402
 Alpha  occ. eigenvalues --   -0.62236  -0.61160  -0.60113  -0.58962  -0.58469
 Alpha  occ. eigenvalues --   -0.57692  -0.57574  -0.57395  -0.56865  -0.56746
 Alpha  occ. eigenvalues --   -0.56540  -0.56098  -0.55800  -0.55134  -0.54695
 Alpha  occ. eigenvalues --   -0.54621  -0.54352  -0.53871  -0.53504  -0.53472
 Alpha  occ. eigenvalues --   -0.53126  -0.52459  -0.52352  -0.51970  -0.51497
 Alpha  occ. eigenvalues --   -0.51172  -0.50788  -0.50596  -0.50234  -0.50185
 Alpha  occ. eigenvalues --   -0.49892  -0.49700  -0.49489  -0.48846  -0.48529
 Alpha  occ. eigenvalues --   -0.48201  -0.47815  -0.47491  -0.47249  -0.46780
 Alpha  occ. eigenvalues --   -0.46699  -0.46334  -0.46290  -0.46090  -0.45735
 Alpha  occ. eigenvalues --   -0.45573  -0.45353  -0.45191  -0.44729  -0.44394
 Alpha  occ. eigenvalues --   -0.43798  -0.43639  -0.43559  -0.43179  -0.42505
 Alpha  occ. eigenvalues --   -0.42390  -0.41501  -0.41027  -0.40837  -0.40410
 Alpha  occ. eigenvalues --   -0.39564  -0.39240  -0.39201  -0.38953  -0.38453
 Alpha  occ. eigenvalues --   -0.36590  -0.35763  -0.35263  -0.35112  -0.34631
 Alpha  occ. eigenvalues --   -0.34393  -0.33994  -0.33378  -0.32865  -0.32811
 Alpha  occ. eigenvalues --   -0.32273  -0.31736  -0.31587  -0.30702  -0.27701
 Alpha  occ. eigenvalues --   -0.22720  -0.17323  -0.13701
 Alpha virt. eigenvalues --   -0.12979  -0.12270  -0.10869  -0.07414  -0.06709
 Alpha virt. eigenvalues --   -0.06523  -0.06288  -0.05948  -0.05669  -0.05321
 Alpha virt. eigenvalues --   -0.04301  -0.03295  -0.02993  -0.02622  -0.01035

 Mulliken charges:
               1
     1  N   -0.687835
     2  H    0.390198
     3  H    0.389798
     4  H    0.416786
     5  C   -0.138913
     6  H    0.197178
     7  C    0.586193
     8  C   -0.099764
     9  H    0.167727
    10  O   -0.507043
    11  C   -0.470840
    12  H    0.172092
    13  H    0.187378
    14  H    0.183237
    15  C   -0.465818
    16  H    0.173393
    17  H    0.130393
    18  H    0.200363
    19  N   -0.603866
    20  H    0.355752
    21  C   -0.100470
    22  H    0.208938
    23  C    0.622780
    24  C   -0.023492
    25  H    0.168661
    26  H    0.140569
    27  O   -0.542395
    28  O   -0.593972
    29  H    0.392741
    30  N   -0.617201
    31  H    0.361397
    32  C   -0.036087
    33  H    0.177336
    34  C    0.609715
    35  C   -0.456694
    36  H    0.173063
    37  H    0.172301
    38  H    0.180934
    39  O   -0.524223
    40  N   -0.610590
    41  H    0.354066
    42  C   -0.075038
    43  H    0.205892
    44  C    0.611457
    45  C   -0.256650
    46  H    0.115270
    47  H    0.115086
    48  O   -0.538800
    49  C   -0.063995
    50  H    0.146339
    51  C   -0.461809
    52  H    0.110084
    53  H    0.175392
    54  H    0.120844
    55  C   -0.464958
    56  H    0.137236
    57  H    0.149592
    58  H    0.200271
    59  N   -0.590404
    60  H    0.360528
    61  C   -0.048985
    62  H    0.139468
    63  C    0.641317
    64  C   -0.376678
    65  H    0.168124
    66  H    0.134801
    67  O   -0.544652
    68  C    0.141111
    69  C   -0.180024
    70  H    0.071324
    71  C   -0.174289
    72  H    0.071873
    73  C   -0.215521
    74  H    0.090276
    75  C   -0.214065
    76  H    0.096385
    77  O   -0.595358
    78  C    0.414598
    79  N   -0.620198
    80  H    0.351306
    81  C   -0.042396
    82  H    0.220645
    83  C    0.587062
    84  C   -0.271740
    85  H    0.147120
    86  H    0.177628
    87  O   -0.451413
    88  C   -0.272282
    89  H    0.120748
    90  H    0.186579
    91  C   -0.292636
    92  H    0.156349
    93  H    0.197342
    94  C   -0.217171
    95  H    0.224791
    96  H    0.216579
    97  N   -0.685637
    98  H    0.395370
    99  H    0.383752
   100  H    0.375639
   101  O   -0.563307
   102  H    0.426044
 Sum of Mulliken charges =   1.00000

 Dipole moment (field-independent basis, Debye):
    X=            -21.4867    Y=            -12.7727    Z=             24.5888  Tot=             35.0632
 Quadrupole moment (field-independent basis, Debye-Ang):
   XX=            178.0186   YY=           -286.2771   ZZ=           -310.0755
   XY=           -242.0411   XZ=            -12.2727   YZ=             66.6189

 Normal termination of Gaussian 16 at Thu Jul 14 00:52:53 2022.
