 Gaussian 16, Revision C.01,
 Gaussian 16:  ES64L-G16RevC.01  3-Jul-2019

 ----------------------------------------------------------------------
 # B3LYP/6-31G* empiricaldispersion=gd3bj guess=read geom=check nosymm
 integral(ultrafinegrid)
 ----------------------------------------------------------------------

 ------------------------------------------------------
 Candidate Structure: Conf:102 Charge calc in gas phase
 ------------------------------------------------------
 Structure from the checkpoint file:  "conf-102.chk"
 Charge =  1 Multiplicity = 1

                          Input orientation:
 ---------------------------------------------------------------------
 Center     Atomic      Atomic             Coordinates (Angstroms)
 Number     Number       Type             X           Y           Z
 ---------------------------------------------------------------------
      1          7           0       -6.437305    0.410263    5.539394
      2          1           0       -6.165730    1.121067    6.243357
      3          1           0       -7.157698   -0.216088    5.961510
      4          1           0       -6.845148    0.915436    4.725635
      5          6           0       -5.216519   -0.339613    4.965405
      6          1           0       -4.599301   -0.700721    5.792007
      7          6           0       -4.541022    0.739902    4.138821
      8          6           0       -5.709473   -1.536022    4.119181
      9          1           0       -6.409371   -1.136538    3.366712
     10          8           0       -5.282463    1.368361    3.357955
     11          6           0       -4.505199   -2.149030    3.386613
     12          1           0       -3.769297   -2.547189    4.099513
     13          1           0       -4.848131   -2.984792    2.769450
     14          1           0       -3.988403   -1.432042    2.742176
     15          6           0       -6.445764   -2.590741    4.972914
     16          1           0       -5.792539   -2.998328    5.757167
     17          1           0       -7.360124   -2.210914    5.462259
     18          1           0       -6.761775   -3.428403    4.343136
     19          7           0       -3.210390    0.970144    4.326019
     20          1           0       -2.625124    0.254512    4.748346
     21          6           0       -2.505646    1.849942    3.411988
     22          1           0       -3.141069    2.725254    3.230179
     23          6           0       -2.273559    1.129370    2.062783
     24          6           0       -1.203371    2.319640    4.073335
     25          1           0       -1.460535    2.952580    4.935936
     26          1           0       -0.624667    2.923251    3.358756
     27          8           0       -2.160239   -0.091415    2.012598
     28          8           0       -0.480337    1.161766    4.485422
     29          1           0        0.086286    1.413171    5.236031
     30          7           0       -2.271698    1.943389    0.977760
     31          1           0       -2.073604    2.934798    1.115030
     32          6           0       -1.953118    1.395106   -0.336350
     33          1           0       -2.569190    0.497720   -0.447470
     34          6           0       -0.463737    1.015636   -0.375901
     35          6           0       -2.271554    2.410211   -1.441602
     36          1           0       -2.066239    1.976427   -2.424832
     37          1           0       -1.644217    3.304643   -1.333162
     38          1           0       -3.325817    2.702775   -1.399656
     39          8           0        0.421364    1.842064   -0.126014
     40          7           0       -0.200261   -0.269615   -0.719386
     41          1           0       -0.978759   -0.920943   -0.737909
     42          6           0        1.141379   -0.835105   -0.641899
     43          1           0        1.692785   -0.163592    0.033032
     44          6           0        1.911701   -0.731903   -1.989548
     45          6           0        1.104414   -2.236639   -0.035865
     46          1           0        0.566810   -2.914951   -0.714890
     47          1           0        2.132047   -2.624895   -0.004489
     48          8           0        2.564249   -1.678256   -2.423080
     49          6           0        0.488839   -2.285345    1.390574
     50          1           0       -0.569524   -1.995257    1.334210
     51          6           0        0.575370   -3.722235    1.932201
     52          1           0        1.621656   -4.046875    2.035861
     53          1           0        0.101424   -3.803546    2.918849
     54          1           0        0.077927   -4.432352    1.260043
     55          6           0        1.150395   -1.295192    2.366442
     56          1           0        2.236126   -1.509921    2.465107
     57          1           0        0.724091   -1.384875    3.368966
     58          1           0        1.013868   -0.248112    2.071696
     59          7           0        1.837127    0.516411   -2.506151
     60          1           0        1.518767    1.197282   -1.810773
     61          6           0        2.840325    1.109147   -3.408246
     62          1           0        3.133774    0.391026   -4.175204
     63          6           0        4.075210    1.495910   -2.590475
     64          6           0        2.268802    2.396325   -4.057710
     65          1           0        1.803003    2.998383   -3.258912
     66          1           0        1.477352    2.084317   -4.758115
     67          8           0        3.929758    2.106188   -1.520188
     68          6           0        3.377020    3.210384   -4.693452
     69          6           0        4.044529    4.182541   -3.914462
     70          1           0        3.673624    4.391001   -2.911881
     71          6           0        3.888306    2.956561   -5.982282
     72          1           0        3.385925    2.216261   -6.614320
     73          6           0        5.168110    4.848197   -4.373989
     74          1           0        5.655547    5.601255   -3.756616
     75          6           0        5.020553    3.611805   -6.452498
     76          1           0        5.412966    3.396596   -7.444345
     77          8           0        6.826155    5.157430   -6.075682
     78          6           0        5.758100    4.587151   -5.670923
     79          7           0        5.270727    1.115956   -3.080598
     80          1           0        5.272978    0.691267   -4.008168
     81          6           0        6.570414    1.711859   -2.738827
     82          1           0        6.343306    2.585068   -2.129836
     83          6           0        7.162100    2.097554   -4.099366
     84          6           0        7.603935    0.791187   -1.999345
     85          1           0        8.121501    0.176033   -2.745316
     86          1           0        8.354349    1.444381   -1.535653
     87          8           0        6.970185    1.382146   -5.058561
     88          6           0        6.953416   -0.167894   -0.998275
     89          1           0        7.682829   -0.772324   -0.444189
     90          1           0        6.385334   -0.871037   -1.626693
     91          6           0        5.937109    0.536351   -0.091135
     92          1           0        6.372336    1.065603    0.773529
     93          1           0        5.446131    1.290748   -0.708648
     94          6           0        4.816992   -0.417861    0.269168
     95          1           0        5.019543   -1.172833    1.034925
     96          1           0        4.483749   -0.929544   -0.636235
     97          7           0        3.604984    0.430549    0.647972
     98          1           0        2.739802   -0.137740    0.698792
     99          1           0        3.737771    0.947748    1.529855
    100          1           0        3.492790    1.116898   -0.131984
    101          8           0        7.913332    3.200821   -4.068407
    102          1           0        8.184092    3.398029   -4.999718
 ---------------------------------------------------------------------

 SCF Done:  E(RB3LYP) =  -2312.17002342     A.U. after    3 cycles

 Alpha  occ. eigenvalues --  -19.28191 -19.26036 -19.24166 -19.23307 -19.22848
 Alpha  occ. eigenvalues --  -19.20796 -19.20665 -19.17850 -19.05307 -14.61882
 Alpha  occ. eigenvalues --  -14.55383 -14.50246 -14.48306 -14.47801 -14.43831
 Alpha  occ. eigenvalues --  -14.43595 -10.42969 -10.41023 -10.40993 -10.40029
 Alpha  occ. eigenvalues --  -10.37683 -10.37105 -10.36944 -10.36356 -10.36167
 Alpha  occ. eigenvalues --  -10.35191 -10.34774 -10.34597 -10.34442 -10.31717
 Alpha  occ. eigenvalues --  -10.29901 -10.29880 -10.29847 -10.29050 -10.28954
 Alpha  occ. eigenvalues --  -10.28572 -10.28205 -10.27418 -10.26653 -10.26578
 Alpha  occ. eigenvalues --  -10.25984 -10.23695 -10.20788 -10.18341 -10.18230
 Alpha  occ. eigenvalues --  -10.18089 -10.15821 -10.15775  -1.18401  -1.16314
 Alpha  occ. eigenvalues --   -1.15219  -1.14812  -1.14354  -1.14028  -1.12862
 Alpha  occ. eigenvalues --   -1.11903  -1.10385  -1.06286  -1.05743  -1.04688
 Alpha  occ. eigenvalues --   -1.04275  -1.00703  -0.99924  -0.95746  -0.93806
 Alpha  occ. eigenvalues --   -0.91611  -0.90532  -0.90002  -0.87993  -0.86553
 Alpha  occ. eigenvalues --   -0.85674  -0.84633  -0.84249  -0.81680  -0.81188
 Alpha  occ. eigenvalues --   -0.79005  -0.78402  -0.77805  -0.76479  -0.75691
 Alpha  occ. eigenvalues --   -0.74812  -0.74633  -0.74102  -0.73301  -0.72596
 Alpha  occ. eigenvalues --   -0.71982  -0.71444  -0.70500  -0.70398  -0.69589
 Alpha  occ. eigenvalues --   -0.69306  -0.67899  -0.67319  -0.66579  -0.66338
 Alpha  occ. eigenvalues --   -0.65689  -0.65244  -0.65197  -0.64184  -0.63794
 Alpha  occ. eigenvalues --   -0.63587  -0.62034  -0.61478  -0.60256  -0.59936
 Alpha  occ. eigenvalues --   -0.59417  -0.58980  -0.58301  -0.57918  -0.57606
 Alpha  occ. eigenvalues --   -0.57380  -0.57030  -0.56415  -0.55581  -0.55425
 Alpha  occ. eigenvalues --   -0.55265  -0.54976  -0.54272  -0.54093  -0.53685
 Alpha  occ. eigenvalues --   -0.53564  -0.52782  -0.52635  -0.52466  -0.52351
 Alpha  occ. eigenvalues --   -0.51759  -0.51698  -0.51662  -0.51610  -0.50937
 Alpha  occ. eigenvalues --   -0.50693  -0.49786  -0.49633  -0.49246  -0.49101
 Alpha  occ. eigenvalues --   -0.48907  -0.48787  -0.48407  -0.47946  -0.47696
 Alpha  occ. eigenvalues --   -0.47509  -0.47417  -0.47250  -0.47119  -0.47061
 Alpha  occ. eigenvalues --   -0.46655  -0.46561  -0.46432  -0.45933  -0.45119
 Alpha  occ. eigenvalues --   -0.44808  -0.43820  -0.43250  -0.43024  -0.42876
 Alpha  occ. eigenvalues --   -0.42563  -0.42098  -0.41594  -0.41235  -0.40529
 Alpha  occ. eigenvalues --   -0.40370  -0.40360  -0.40297  -0.40168  -0.39879
 Alpha  occ. eigenvalues --   -0.39242  -0.38321  -0.37739  -0.37321  -0.36381
 Alpha  occ. eigenvalues --   -0.35765  -0.35611  -0.35399  -0.34067  -0.33767
 Alpha  occ. eigenvalues --   -0.33264  -0.32480  -0.32368  -0.31708  -0.28692
 Alpha  occ. eigenvalues --   -0.23710  -0.18775  -0.15922
 Alpha virt. eigenvalues --   -0.15187  -0.11860  -0.10630  -0.09596  -0.07972
 Alpha virt. eigenvalues --   -0.07506  -0.07377  -0.06660  -0.06499  -0.05670
 Alpha virt. eigenvalues --   -0.04048  -0.03586  -0.03002  -0.02799  -0.02420

 Mulliken charges:
               1
     1  N   -0.730283
     2  H    0.401704
     3  H    0.395812
     4  H    0.424390
     5  C   -0.109703
     6  H    0.189187
     7  C    0.624300
     8  C   -0.091027
     9  H    0.170964
    10  O   -0.546883
    11  C   -0.489159
    12  H    0.150316
    13  H    0.179329
    14  H    0.213142
    15  C   -0.472868
    16  H    0.170407
    17  H    0.133318
    18  H    0.199787
    19  N   -0.593733
    20  H    0.360932
    21  C   -0.099512
    22  H    0.197963
    23  C    0.650793
    24  C   -0.051871
    25  H    0.161040
    26  H    0.162837
    27  O   -0.527136
    28  O   -0.619007
    29  H    0.416289
    30  N   -0.577958
    31  H    0.348159
    32  C   -0.056362
    33  H    0.170953
    34  C    0.646597
    35  C   -0.479534
    36  H    0.189648
    37  H    0.184257
    38  H    0.180641
    39  O   -0.563536
    40  N   -0.580488
    41  H    0.350651
    42  C   -0.070639
    43  H    0.077996
    44  C    0.615745
    45  C   -0.291528
    46  H    0.171807
    47  H    0.161896
    48  O   -0.510531
    49  C   -0.084031
    50  H    0.157019
    51  C   -0.445155
    52  H    0.149263
    53  H    0.144935
    54  H    0.156951
    55  C   -0.474420
    56  H    0.120091
    57  H    0.169466
    58  H    0.148636
    59  N   -0.603844
    60  H    0.365342
    61  C   -0.051108
    62  H    0.180052
    63  C    0.642758
    64  C   -0.359955
    65  H    0.141078
    66  H    0.151815
    67  O   -0.593973
    68  C    0.103432
    69  C   -0.191576
    70  H    0.094472
    71  C   -0.194223
    72  H    0.091770
    73  C   -0.218043
    74  H    0.097811
    75  C   -0.196549
    76  H    0.107006
    77  O   -0.656470
    78  C    0.407559
    79  N   -0.583730
    80  H    0.375539
    81  C   -0.053634
    82  H    0.204986
    83  C    0.620355
    84  C   -0.290949
    85  H    0.174722
    86  H    0.173561
    87  O   -0.468522
    88  C   -0.271701
    89  H    0.158308
    90  H    0.156983
    91  C   -0.326707
    92  H    0.153509
    93  H    0.221417
    94  C   -0.212625
    95  H    0.198217
    96  H    0.222518
    97  N   -0.799445
    98  H    0.417844
    99  H    0.395981
   100  H    0.447950
   101  O   -0.553349
   102  H    0.439564
 Sum of Mulliken charges =   1.00000

 Dipole moment (field-independent basis, Debye):
    X=            -24.9055    Y=             -8.4538    Z=             37.5336  Tot=             45.8315
 Quadrupole moment (field-independent basis, Debye-Ang):
   XX=           -171.6961   YY=           -328.2055   ZZ=           -226.1375
   XY=            -63.8234   XZ=            -28.2460   YZ=             74.2285

 Normal termination of Gaussian 16 at Thu Jul 14 00:53:19 2022.
