 Gaussian 16, Revision C.01,
 Gaussian 16:  ES64L-G16RevC.01  3-Jul-2019

 ----------------------------------------------------------------------
 # B3LYP/6-31G* empiricaldispersion=gd3bj guess=read geom=check nosymm
 integral(ultrafinegrid)
 ----------------------------------------------------------------------

 ------------------------------------------------------
 Candidate Structure: Conf:705 Charge calc in gas phase
 ------------------------------------------------------
 Structure from the checkpoint file:  "conf-705.chk"
 Charge =  1 Multiplicity = 1

                          Input orientation:
 ---------------------------------------------------------------------
 Center     Atomic      Atomic             Coordinates (Angstroms)
 Number     Number       Type             X           Y           Z
 ---------------------------------------------------------------------
      1          7           0       -1.295570    2.636124    1.680197
      2          1           0       -0.865137    4.162662    0.607791
      3          1           0       -0.713424    2.013115    1.117244
      4          1           0       -0.704968    2.869104    2.478540
      5          6           0       -2.449138    1.855809    2.147913
      6          1           0       -2.831078    2.337270    3.055789
      7          6           0       -1.999415    0.423320    2.500596
      8          6           0       -3.584680    1.884150    1.083996
      9          1           0       -3.577982    2.922400    0.731019
     10          8           0       -0.901185   -0.008795    2.146653
     11          6           0       -3.302661    0.959411   -0.104507
     12          1           0       -3.439534   -0.088452    0.174252
     13          1           0       -3.991765    1.170780   -0.928916
     14          1           0       -2.284610    1.048756   -0.485987
     15          6           0       -4.976759    1.607077    1.668931
     16          1           0       -5.114565    0.552988    1.939804
     17          1           0       -5.178075    2.224313    2.552699
     18          1           0       -5.746350    1.838646    0.925312
     19          7           0       -2.872614   -0.344859    3.198431
     20          1           0       -3.806004   -0.002037    3.378168
     21          6           0       -2.587703   -1.732410    3.547573
     22          1           0       -1.782980   -1.781595    4.287495
     23          6           0       -2.063470   -2.558813    2.357335
     24          6           0       -3.854105   -2.342588    4.148936
     25          1           0       -4.048390   -1.886293    5.130293
     26          1           0       -3.698111   -3.419314    4.292611
     27          8           0       -1.056108   -3.258995    2.482350
     28          8           0       -4.921553   -2.072308    3.241816
     29          1           0       -5.728667   -2.495917    3.570406
     30          7           0       -2.782566   -2.479923    1.216409
     31          1           0       -3.630742   -1.929080    1.225329
     32          6           0       -2.327612   -3.050693   -0.056603
     33          1           0       -1.922191   -4.044112    0.161415
     34          6           0       -1.190430   -2.149158   -0.585163
     35          6           0       -3.483433   -3.142705   -1.040594
     36          1           0       -3.149617   -3.614911   -1.968134
     37          1           0       -3.853427   -2.145710   -1.295566
     38          1           0       -4.297156   -3.739128   -0.617758
     39          8           0       -1.367271   -1.276208   -1.430850
     40          7           0        0.011961   -2.366649    0.021413
     41          1           0       -0.031130   -2.921011    0.877835
     42          6           0        0.998857   -1.292429   -0.005421
     43          1           0        0.455957   -0.344589    0.016062
     44          6           0        1.819652   -1.334810   -1.299995
     45          6           0        1.883349   -1.363771    1.239230
     46          1           0        1.213083   -1.294440    2.101953
     47          1           0        2.347986   -2.359744    1.288077
     48          8           0        2.802332   -2.093395   -1.470798
     49          6           0        2.957349   -0.264895    1.330452
     50          1           0        3.624159   -0.342010    0.461850
     51          6           0        2.344566    1.142236    1.285698
     52          1           0        1.543786    1.238468    2.027584
     53          1           0        3.107473    1.898731    1.495666
     54          1           0        1.940108    1.372280    0.296393
     55          6           0        3.786013   -0.460787    2.606521
     56          1           0        3.161733   -0.347002    3.500517
     57          1           0        4.596794    0.272470    2.669062
     58          1           0        4.234005   -1.465198    2.663270
     59          7           0        1.424827   -0.470892   -2.234370
     60          1           0        0.575399    0.048718   -2.039033
     61          6           0        2.221524   -0.049430   -3.368173
     62          1           0        2.307774   -0.869241   -4.091465
     63          6           0        3.632891    0.327989   -2.883717
     64          6           0        1.529247    1.168844   -4.057450
     65          1           0        0.680127    0.786143   -4.633599
     66          1           0        2.240872    1.592098   -4.774725
     67          8           0        3.854327    0.744317   -1.752138
     68          6           0        1.054418    2.200983   -3.062910
     69          6           0       -0.273007    2.182654   -2.615543
     70          1           0       -0.991709    1.511045   -3.081326
     71          6           0        1.937039    3.114104   -2.466732
     72          1           0        2.968317    3.162570   -2.802340
     73          6           0       -0.695980    3.008842   -1.575813
     74          1           0       -1.732761    3.006678   -1.260493
     75          6           0        1.530669    3.934564   -1.421039
     76          1           0        2.224186    4.618096   -0.942638
     77          8           0       -0.131460    4.621159    0.128269
     78          6           0        0.215578    3.861800   -0.938963
     79          7           0        4.608848    0.177440   -3.819726
     80          1           0        4.379106   -0.154647   -4.745993
     81          6           0        6.004423    0.420864   -3.494979
     82          1           0        6.000850    1.129473   -2.661161
     83          6           0        6.776648    1.068237   -4.633298
     84          6           0        6.745817   -0.861075   -3.033999
     85          1           0        6.954529   -1.502719   -3.900547
     86          1           0        7.714494   -0.555138   -2.625982
     87          8           0        7.943696    1.366786   -4.553246
     88          6           0        5.910456   -1.633469   -2.012511
     89          1           0        5.001467   -1.988782   -2.506397
     90          1           0        5.569067   -0.936047   -1.240148
     91          6           0        6.625870   -2.821799   -1.363163
     92          1           0        7.208491   -3.381374   -2.105171
     93          1           0        7.343366   -2.478690   -0.606328
     94          6           0        5.647178   -3.817742   -0.741952
     95          1           0        6.159736   -4.559035   -0.124420
     96          1           0        5.071026   -4.338108   -1.510977
     97          7           0        4.616317   -3.130741    0.127327
     98          1           0        4.153792   -3.801671    0.746005
     99          1           0        5.032891   -2.410266    0.724995
    100          1           0        3.833910   -2.663451   -0.464260
    101          8           0        6.032642    1.237792   -5.751085
    102          1           0        6.621624    1.638900   -6.419163
 ---------------------------------------------------------------------

 SCF Done:  E(RB3LYP) =  -2312.35266350     A.U. after    2 cycles

 Alpha  occ. eigenvalues --  -19.28640 -19.25647 -19.23341 -19.22347 -19.21545
 Alpha  occ. eigenvalues --  -19.21196 -19.20804 -19.20627 -19.20348 -14.55735
 Alpha  occ. eigenvalues --  -14.45639 -14.45633 -14.45609 -14.44987 -14.43520
 Alpha  occ. eigenvalues --  -14.41024 -10.40791 -10.39052 -10.38010 -10.37779
 Alpha  occ. eigenvalues --  -10.37686 -10.36752 -10.36702 -10.34087 -10.33086
 Alpha  occ. eigenvalues --  -10.33025 -10.32883 -10.31932 -10.31589 -10.30992
 Alpha  occ. eigenvalues --  -10.30766 -10.30764 -10.28556 -10.28310 -10.28290
 Alpha  occ. eigenvalues --  -10.27443 -10.27391 -10.27284 -10.26276 -10.26079
 Alpha  occ. eigenvalues --  -10.26033 -10.25824 -10.25613 -10.25574 -10.24943
 Alpha  occ. eigenvalues --  -10.24648 -10.24639 -10.24103  -1.19325  -1.14609
 Alpha  occ. eigenvalues --   -1.13661  -1.12780  -1.12564  -1.12393  -1.11609
 Alpha  occ. eigenvalues --   -1.10600  -1.10290  -1.10177  -1.02887  -1.02287
 Alpha  occ. eigenvalues --   -1.02249  -1.01205  -1.00406  -0.97959  -0.92142
 Alpha  occ. eigenvalues --   -0.91652  -0.89951  -0.88269  -0.88061  -0.86810
 Alpha  occ. eigenvalues --   -0.86396  -0.84670  -0.82812  -0.82280  -0.81187
 Alpha  occ. eigenvalues --   -0.79944  -0.77268  -0.76306  -0.76185  -0.75863
 Alpha  occ. eigenvalues --   -0.75176  -0.74417  -0.73366  -0.72563  -0.71057
 Alpha  occ. eigenvalues --   -0.70066  -0.69468  -0.69192  -0.68698  -0.68316
 Alpha  occ. eigenvalues --   -0.68279  -0.67459  -0.66766  -0.66047  -0.65528
 Alpha  occ. eigenvalues --   -0.65125  -0.64048  -0.62800  -0.62094  -0.61235
 Alpha  occ. eigenvalues --   -0.61194  -0.60906  -0.60056  -0.59929  -0.59495
 Alpha  occ. eigenvalues --   -0.59082  -0.58503  -0.57745  -0.57113  -0.56936
 Alpha  occ. eigenvalues --   -0.56815  -0.56382  -0.55930  -0.54947  -0.54600
 Alpha  occ. eigenvalues --   -0.54450  -0.54276  -0.54130  -0.53537  -0.53003
 Alpha  occ. eigenvalues --   -0.52669  -0.52322  -0.52035  -0.51916  -0.51663
 Alpha  occ. eigenvalues --   -0.51445  -0.51233  -0.50736  -0.50652  -0.50099
 Alpha  occ. eigenvalues --   -0.50048  -0.49873  -0.49320  -0.48988  -0.48879
 Alpha  occ. eigenvalues --   -0.48634  -0.48494  -0.48229  -0.47812  -0.47215
 Alpha  occ. eigenvalues --   -0.47024  -0.46872  -0.46789  -0.46544  -0.46406
 Alpha  occ. eigenvalues --   -0.46145  -0.45719  -0.45677  -0.45470  -0.45034
 Alpha  occ. eigenvalues --   -0.44882  -0.44762  -0.44731  -0.44122  -0.44033
 Alpha  occ. eigenvalues --   -0.43778  -0.43373  -0.43079  -0.41797  -0.41545
 Alpha  occ. eigenvalues --   -0.41412  -0.41237  -0.40817  -0.40728  -0.40540
 Alpha  occ. eigenvalues --   -0.40333  -0.39899  -0.38220  -0.37968  -0.37797
 Alpha  occ. eigenvalues --   -0.37021  -0.36650  -0.36321  -0.36028  -0.35157
 Alpha  occ. eigenvalues --   -0.34646  -0.34327  -0.33961  -0.33869  -0.33365
 Alpha  occ. eigenvalues --   -0.32360  -0.31527  -0.27993
 Alpha virt. eigenvalues --   -0.09097  -0.08801  -0.07974  -0.07768  -0.07354
 Alpha virt. eigenvalues --   -0.07028  -0.06702  -0.05864  -0.05660  -0.03487
 Alpha virt. eigenvalues --   -0.03320  -0.01855  -0.01656  -0.01197   0.00285

 Mulliken charges:
               1
     1  N   -0.757225
     2  H    0.437608
     3  H    0.347338
     4  H    0.329196
     5  C   -0.092498
     6  H    0.158225
     7  C    0.608322
     8  C   -0.068038
     9  H    0.161928
    10  O   -0.535542
    11  C   -0.473569
    12  H    0.127071
    13  H    0.157692
    14  H    0.175247
    15  C   -0.483459
    16  H    0.145073
    17  H    0.152342
    18  H    0.169571
    19  N   -0.618889
    20  H    0.359441
    21  C   -0.026189
    22  H    0.193018
    23  C    0.634746
    24  C   -0.090867
    25  H    0.161318
    26  H    0.174757
    27  O   -0.556919
    28  O   -0.628253
    29  H    0.420967
    30  N   -0.587194
    31  H    0.363201
    32  C   -0.055812
    33  H    0.179130
    34  C    0.627524
    35  C   -0.475599
    36  H    0.175786
    37  H    0.180274
    38  H    0.163565
    39  O   -0.532974
    40  N   -0.627394
    41  H    0.381905
    42  C   -0.057651
    43  H    0.191469
    44  C    0.693330
    45  C   -0.307673
    46  H    0.201287
    47  H    0.084310
    48  O   -0.617951
    49  C   -0.110961
    50  H    0.144044
    51  C   -0.460299
    52  H    0.147507
    53  H    0.152964
    54  H    0.171170
    55  C   -0.450017
    56  H    0.166263
    57  H    0.162473
    58  H    0.093658
    59  N   -0.585265
    60  H    0.389758
    61  C   -0.031298
    62  H    0.164733
    63  C    0.657713
    64  C   -0.401554
    65  H    0.177475
    66  H    0.173388
    67  O   -0.535047
    68  C    0.151632
    69  C   -0.232844
    70  H    0.149767
    71  C   -0.159751
    72  H    0.133444
    73  C   -0.201170
    74  H    0.150883
    75  C   -0.161695
    76  H    0.148474
    77  O   -0.672401
    78  C    0.346770
    79  N   -0.613941
    80  H    0.346120
    81  C   -0.064560
    82  H    0.219193
    83  C    0.595110
    84  C   -0.268775
    85  H    0.149746
    86  H    0.181827
    87  O   -0.444214
    88  C   -0.308300
    89  H    0.172762
    90  H    0.168777
    91  C   -0.291755
    92  H    0.182371
    93  H    0.166345
    94  C   -0.179728
    95  H    0.199190
    96  H    0.210887
    97  N   -0.794409
    98  H    0.400226
    99  H    0.403116
   100  H    0.476900
   101  O   -0.576577
   102  H    0.427929
 Sum of Mulliken charges =   1.00000

 Dipole moment (field-independent basis, Debye):
    X=              6.3208    Y=            -11.3527    Z=              1.1574  Tot=             13.0452
 Quadrupole moment (field-independent basis, Debye-Ang):
   XX=           -160.1668   YY=           -252.4654   ZZ=           -215.5906
   XY=            -35.0626   XZ=            -52.1784   YZ=             -4.6872

 Normal termination of Gaussian 16 at Thu Jul 14 00:52:52 2022.
