 Gaussian 16, Revision C.01,
 Gaussian 16:  ES64L-G16RevC.01  3-Jul-2019

 -------------------------------------------------------------------
 # B3LYP/6-31G* guess=read geom=check nosymm integral(ultrafinegrid)
 -------------------------------------------------------------------

 ------------------------------------------------------
 Candidate Structure: Conf:883 Charge calc in gas phase
 ------------------------------------------------------
 Structure from the checkpoint file:  "conf-883.chk"
 Charge =  1 Multiplicity = 1

                          Input orientation:
 ---------------------------------------------------------------------
 Center     Atomic      Atomic             Coordinates (Angstroms)
 Number     Number       Type             X           Y           Z
 ---------------------------------------------------------------------
      1          7           0       -8.016023   -1.134378   -8.189410
      2          1           0       -8.566400   -0.553334   -7.556759
      3          1           0       -8.604627   -1.856096   -8.608929
      4          1           0       -7.620263   -0.543964   -8.924891
      5          6           0       -6.894239   -1.781066   -7.485986
      6          1           0       -7.232236   -2.154604   -6.512019
      7          6           0       -5.783757   -0.754248   -7.301838
      8          6           0       -6.405667   -2.983602   -8.312815
      9          1           0       -6.039315   -2.603731   -9.268769
     10          8           0       -5.556677    0.096512   -8.156163
     11          6           0       -5.341648   -3.809617   -7.622994
     12          1           0       -4.440418   -3.226657   -7.420758
     13          1           0       -5.728261   -4.194544   -6.674123
     14          1           0       -5.071011   -4.657612   -8.254958
     15          8           0       -7.524059   -3.804643   -8.642144
     16          1           0       -7.762893   -4.294762   -7.852449
     17          7           0       -5.056540   -0.856299   -6.166787
     18          1           0       -5.111200   -1.665936   -5.564037
     19          6           0       -3.873915   -0.041058   -5.972294
     20          1           0       -3.375168    0.060336   -6.939284
     21          6           0       -2.983319   -0.813407   -5.007443
     22          6           0       -4.235986    1.381749   -5.485812
     23          1           0       -5.059966    1.674465   -6.144885
     24          8           0       -3.408517   -1.742208   -4.336573
     25          6           0       -3.120205    2.406648   -5.690314
     26          1           0       -2.329787    2.260132   -4.948499
     27          1           0       -3.556995    3.384703   -5.464510
     28          6           0       -4.714212    1.393790   -4.034067
     29          1           0       -3.887806    1.179625   -3.362862
     30          1           0       -5.494738    0.646790   -3.870546
     31          1           0       -5.115082    2.377170   -3.780594
     32          6           0       -2.542105    2.439323   -7.097527
     33          1           0       -1.957445    3.347514   -7.256594
     34          1           0       -3.342328    2.414085   -7.844862
     35          1           0       -1.880559    1.589281   -7.288812
     36          7           0       -1.689759   -0.394424   -4.946737
     37          1           0       -1.476912    0.506711   -5.332860
     38          6           0       -0.819934   -0.857827   -3.886823
     39          1           0       -1.054631   -1.910313   -3.724600
     40          6           0       -1.099996   -0.092946   -2.589441
     41          6           0        0.657982   -0.696694   -4.250662
     42          1           0        1.273082   -1.148884   -3.469198
     43          1           0        0.923534    0.357308   -4.305864
     44          1           0        0.872490   -1.170197   -5.208278
     45          8           0       -1.574398    1.029524   -2.564585
     46          7           0       -0.717128   -0.756083   -1.447509
     47          1           0       -0.149899   -1.571325   -1.616082
     48          6           0       -0.252293    0.031726   -0.314538
     49          1           0       -0.894956    0.908680   -0.243809
     50          6           0        1.193726    0.470421   -0.561507
     51          6           0       -0.329660   -0.760587    0.990132
     52          1           0        0.152192   -0.188417    1.787551
     53          1           0        0.220267   -1.696866    0.874078
     54          8           0        1.995260   -0.251724   -1.138966
     55          6           0       -1.776531   -1.026559    1.399923
     56          1           0       -2.323586   -1.560319    0.618393
     57          1           0       -1.796321   -1.656965    2.293295
     58          6           0       -2.495551    0.270508    1.745958
     59          7           0       -3.851841    0.231409    1.617915
     60          1           0       -4.341289   -0.584013    1.298376
     61          1           0       -4.363831    1.066116    1.841107
     62          8           0       -1.906907    1.262778    2.140995
     63          7           0        1.513740    1.697417   -0.068054
     64          1           0        0.928710    2.117407    0.638779
     65          6           0        2.885740    2.148142   -0.050845
     66          1           0        3.513764    1.305398   -0.340653
     67          6           0        3.194783    2.611736    1.376397
     68          6           0        3.120873    3.308153   -1.030335
     69          1           0        4.151547    3.657086   -0.914938
     70          1           0        2.466920    4.132123   -0.732578
     71          8           0        2.317864    2.985712    2.135642
     72          6           0        2.876203    2.951075   -2.462616
     73          6           0        3.943532    2.666741   -3.330057
     74          1           0        4.957390    2.682255   -2.944442
     75          6           0        1.572924    2.919708   -2.980561
     76          1           0        0.735355    3.094218   -2.313793
     77          6           0        3.749000    2.377521   -4.660700
     78          1           0        4.575205    2.152946   -5.322494
     79          6           0        1.334490    2.697758   -4.319198
     80          1           0        0.334068    2.687072   -4.726632
     81          8           0        2.212336    2.116337   -6.428030
     82          6           0        2.414424    2.380349   -5.238016
     83          7           0        4.503415    2.636964    1.711546
     84          1           0        5.237260    2.368080    1.075653
     85          6           0        4.940478    3.123702    2.999653
     86          1           0        4.400358    4.046231    3.225844
     87          6           0        6.441560    3.405091    2.859606
     88          6           0        4.658997    2.115258    4.113395
     89          1           0        5.011725    2.500677    5.072364
     90          1           0        3.586167    1.936459    4.168913
     91          1           0        5.163172    1.167539    3.908696
     92          8           0        7.100682    2.929873    1.951739
     93          7           0        6.970239    4.197933    3.826063
     94          1           0        6.413928    4.453167    4.627821
     95          6           0        8.401216    4.365033    3.961952
     96          1           0        8.896183    3.559629    3.410635
     97          6           0        8.756722    4.251612    5.428148
     98          6           0        8.909166    5.706925    3.414690
     99          1           0        9.973590    5.766055    3.638352
    100          1           0        8.421043    6.523501    3.953387
    101          8           0        7.974676    4.325203    6.342587
    102          6           0        8.672063    5.840140    1.919502
    103          1           0        7.606959    5.788602    1.696481
    104          1           0        9.139206    4.998425    1.412090
    105          6           0        9.214581    7.137007    1.332964
    106          1           0        8.690638    7.990047    1.769304
    107          1           0        9.020394    7.178284    0.257037
    108          7           0       10.649220    7.381889    1.574681
    109          1           0       10.862475    7.797525    2.469711
    110          7           0       11.320620    5.679298    0.131924
    111          1           0       12.066681    5.277898   -0.412887
    112          1           0       10.436370    5.764850   -0.341598
    113          7           0       12.872037    6.699424    1.566360
    114          1           0       13.618732    6.294750    1.020906
    115          1           0       13.115088    7.558089    2.042139
    116          6           0       11.612261    6.597253    1.074022
    117          8           0       10.081558    4.082265    5.606288
    118          1           0       10.217214    4.045016    6.561496
 ---------------------------------------------------------------------

 SCF Done:  E(RB3LYP) =  -2837.50588067     A.U. after    3 cycles

 Alpha  occ. eigenvalues --  -19.28869 -19.28029 -19.23767 -19.22592 -19.18951
 Alpha  occ. eigenvalues --  -19.18166 -19.15105 -19.14404 -19.14190 -19.13043
 Alpha  occ. eigenvalues --  -19.02726 -14.61211 -14.50120 -14.50111 -14.50052
 Alpha  occ. eigenvalues --  -14.46284 -14.43434 -14.40573 -14.38975 -14.38933
 Alpha  occ. eigenvalues --  -14.38347 -14.36745 -10.44601 -10.40966 -10.40418
 Alpha  occ. eigenvalues --  -10.39569 -10.38230 -10.35629 -10.34689 -10.34337
 Alpha  occ. eigenvalues --  -10.32182 -10.31886 -10.31525 -10.31044 -10.29875
 Alpha  occ. eigenvalues --  -10.29854 -10.29607 -10.28626 -10.28367 -10.28314
 Alpha  occ. eigenvalues --  -10.26267 -10.25016 -10.24800 -10.23833 -10.22681
 Alpha  occ. eigenvalues --  -10.22591 -10.22117 -10.22081 -10.21575 -10.21023
 Alpha  occ. eigenvalues --  -10.18967 -10.18818 -10.18041 -10.15127 -10.14878
 Alpha  occ. eigenvalues --  -10.14692 -10.12922 -10.12815  -1.19513  -1.18606
 Alpha  occ. eigenvalues --   -1.16180  -1.14781  -1.14510  -1.11586  -1.10543
 Alpha  occ. eigenvalues --   -1.10419  -1.07242  -1.07097  -1.06377  -1.05057
 Alpha  occ. eigenvalues --   -1.04379  -1.03455  -1.02827  -1.00729  -0.97587
 Alpha  occ. eigenvalues --   -0.96309  -0.95413  -0.93880  -0.93747  -0.93466
 Alpha  occ. eigenvalues --   -0.92909  -0.90489  -0.87381  -0.85890  -0.84705
 Alpha  occ. eigenvalues --   -0.83437  -0.82125  -0.80877  -0.80855  -0.79410
 Alpha  occ. eigenvalues --   -0.79040  -0.77390  -0.77307  -0.76508  -0.76124
 Alpha  occ. eigenvalues --   -0.75208  -0.74308  -0.72817  -0.72637  -0.71857
 Alpha  occ. eigenvalues --   -0.71162  -0.70281  -0.70121  -0.69995  -0.68290
 Alpha  occ. eigenvalues --   -0.68010  -0.67487  -0.67243  -0.66972  -0.66591
 Alpha  occ. eigenvalues --   -0.65780  -0.64507  -0.63287  -0.63209  -0.62752
 Alpha  occ. eigenvalues --   -0.62315  -0.62291  -0.62202  -0.61374  -0.60992
 Alpha  occ. eigenvalues --   -0.60575  -0.60172  -0.59722  -0.59304  -0.57956
 Alpha  occ. eigenvalues --   -0.57804  -0.57253  -0.57144  -0.56793  -0.56618
 Alpha  occ. eigenvalues --   -0.56481  -0.56028  -0.55748  -0.55371  -0.55215
 Alpha  occ. eigenvalues --   -0.54052  -0.53331  -0.53096  -0.52726  -0.52513
 Alpha  occ. eigenvalues --   -0.52371  -0.52247  -0.51991  -0.51765  -0.51027
 Alpha  occ. eigenvalues --   -0.50576  -0.50384  -0.50168  -0.49814  -0.49602
 Alpha  occ. eigenvalues --   -0.49174  -0.49103  -0.48085  -0.47801  -0.47480
 Alpha  occ. eigenvalues --   -0.47266  -0.47155  -0.46914  -0.46667  -0.46322
 Alpha  occ. eigenvalues --   -0.46230  -0.46063  -0.45762  -0.45261  -0.44763
 Alpha  occ. eigenvalues --   -0.44508  -0.44496  -0.44109  -0.43941  -0.43752
 Alpha  occ. eigenvalues --   -0.43140  -0.42878  -0.42765  -0.42480  -0.42176
 Alpha  occ. eigenvalues --   -0.42145  -0.41861  -0.41493  -0.41292  -0.41194
 Alpha  occ. eigenvalues --   -0.40772  -0.40496  -0.40380  -0.40324  -0.40018
 Alpha  occ. eigenvalues --   -0.39447  -0.39396  -0.39107  -0.38820  -0.38769
 Alpha  occ. eigenvalues --   -0.38354  -0.38219  -0.37906  -0.37540  -0.37244
 Alpha  occ. eigenvalues --   -0.36989  -0.36560  -0.36319  -0.35955  -0.34840
 Alpha  occ. eigenvalues --   -0.34699  -0.33521  -0.33063  -0.32697  -0.32228
 Alpha  occ. eigenvalues --   -0.31348  -0.31244  -0.30497  -0.30047  -0.29833
 Alpha  occ. eigenvalues --   -0.28934  -0.28580  -0.28133  -0.28076  -0.27083
 Alpha  occ. eigenvalues --   -0.26260  -0.25671  -0.21160  -0.16430  -0.12705
 Alpha virt. eigenvalues --   -0.11767  -0.11491  -0.09770  -0.07674  -0.07391
 Alpha virt. eigenvalues --   -0.05295  -0.04907  -0.04326  -0.03790  -0.03642
 Alpha virt. eigenvalues --   -0.02745  -0.01912  -0.01787  -0.01589  -0.01275

 Mulliken charges:
               1
     1  N   -0.712575
     2  H    0.428176
     3  H    0.421408
     4  H    0.425229
     5  C   -0.159820
     6  H    0.197602
     7  C    0.627288
     8  C    0.113536
     9  H    0.193241
    10  O   -0.515184
    11  C   -0.486786
    12  H    0.200557
    13  H    0.157883
    14  H    0.211185
    15  O   -0.611318
    16  H    0.410372
    17  N   -0.603846
    18  H    0.354389
    19  C   -0.073610
    20  H    0.196362
    21  C    0.615292
    22  C   -0.077180
    23  H    0.134278
    24  O   -0.550924
    25  C   -0.297318
    26  H    0.189425
    27  H    0.148093
    28  C   -0.478710
    29  H    0.211152
    30  H    0.116947
    31  H    0.151347
    32  C   -0.471374
    33  H    0.181280
    34  H    0.145033
    35  H    0.155116
    36  N   -0.590254
    37  H    0.369818
    38  C   -0.088940
    39  H    0.166031
    40  C    0.633889
    41  C   -0.487837
    42  H    0.179777
    43  H    0.232003
    44  H    0.160384
    45  O   -0.514083
    46  N   -0.580802
    47  H    0.330974
    48  C   -0.097180
    49  H    0.202143
    50  C    0.622760
    51  C   -0.268812
    52  H    0.178577
    53  H    0.142723
    54  O   -0.534158
    55  C   -0.365741
    56  H    0.154382
    57  H    0.171485
    58  C    0.603576
    59  N   -0.747051
    60  H    0.334222
    61  H    0.342339
    62  O   -0.508226
    63  N   -0.593580
    64  H    0.356934
    65  C   -0.058015
    66  H    0.179096
    67  C    0.617937
    68  C   -0.352639
    69  H    0.114396
    70  H    0.139465
    71  O   -0.538427
    72  C    0.155106
    73  C   -0.174067
    74  H    0.062186
    75  C   -0.170114
    76  H    0.100189
    77  C   -0.219305
    78  H    0.082808
    79  C   -0.261081
    80  H    0.071381
    81  O   -0.635429
    82  C    0.426918
    83  N   -0.624283
    84  H    0.353887
    85  C   -0.030319
    86  H    0.174581
    87  C    0.609478
    88  C   -0.452072
    89  H    0.141469
    90  H    0.204928
    91  H    0.160950
    92  O   -0.530614
    93  N   -0.613182
    94  H    0.356279
    95  C   -0.043439
    96  H    0.207447
    97  C    0.578647
    98  C   -0.276722
    99  H    0.150538
   100  H    0.153978
   101  O   -0.450792
   102  C   -0.274868
   103  H    0.190945
   104  H    0.172951
   105  C   -0.203471
   106  H    0.193036
   107  H    0.184916
   108  N   -0.569853
   109  H    0.355707
   110  N   -0.729515
   111  H    0.369074
   112  H    0.382821
   113  N   -0.740927
   114  H    0.364668
   115  H    0.367384
   116  C    0.714166
   117  O   -0.565092
   118  H    0.424995
 Sum of Mulliken charges =   1.00000

 Dipole moment (field-independent basis, Debye):
    X=              7.1496    Y=             10.4561    Z=             -7.9354  Tot=             14.9472
 Quadrupole moment (field-independent basis, Debye-Ang):
   XX=            411.8308   YY=           -162.1080   ZZ=           -187.8627
   XY=            334.4484   XZ=            324.4648   YZ=            119.4128

 Normal termination of Gaussian 16 at Sat Jul  2 15:35:42 2022.
