 Gaussian 16, Revision C.01,
 Gaussian 16:  ES64L-G16RevC.01  3-Jul-2019

 -------------------------------------------------------------------
 # B3LYP/6-31G* guess=read geom=check nosymm integral(ultrafinegrid)
 -------------------------------------------------------------------

 ------------------------------------------------------
 Candidate Structure: Conf:197 Charge calc in gas phase
 ------------------------------------------------------
 Structure from the checkpoint file:  "conf-197.chk"
 Charge =  1 Multiplicity = 1

                          Input orientation:
 ---------------------------------------------------------------------
 Center     Atomic      Atomic             Coordinates (Angstroms)
 Number     Number       Type             X           Y           Z
 ---------------------------------------------------------------------
      1          7           0       -8.546305   -4.242942   -7.541407
      2          1           0       -8.949528   -5.156242   -7.316656
      3          1           0       -8.640556   -4.052997   -8.554698
      4          1           0       -9.004739   -3.517636   -6.933958
      5          6           0       -7.088876   -4.126953   -7.186464
      6          1           0       -6.642793   -5.124683   -7.196599
      7          6           0       -7.100158   -3.472735   -5.781757
      8          6           0       -6.432880   -3.207195   -8.268402
      9          1           0       -6.728381   -2.175239   -8.046343
     10          8           0       -8.129950   -2.867990   -5.451730
     11          6           0       -4.915072   -3.324020   -8.306907
     12          1           0       -4.455116   -3.041773   -7.355001
     13          1           0       -4.605485   -4.351048   -8.541797
     14          1           0       -4.520318   -2.657127   -9.078767
     15          8           0       -7.041568   -3.505762   -9.527725
     16          1           0       -6.477209   -4.122740  -10.022952
     17          7           0       -5.984832   -3.587336   -5.072367
     18          1           0       -5.140234   -4.022260   -5.452504
     19          6           0       -5.692976   -2.864655   -3.830578
     20          1           0       -6.195616   -1.894514   -3.879665
     21          6           0       -4.156225   -2.672745   -3.886149
     22          6           0       -6.214363   -3.648383   -2.586255
     23          1           0       -7.262302   -3.872618   -2.831283
     24          8           0       -3.491220   -3.320970   -4.708307
     25          6           0       -6.230575   -2.818719   -1.283875
     26          1           0       -5.206855   -2.604105   -0.952338
     27          1           0       -6.655817   -3.468456   -0.508468
     28          6           0       -5.467081   -4.974996   -2.387534
     29          1           0       -4.420751   -4.810038   -2.106160
     30          1           0       -5.476887   -5.592802   -3.292291
     31          1           0       -5.935906   -5.554985   -1.586041
     32          6           0       -7.048326   -1.521725   -1.336783
     33          1           0       -7.122294   -1.077981   -0.339123
     34          1           0       -8.067071   -1.705795   -1.698491
     35          1           0       -6.599372   -0.760217   -1.986484
     36          7           0       -3.630490   -1.796572   -3.024315
     37          1           0       -4.189974   -1.318376   -2.320178
     38          6           0       -2.197346   -1.582079   -2.854345
     39          1           0       -1.690937   -2.550987   -2.924511
     40          6           0       -2.037981   -1.009796   -1.428485
     41          6           0       -1.622855   -0.631574   -3.919208
     42          1           0       -0.549256   -0.478912   -3.770106
     43          1           0       -2.118643    0.343477   -3.871188
     44          1           0       -1.775351   -1.060987   -4.913078
     45          8           0       -3.026524   -0.613559   -0.801676
     46          7           0       -0.776644   -0.987032   -0.965617
     47          1           0        0.003802   -1.189294   -1.590108
     48          6           0       -0.338309   -0.255272    0.217971
     49          1           0       -1.066950    0.537773    0.421466
     50          6           0        1.026183    0.363347   -0.175205
     51          6           0       -0.188136   -1.165542    1.455689
     52          1           0        0.316271   -0.600427    2.249197
     53          1           0        0.465642   -2.007625    1.206762
     54          8           0        1.625064   -0.039758   -1.177112
     55          6           0       -1.517490   -1.713658    1.986087
     56          1           0       -2.140334   -0.905094    2.388216
     57          1           0       -2.091247   -2.162152    1.166609
     58          6           0       -1.283284   -2.812117    3.024311
     59          7           0       -2.164205   -2.827667    4.070361
     60          1           0       -2.790884   -2.059479    4.256107
     61          1           0       -2.008801   -3.504336    4.805381
     62          8           0       -0.400339   -3.649006    2.900761
     63          7           0        1.490691    1.316288    0.649028
     64          1           0        0.978385    1.617690    1.473397
     65          6           0        2.787744    1.965130    0.493589
     66          1           0        3.508164    1.220271    0.142591
     67          6           0        3.159198    2.464052    1.898574
     68          6           0        2.718911    3.124690   -0.544563
     69          1           0        2.007089    3.869646   -0.168291
     70          1           0        2.282110    2.685831   -1.449828
     71          8           0        2.272697    2.726071    2.719547
     72          6           0        4.050157    3.769126   -0.851531
     73          6           0        4.365540    5.056149   -0.395452
     74          1           0        3.626728    5.610763    0.182749
     75          6           0        5.024138    3.095334   -1.610066
     76          1           0        4.803452    2.100538   -1.997491
     77          6           0        5.593665    5.649658   -0.676555
     78          1           0        5.798309    6.661272   -0.330724
     79          6           0        6.257522    3.671448   -1.888573
     80          1           0        7.001682    3.138471   -2.474219
     81          8           0        7.769040    5.501451   -1.696276
     82          6           0        6.588903    4.972424   -1.428802
     83          7           0        4.474689    2.587442    2.163057
     84          1           0        5.174700    2.442618    1.440820
     85          6           0        4.964619    3.128425    3.421212
     86          1           0        4.400469    4.038836    3.659283
     87          6           0        6.446188    3.469380    3.215383
     88          6           0        4.803284    2.125941    4.582172
     89          1           0        5.161542    2.553549    5.525175
     90          1           0        3.746069    1.875538    4.692664
     91          1           0        5.369735    1.212376    4.375060
     92          8           0        7.107472    2.962200    2.315578
     93          7           0        6.967349    4.351734    4.116296
     94          1           0        6.422406    4.608581    4.932024
     95          6           0        8.402360    4.546592    4.247808
     96          1           0        8.903440    3.685197    3.792433
     97          6           0        8.727190    4.576532    5.737038
     98          6           0        8.919246    5.834679    3.560602
     99          1           0        9.994780    5.912276    3.761604
    100          1           0        8.439367    6.702733    4.033824
    101          8           0        7.900049    4.650703    6.620700
    102          6           0        8.658130    5.849329    2.051398
    103          1           0        7.581770    5.814209    1.853135
    104          1           0        9.085490    4.954184    1.585485
    105          6           0        9.242998    7.098244    1.383636
    106          1           0       10.335393    7.116806    1.528427
    107          1           0        8.836081    8.005009    1.855457
    108          7           0        8.914340    7.092087   -0.034956
    109          1           0        8.437523    6.248985   -0.532978
    110          7           0        9.615373    9.287898   -0.444852
    111          1           0        9.705496   10.052909   -1.096457
    112          1           0       10.278985    9.263464    0.314311
    113          7           0        8.433351    8.056840   -2.053474
    114          1           0        8.767617    8.637813   -2.808295
    115          1           0        8.017599    7.114151   -2.252913
    116          6           0        9.013201    8.134846   -0.842911
    117          8           0       10.054433    4.540670    5.963398
    118          1           0       10.177607    4.583814    6.931153
 ---------------------------------------------------------------------

 SCF Done:  E(RB3LYP) =  -2837.64699936     A.U. after    3 cycles

 Alpha  occ. eigenvalues --  -19.30281 -19.25830 -19.25800 -19.21279 -19.20273
 Alpha  occ. eigenvalues --  -19.18885 -19.16755 -19.16707 -19.15609 -19.15081
 Alpha  occ. eigenvalues --  -19.09861 -14.59047 -14.48583 -14.44569 -14.44059
 Alpha  occ. eigenvalues --  -14.42121 -14.41066 -14.40511 -14.40497 -14.40310
 Alpha  occ. eigenvalues --  -14.39978 -14.39661 -10.42896 -10.40082 -10.39519
 Alpha  occ. eigenvalues --  -10.38257 -10.38181 -10.38170 -10.35836 -10.33828
 Alpha  occ. eigenvalues --  -10.33723 -10.33487 -10.33022 -10.32618 -10.31095
 Alpha  occ. eigenvalues --  -10.30988 -10.29466 -10.29057 -10.28482 -10.28426
 Alpha  occ. eigenvalues --  -10.27897 -10.27055 -10.26013 -10.25590 -10.25240
 Alpha  occ. eigenvalues --  -10.24885 -10.24855 -10.24124 -10.24099 -10.23663
 Alpha  occ. eigenvalues --  -10.23318 -10.22211 -10.21798 -10.19430 -10.19269
 Alpha  occ. eigenvalues --  -10.19216 -10.17980 -10.17602  -1.18834  -1.17266
 Alpha  occ. eigenvalues --   -1.16793  -1.13259  -1.12685  -1.10612  -1.08894
 Alpha  occ. eigenvalues --   -1.08599  -1.07809  -1.07241  -1.07040  -1.07009
 Alpha  occ. eigenvalues --   -1.05252  -1.01139  -0.98893  -0.98004  -0.97855
 Alpha  occ. eigenvalues --   -0.97094  -0.96222  -0.96055  -0.94864  -0.94450
 Alpha  occ. eigenvalues --   -0.92915  -0.89899  -0.86124  -0.85800  -0.85329
 Alpha  occ. eigenvalues --   -0.85003  -0.83794  -0.82323  -0.81859  -0.80645
 Alpha  occ. eigenvalues --   -0.79727  -0.79168  -0.77404  -0.77180  -0.74260
 Alpha  occ. eigenvalues --   -0.73930  -0.73778  -0.73661  -0.73172  -0.72351
 Alpha  occ. eigenvalues --   -0.71814  -0.70391  -0.70074  -0.69089  -0.68813
 Alpha  occ. eigenvalues --   -0.67636  -0.67134  -0.66254  -0.66123  -0.65739
 Alpha  occ. eigenvalues --   -0.65345  -0.64242  -0.64105  -0.63772  -0.63196
 Alpha  occ. eigenvalues --   -0.62720  -0.62606  -0.62069  -0.61507  -0.61256
 Alpha  occ. eigenvalues --   -0.60711  -0.60562  -0.59024  -0.58661  -0.58096
 Alpha  occ. eigenvalues --   -0.57969  -0.57618  -0.57262  -0.56836  -0.56199
 Alpha  occ. eigenvalues --   -0.55421  -0.55129  -0.54985  -0.54372  -0.54204
 Alpha  occ. eigenvalues --   -0.53943  -0.53743  -0.53577  -0.52969  -0.52696
 Alpha  occ. eigenvalues --   -0.52517  -0.52265  -0.52120  -0.51744  -0.51245
 Alpha  occ. eigenvalues --   -0.51158  -0.50921  -0.50690  -0.50490  -0.50136
 Alpha  occ. eigenvalues --   -0.49910  -0.49841  -0.49556  -0.49266  -0.48603
 Alpha  occ. eigenvalues --   -0.48386  -0.48146  -0.47949  -0.47524  -0.47384
 Alpha  occ. eigenvalues --   -0.47224  -0.47070  -0.46887  -0.46685  -0.45974
 Alpha  occ. eigenvalues --   -0.45686  -0.45661  -0.45458  -0.45095  -0.44667
 Alpha  occ. eigenvalues --   -0.44376  -0.44207  -0.44117  -0.43906  -0.43809
 Alpha  occ. eigenvalues --   -0.43571  -0.43426  -0.43142  -0.42971  -0.42339
 Alpha  occ. eigenvalues --   -0.41882  -0.41853  -0.41723  -0.41356  -0.41341
 Alpha  occ. eigenvalues --   -0.41111  -0.40889  -0.40701  -0.40580  -0.40207
 Alpha  occ. eigenvalues --   -0.39833  -0.39638  -0.39291  -0.39033  -0.38860
 Alpha  occ. eigenvalues --   -0.38464  -0.37861  -0.37735  -0.37656  -0.35615
 Alpha  occ. eigenvalues --   -0.35411  -0.34503  -0.34495  -0.34410  -0.33918
 Alpha  occ. eigenvalues --   -0.32957  -0.32302  -0.31697  -0.30989  -0.30949
 Alpha  occ. eigenvalues --   -0.30924  -0.30765  -0.30611  -0.30070  -0.29140
 Alpha  occ. eigenvalues --   -0.28892  -0.28851  -0.25146  -0.24366  -0.19793
 Alpha virt. eigenvalues --   -0.11870  -0.09935  -0.07027  -0.05226  -0.05087
 Alpha virt. eigenvalues --   -0.04599  -0.04232  -0.03031  -0.02958  -0.02603
 Alpha virt. eigenvalues --   -0.02326  -0.01255  -0.00963  -0.00869  -0.00413

 Mulliken charges:
               1
     1  N   -0.747446
     2  H    0.413771
     3  H    0.425996
     4  H    0.426403
     5  C   -0.140052
     6  H    0.202465
     7  C    0.646499
     8  C    0.129894
     9  H    0.193446
    10  O   -0.537896
    11  C   -0.512381
    12  H    0.206804
    13  H    0.165136
    14  H    0.206191
    15  O   -0.630885
    16  H    0.424484
    17  N   -0.603876
    18  H    0.374651
    19  C   -0.083472
    20  H    0.193470
    21  C    0.634722
    22  C   -0.073600
    23  H    0.148246
    24  O   -0.563657
    25  C   -0.283275
    26  H    0.159450
    27  H    0.154968
    28  C   -0.463640
    29  H    0.167931
    30  H    0.137079
    31  H    0.166532
    32  C   -0.460925
    33  H    0.171192
    34  H    0.155137
    35  H    0.143058
    36  N   -0.620852
    37  H    0.378764
    38  C   -0.051813
    39  H    0.189760
    40  C    0.619340
    41  C   -0.454583
    42  H    0.180510
    43  H    0.164332
    44  H    0.174518
    45  O   -0.553570
    46  N   -0.601482
    47  H    0.363163
    48  C   -0.075095
    49  H    0.175817
    50  C    0.628284
    51  C   -0.262815
    52  H    0.156064
    53  H    0.187615
    54  O   -0.550499
    55  C   -0.356673
    56  H    0.138832
    57  H    0.184632
    58  C    0.593576
    59  N   -0.747650
    60  H    0.335487
    61  H    0.344235
    62  O   -0.503809
    63  N   -0.617276
    64  H    0.353451
    65  C   -0.043097
    66  H    0.179700
    67  C    0.626867
    68  C   -0.349126
    69  H    0.143584
    70  H    0.164875
    71  O   -0.561852
    72  C    0.140530
    73  C   -0.194161
    74  H    0.103238
    75  C   -0.208178
    76  H    0.115191
    77  C   -0.214227
    78  H    0.088725
    79  C   -0.175308
    80  H    0.111467
    81  O   -0.755190
    82  C    0.422511
    83  N   -0.617429
    84  H    0.372261
    85  C   -0.024454
    86  H    0.172748
    87  C    0.609885
    88  C   -0.456593
    89  H    0.150969
    90  H    0.191781
    91  H    0.164563
    92  O   -0.519229
    93  N   -0.611527
    94  H    0.351208
    95  C   -0.046719
    96  H    0.205622
    97  C    0.581646
    98  C   -0.270908
    99  H    0.161853
   100  H    0.144370
   101  O   -0.464806
   102  C   -0.296749
   103  H    0.183131
   104  H    0.184867
   105  C   -0.131728
   106  H    0.145963
   107  H    0.153815
   108  N   -0.634845
   109  H    0.437970
   110  N   -0.764189
   111  H    0.355002
   112  H    0.362812
   113  N   -0.785643
   114  H    0.332821
   115  H    0.414068
   116  C    0.770341
   117  O   -0.559813
   118  H    0.422707
 Sum of Mulliken charges =   1.00000

 Dipole moment (field-independent basis, Debye):
    X=            -16.6362    Y=             -2.7252    Z=            -22.2146  Tot=             27.8869
 Quadrupole moment (field-independent basis, Debye-Ang):
   XX=             42.2453   YY=           -134.0120   ZZ=            -81.8517
   XY=            288.8891   XZ=            239.5589   YZ=            140.4499

 Normal termination of Gaussian 16 at Sat Jul  2 15:35:46 2022.
