 Gaussian 16, Revision C.01,
 Gaussian 16:  ES64L-G16RevC.01  3-Jul-2019

 -------------------------------------------------------------------
 # B3LYP/6-31G* guess=read geom=check nosymm integral(ultrafinegrid)
 -------------------------------------------------------------------

 ------------------------------------------------------
 Candidate Structure: Conf:231 Charge calc in gas phase
 ------------------------------------------------------
 Structure from the checkpoint file:  "conf-231.chk"
 Charge =  1 Multiplicity = 1

                          Input orientation:
 ---------------------------------------------------------------------
 Center     Atomic      Atomic             Coordinates (Angstroms)
 Number     Number       Type             X           Y           Z
 ---------------------------------------------------------------------
      1          7           0       -3.158471    2.964619   -9.274645
      2          1           0       -4.043951    3.457279   -9.413562
      3          1           0       -2.746002    2.717701  -10.188509
      4          1           0       -2.529511    3.554650   -8.665204
      5          6           0       -3.304249    1.702035   -8.465851
      6          1           0       -4.332170    1.344161   -8.555536
      7          6           0       -2.923862    2.149602   -7.026979
      8          6           0       -2.313926    0.657659   -9.042438
      9          1           0       -1.300789    0.928827   -8.708790
     10          8           0       -2.270470    3.200781   -6.931877
     11          6           0       -2.644676   -0.769996   -8.621864
     12          1           0       -2.582191   -0.911525   -7.537627
     13          1           0       -3.647757   -1.046819   -8.963638
     14          1           0       -1.927929   -1.460475   -9.080100
     15          8           0       -2.415064    0.836955  -10.463468
     16          1           0       -1.770866    0.260475  -10.904458
     17          7           0       -3.321660    1.352385   -6.048620
     18          1           0       -3.759705    0.452500   -6.259256
     19          6           0       -2.852397    1.361206   -4.652005
     20          1           0       -1.975335    2.005834   -4.563854
     21          6           0       -2.471852   -0.121124   -4.418263
     22          6           0       -3.987642    1.829256   -3.695671
     23          1           0       -4.836257    1.153712   -3.879515
     24          8           0       -3.098856   -0.997782   -5.043814
     25          6           0       -4.472903    3.259694   -4.025992
     26          1           0       -5.364507    3.445558   -3.412259
     27          1           0       -4.818289    3.294693   -5.068409
     28          6           0       -3.573111    1.687766   -2.221117
     29          1           0       -2.611764    2.177081   -2.036974
     30          1           0       -3.460991    0.641062   -1.924874
     31          1           0       -4.336925    2.142616   -1.579030
     32          6           0       -3.459061    4.387233   -3.792683
     33          1           0       -3.917060    5.358460   -4.014332
     34          1           0       -2.578046    4.283561   -4.433803
     35          1           0       -3.116977    4.411471   -2.752990
     36          7           0       -1.475119   -0.339233   -3.561488
     37          1           0       -0.975792    0.490252   -3.166067
     38          6           0       -1.046911   -1.690150   -3.207023
     39          1           0       -1.850540   -2.357423   -3.534775
     40          6           0       -1.010905   -1.793097   -1.662315
     41          6           0        0.245263   -2.064776   -3.945516
     42          1           0        0.539103   -3.098731   -3.733830
     43          1           0        1.072266   -1.398585   -3.675294
     44          1           0        0.081206   -1.981694   -5.024190
     45          8           0       -1.976988   -1.426742   -0.994294
     46          7           0        0.111803   -2.328156   -1.116658
     47          1           0        0.952775   -2.422736   -1.679358
     48          6           0        0.412669   -2.174916    0.301333
     49          1           0       -0.110998   -1.282277    0.650635
     50          6           0        1.919553   -1.876419    0.388971
     51          6           0       -0.027385   -3.376527    1.182170
     52          1           0        0.745368   -3.603681    1.923905
     53          1           0       -0.124990   -4.256885    0.539224
     54          8           0        2.659386   -2.017602   -0.585574
     55          6           0       -1.355430   -3.115306    1.900697
     56          1           0       -2.097794   -2.752492    1.177359
     57          1           0       -1.748764   -4.043990    2.333819
     58          6           0       -1.221093   -2.068447    3.005010
     59          7           0       -2.287429   -1.969274    3.842055
     60          1           0       -3.107745   -2.548239    3.744918
     61          1           0       -2.261912   -1.280895    4.581086
     62          8           0       -0.233945   -1.343338    3.141309
     63          7           0        2.343387   -1.417046    1.595913
     64          1           0        1.654936   -1.293959    2.339491
     65          6           0        3.604262   -0.721434    1.692597
     66          1           0        4.268991   -1.147935    0.937675
     67          6           0        4.177887   -0.827917    3.103931
     68          6           0        3.451622    0.832428    1.439286
     69          1           0        4.461702    1.229250    1.267789
     70          1           0        3.098441    1.257728    2.387433
     71          8           0        3.448487   -0.914204    4.091086
     72          6           0        2.513831    1.242470    0.333136
     73          6           0        2.951576    1.480151   -0.987404
     74          1           0        4.014387    1.394590   -1.216570
     75          6           0        1.132576    1.352514    0.574736
     76          1           0        0.754947    1.174845    1.581754
     77          6           0        2.063784    1.783777   -2.013505
     78          1           0        2.425200    1.940013   -3.027088
     79          6           0        0.224728    1.651065   -0.439209
     80          1           0       -0.841845    1.666794   -0.226835
     81          8           0       -0.196325    1.967488   -2.772999
     82          6           0        0.638966    1.816564   -1.807710
     83          7           0        5.526896   -0.650865    3.200204
     84          1           0        6.063716   -0.511691    2.353565
     85          6           0        6.179435   -0.315172    4.472266
     86          1           0        5.649925   -0.881559    5.243482
     87          6           0        5.993734    1.201308    4.740647
     88          6           0        7.654143   -0.697592    4.442380
     89          1           0        8.117684   -0.493115    5.411349
     90          1           0        7.762395   -1.763013    4.219150
     91          1           0        8.195192   -0.109856    3.694345
     92          8           0        6.886453    2.021227    4.540304
     93          7           0        4.742571    1.546390    5.159401
     94          1           0        4.053013    0.812567    5.309945
     95          6           0        4.379330    2.901391    5.529593
     96          1           0        5.296165    3.429202    5.813997
     97          6           0        3.467260    2.833535    6.751869
     98          6           0        3.680433    3.686047    4.382189
     99          1           0        3.113403    4.517702    4.815381
    100          1           0        2.951089    3.010948    3.917821
    101          8           0        2.935332    1.832756    7.171205
    102          6           0        4.676331    4.216528    3.332084
    103          1           0        5.515762    3.521614    3.225809
    104          1           0        5.121336    5.156950    3.685836
    105          6           0        4.084311    4.412782    1.933282
    106          1           0        3.732866    3.452411    1.549787
    107          1           0        4.853491    4.793041    1.249335
    108          7           0        2.928770    5.328312    1.927321
    109          1           0        2.996561    6.162089    2.498255
    110          7           0        1.839093    4.419192    0.066409
    111          1           0        0.964964    3.982715   -0.232464
    112          1           0        2.627031    3.815716   -0.152864
    113          7           0        0.800496    6.034111    1.351797
    114          1           0        0.029993    6.037139    0.698465
    115          1           0        0.613780    6.376729    2.282909
    116          6           0        1.865801    5.232904    1.117337
    117          8           0        3.299659    4.055948    7.307455
    118          1           0        2.708873    3.933015    8.075128
 ---------------------------------------------------------------------

 SCF Done:  E(RB3LYP) =  -2837.62110067     A.U. after    2 cycles

 Alpha  occ. eigenvalues --  -19.28355 -19.26889 -19.23637 -19.21233 -19.17662
 Alpha  occ. eigenvalues --  -19.17613 -19.17311 -19.17032 -19.16121 -19.15452
 Alpha  occ. eigenvalues --  -19.10960 -14.56964 -14.49735 -14.49417 -14.47462
 Alpha  occ. eigenvalues --  -14.46114 -14.42581 -14.41849 -14.41078 -14.39922
 Alpha  occ. eigenvalues --  -14.39553 -14.39455 -10.45339 -10.40615 -10.39209
 Alpha  occ. eigenvalues --  -10.38160 -10.37631 -10.34704 -10.34669 -10.34454
 Alpha  occ. eigenvalues --  -10.34059 -10.33101 -10.32986 -10.32743 -10.31192
 Alpha  occ. eigenvalues --  -10.29593 -10.29319 -10.28578 -10.28351 -10.27812
 Alpha  occ. eigenvalues --  -10.27784 -10.27628 -10.26932 -10.26442 -10.25223
 Alpha  occ. eigenvalues --  -10.25105 -10.24107 -10.23821 -10.23597 -10.23512
 Alpha  occ. eigenvalues --  -10.23170 -10.23042 -10.22794 -10.22518 -10.22408
 Alpha  occ. eigenvalues --  -10.20972 -10.20934 -10.20840  -1.17775  -1.16785
 Alpha  occ. eigenvalues --   -1.15115  -1.13814  -1.10684  -1.09969  -1.09213
 Alpha  occ. eigenvalues --   -1.08972  -1.08796  -1.08521  -1.08044  -1.06959
 Alpha  occ. eigenvalues --   -1.03400  -1.02650  -1.01554  -0.99945  -0.98978
 Alpha  occ. eigenvalues --   -0.98348  -0.96894  -0.96800  -0.96055  -0.95684
 Alpha  occ. eigenvalues --   -0.90904  -0.88948  -0.88000  -0.86829  -0.84944
 Alpha  occ. eigenvalues --   -0.84342  -0.83128  -0.82830  -0.81815  -0.81116
 Alpha  occ. eigenvalues --   -0.79241  -0.77976  -0.77610  -0.77017  -0.76229
 Alpha  occ. eigenvalues --   -0.75351  -0.74871  -0.74451  -0.71652  -0.71564
 Alpha  occ. eigenvalues --   -0.71210  -0.70828  -0.70078  -0.69457  -0.69408
 Alpha  occ. eigenvalues --   -0.69096  -0.68709  -0.67809  -0.66952  -0.66607
 Alpha  occ. eigenvalues --   -0.65114  -0.64457  -0.64299  -0.63902  -0.63361
 Alpha  occ. eigenvalues --   -0.62764  -0.62506  -0.62390  -0.62371  -0.61609
 Alpha  occ. eigenvalues --   -0.61297  -0.61200  -0.60825  -0.60074  -0.59722
 Alpha  occ. eigenvalues --   -0.58783  -0.58103  -0.57939  -0.57216  -0.56550
 Alpha  occ. eigenvalues --   -0.55974  -0.55551  -0.55466  -0.54921  -0.54382
 Alpha  occ. eigenvalues --   -0.54076  -0.53567  -0.53250  -0.53175  -0.53110
 Alpha  occ. eigenvalues --   -0.52688  -0.52551  -0.52153  -0.52068  -0.51607
 Alpha  occ. eigenvalues --   -0.51425  -0.50875  -0.50523  -0.50322  -0.49863
 Alpha  occ. eigenvalues --   -0.49476  -0.49325  -0.49076  -0.48979  -0.48730
 Alpha  occ. eigenvalues --   -0.48426  -0.48240  -0.48079  -0.47609  -0.47157
 Alpha  occ. eigenvalues --   -0.47071  -0.46754  -0.46449  -0.46146  -0.46084
 Alpha  occ. eigenvalues --   -0.45883  -0.45760  -0.45274  -0.45034  -0.44949
 Alpha  occ. eigenvalues --   -0.44840  -0.44572  -0.43996  -0.43747  -0.43448
 Alpha  occ. eigenvalues --   -0.43356  -0.43241  -0.43015  -0.42760  -0.42666
 Alpha  occ. eigenvalues --   -0.42606  -0.42332  -0.42196  -0.41844  -0.41665
 Alpha  occ. eigenvalues --   -0.41513  -0.41245  -0.40937  -0.40684  -0.40549
 Alpha  occ. eigenvalues --   -0.40105  -0.39760  -0.39509  -0.38951  -0.38865
 Alpha  occ. eigenvalues --   -0.38622  -0.38390  -0.38095  -0.37799  -0.37542
 Alpha  occ. eigenvalues --   -0.37413  -0.37030  -0.35294  -0.34822  -0.33997
 Alpha  occ. eigenvalues --   -0.33695  -0.32198  -0.31828  -0.31661  -0.31478
 Alpha  occ. eigenvalues --   -0.30923  -0.30764  -0.30357  -0.30015  -0.29877
 Alpha  occ. eigenvalues --   -0.29113  -0.28739  -0.28420  -0.25062  -0.22095
 Alpha virt. eigenvalues --   -0.10045  -0.09572  -0.07969  -0.06345  -0.05556
 Alpha virt. eigenvalues --   -0.05319  -0.04381  -0.04186  -0.03364  -0.03298
 Alpha virt. eigenvalues --   -0.02637  -0.02221  -0.01931  -0.01803  -0.01522

 Mulliken charges:
               1
     1  N   -0.750909
     2  H    0.410105
     3  H    0.425411
     4  H    0.422412
     5  C   -0.125641
     6  H    0.209610
     7  C    0.643054
     8  C    0.126801
     9  H    0.171762
    10  O   -0.541906
    11  C   -0.497045
    12  H    0.213274
    13  H    0.175867
    14  H    0.173476
    15  O   -0.651843
    16  H    0.430009
    17  N   -0.587199
    18  H    0.365955
    19  C   -0.103766
    20  H    0.226902
    21  C    0.617228
    22  C   -0.065667
    23  H    0.130365
    24  O   -0.584731
    25  C   -0.254348
    26  H    0.140341
    27  H    0.109474
    28  C   -0.505807
    29  H    0.183385
    30  H    0.194203
    31  H    0.131085
    32  C   -0.455442
    33  H    0.135540
    34  H    0.171179
    35  H    0.146487
    36  N   -0.614455
    37  H    0.426757
    38  C   -0.054123
    39  H    0.196351
    40  C    0.605180
    41  C   -0.480966
    42  H    0.160790
    43  H    0.178867
    44  H    0.153195
    45  O   -0.531498
    46  N   -0.627089
    47  H    0.364368
    48  C   -0.037611
    49  H    0.200889
    50  C    0.601570
    51  C   -0.269125
    52  H    0.167185
    53  H    0.158084
    54  O   -0.546609
    55  C   -0.391816
    56  H    0.214684
    57  H    0.156136
    58  C    0.617795
    59  N   -0.743980
    60  H    0.346158
    61  H    0.345993
    62  O   -0.528004
    63  N   -0.627478
    64  H    0.396656
    65  C   -0.040495
    66  H    0.178360
    67  C    0.620561
    68  C   -0.377517
    69  H    0.125496
    70  H    0.152127
    71  O   -0.533942
    72  C    0.118374
    73  C   -0.205212
    74  H    0.111874
    75  C   -0.198847
    76  H    0.130353
    77  C   -0.215895
    78  H    0.111559
    79  C   -0.285640
    80  H    0.129666
    81  O   -0.691846
    82  C    0.407850
    83  N   -0.595979
    84  H    0.334815
    85  C   -0.056998
    86  H    0.191173
    87  C    0.614173
    88  C   -0.459958
    89  H    0.174625
    90  H    0.163985
    91  H    0.166655
    92  O   -0.530962
    93  N   -0.614641
    94  H    0.381106
    95  C   -0.040137
    96  H    0.205025
    97  C    0.573248
    98  C   -0.274536
    99  H    0.150463
   100  H    0.165027
   101  O   -0.442473
   102  C   -0.314409
   103  H    0.214003
   104  H    0.156019
   105  C   -0.178587
   106  H    0.199704
   107  H    0.185732
   108  N   -0.595631
   109  H    0.355529
   110  N   -0.737902
   111  H    0.377208
   112  H    0.390715
   113  N   -0.758222
   114  H    0.381641
   115  H    0.371005
   116  C    0.792489
   117  O   -0.570009
   118  H    0.421753
 Sum of Mulliken charges =   1.00000

 Dipole moment (field-independent basis, Debye):
    X=             -4.6354    Y=             18.7546    Z=            -17.5604  Tot=             26.1072
 Quadrupole moment (field-independent basis, Debye-Ang):
   XX=           -279.8453   YY=           -224.1212   ZZ=            -29.2986
   XY=              1.1944   XZ=             84.6980   YZ=            -17.2408

 Normal termination of Gaussian 16 at Sat Jul  2 15:35:51 2022.
