 Gaussian 16, Revision C.01,
 Gaussian 16:  ES64L-G16RevC.01  3-Jul-2019

 -------------------------------------------------------------------
 # B3LYP/6-31G* guess=read geom=check nosymm integral(ultrafinegrid)
 -------------------------------------------------------------------

 ------------------------------------------------------
 Candidate Structure: Conf:234 Charge calc in gas phase
 ------------------------------------------------------
 Structure from the checkpoint file:  "conf-234.chk"
 Charge =  1 Multiplicity = 1

                          Input orientation:
 ---------------------------------------------------------------------
 Center     Atomic      Atomic             Coordinates (Angstroms)
 Number     Number       Type             X           Y           Z
 ---------------------------------------------------------------------
      1          7           0       -1.243780    0.326323   -7.151940
      2          1           0       -1.787100    0.168119   -8.002470
      3          1           0       -0.223750    0.456440   -7.370759
      4          1           0       -1.652852    1.125058   -6.611724
      5          6           0       -1.263820   -0.821236   -6.189574
      6          1           0       -1.618835   -1.714161   -6.708859
      7          6           0       -2.208201   -0.363665   -5.053512
      8          6           0        0.213196   -1.019764   -5.673508
      9          1           0        0.327689   -0.435344   -4.753740
     10          8           0       -2.501520    0.837257   -4.999470
     11          6           0        0.513680   -2.489503   -5.396588
     12          1           0       -0.141830   -2.900940   -4.620143
     13          1           0        0.408410   -3.083779   -6.310448
     14          1           0        1.544491   -2.589371   -5.044995
     15          8           0        1.070380   -0.492219   -6.680404
     16          1           0        1.827315   -0.004142   -6.245263
     17          7           0       -2.589602   -1.291883   -4.174779
     18          1           0       -2.287020   -2.260828   -4.246551
     19          6           0       -3.241786   -0.980026   -2.897209
     20          1           0       -2.955375    0.041538   -2.636257
     21          6           0       -2.628477   -1.993130   -1.902530
     22          6           0       -4.794311   -1.053847   -3.004302
     23          1           0       -5.044955   -0.363472   -3.822521
     24          8           0       -2.327532   -3.121564   -2.302848
     25          6           0       -5.503711   -0.538718   -1.734064
     26          1           0       -5.251143   -1.184057   -0.881923
     27          1           0       -6.581081   -0.669885   -1.894850
     28          6           0       -5.294615   -2.454838   -3.385416
     29          1           0       -5.089276   -3.188517   -2.599043
     30          1           0       -4.828736   -2.818758   -4.307426
     31          1           0       -6.376863   -2.430981   -3.550429
     32          6           0       -5.240836    0.930395   -1.377488
     33          1           0       -5.884958    1.243861   -0.549547
     34          1           0       -5.449134    1.589000   -2.228994
     35          1           0       -4.207691    1.118682   -1.060914
     36          7           0       -2.451551   -1.525189   -0.652234
     37          1           0       -2.705713   -0.564849   -0.432199
     38          6           0       -1.850509   -2.212812    0.492235
     39          1           0       -2.581523   -2.911055    0.925101
     40          6           0       -1.585744   -1.083570    1.523770
     41          6           0       -0.573279   -2.991675    0.138939
     42          1           0       -0.206398   -3.540472    1.010451
     43          1           0        0.213212   -2.310614   -0.204210
     44          1           0       -0.788960   -3.706647   -0.654916
     45          8           0       -2.046060    0.054985    1.330654
     46          7           0       -0.815845   -1.398943    2.576838
     47          1           0       -0.520037   -2.366478    2.755036
     48          6           0       -0.364782   -0.410668    3.568455
     49          1           0       -1.203000    0.264433    3.777084
     50          6           0        0.796967    0.392283    2.923265
     51          6           0        0.111467   -1.098340    4.854656
     52          1           0        0.305273   -0.305688    5.584507
     53          1           0        1.077656   -1.570782    4.656946
     54          8           0        1.979094    0.117506    3.134655
     55          6           0       -0.870168   -2.117332    5.470741
     56          1           0       -0.778902   -2.096959    6.562170
     57          1           0       -1.910677   -1.842374    5.248370
     58          6           0       -0.658178   -3.547577    4.972164
     59          7           0       -0.896266   -4.527695    5.873798
     60          1           0       -1.127890   -4.339152    6.837340
     61          1           0       -0.779682   -5.489943    5.585015
     62          8           0       -0.311258   -3.812475    3.816049
     63          7           0        0.401720    1.348400    2.043565
     64          1           0       -0.596152    1.383636    1.848954
     65          6           0        1.292580    1.773776    0.951975
     66          1           0        1.979845    0.938277    0.774180
     67          6           0        2.175402    2.986047    1.338080
     68          6           0        0.465763    2.065384   -0.313667
     69          1           0        0.126397    3.103929   -0.276286
     70          1           0       -0.423509    1.423022   -0.287849
     71          8           0        2.037872    4.089091    0.804512
     72          6           0        1.199873    1.808713   -1.615064
     73          6           0        1.771950    0.555483   -1.878737
     74          1           0        1.741812   -0.225047   -1.121242
     75          6           0        1.258292    2.779876   -2.622191
     76          1           0        0.840156    3.765069   -2.433973
     77          6           0        2.366971    0.273752   -3.106352
     78          1           0        2.793682   -0.707416   -3.299654
     79          6           0        1.841396    2.507025   -3.862121
     80          1           0        1.882864    3.264939   -4.638859
     81          8           0        2.917646    0.962230   -5.357247
     82          6           0        2.391298    1.248066   -4.114001
     83          7           0        3.120505    2.707196    2.263005
     84          1           0        3.119426    1.774591    2.674651
     85          6           0        4.039697    3.722170    2.791652
     86          1           0        3.483836    4.666331    2.824848
     87          6           0        5.242214    3.909109    1.828381
     88          6           0        4.512094    3.331861    4.187601
     89          1           0        5.163516    4.108654    4.595597
     90          1           0        3.654814    3.203852    4.855907
     91          1           0        5.091430    2.404456    4.157088
     92          8           0        6.374863    3.527315    2.106356
     93          7           0        4.917798    4.517460    0.654463
     94          1           0        3.954033    4.812316    0.503404
     95          6           0        5.903426    4.857867   -0.351728
     96          1           0        6.880773    4.905851    0.139589
     97          6           0        5.569800    6.238960   -0.905496
     98          6           0        5.967965    3.828685   -1.512240
     99          1           0        6.465832    4.291751   -2.371335
    100          1           0        4.938222    3.605882   -1.822191
    101          8           0        4.507693    6.805078   -0.784719
    102          6           0        6.699246    2.534922   -1.123834
    103          1           0        6.367314    2.190535   -0.139177
    104          1           0        7.774040    2.737903   -1.017019
    105          6           0        6.478869    1.389284   -2.118413
    106          1           0        5.410944    1.148103   -2.155575
    107          1           0        7.009512    0.490127   -1.772743
    108          7           0        6.882767    1.747965   -3.475472
    109          1           0        7.777700    2.205907   -3.591755
    110          7           0        5.372595    0.349168   -4.673769
    111          1           0        3.897168    0.639767   -5.222253
    112          1           0        5.350692   -0.193950   -3.813668
    113          7           0        6.644815    1.954369   -5.760651
    114          1           0        6.169709    1.636203   -6.594782
    115          1           0        6.777868    2.956075   -5.708261
    116          6           0        6.259741    1.305156   -4.607571
    117          8           0        6.611830    6.757614   -1.596390
    118          1           0        6.317519    7.627520   -1.927740
 ---------------------------------------------------------------------

 SCF Done:  E(RB3LYP) =  -2837.67423024     A.U. after    2 cycles

 Alpha  occ. eigenvalues --  -19.25869 -19.25679 -19.24469 -19.23090 -19.21499
 Alpha  occ. eigenvalues --  -19.20728 -19.20712 -19.20206 -19.20082 -19.18176
 Alpha  occ. eigenvalues --  -19.16476 -14.56036 -14.47703 -14.44854 -14.44625
 Alpha  occ. eigenvalues --  -14.44379 -14.43667 -14.43361 -14.42762 -14.41859
 Alpha  occ. eigenvalues --  -14.40500 -14.37879 -10.41561 -10.38211 -10.38177
 Alpha  occ. eigenvalues --  -10.38132 -10.38027 -10.37890 -10.37533 -10.36679
 Alpha  occ. eigenvalues --  -10.36435 -10.34989 -10.33592 -10.32735 -10.32702
 Alpha  occ. eigenvalues --  -10.31993 -10.31985 -10.30704 -10.29812 -10.29705
 Alpha  occ. eigenvalues --  -10.28814 -10.28531 -10.28219 -10.27885 -10.27370
 Alpha  occ. eigenvalues --  -10.27092 -10.26961 -10.26758 -10.26468 -10.26336
 Alpha  occ. eigenvalues --  -10.26262 -10.25910 -10.25845 -10.25689 -10.25491
 Alpha  occ. eigenvalues --  -10.24916 -10.24824 -10.23131  -1.16935  -1.16742
 Alpha  occ. eigenvalues --   -1.13920  -1.13354  -1.12408  -1.12223  -1.11568
 Alpha  occ. eigenvalues --   -1.10665  -1.09798  -1.09630  -1.08292  -1.07725
 Alpha  occ. eigenvalues --   -1.06429  -1.04106  -1.01566  -1.01116  -1.00048
 Alpha  occ. eigenvalues --   -0.99278  -0.98348  -0.97435  -0.97100  -0.92989
 Alpha  occ. eigenvalues --   -0.92716  -0.90850  -0.88908  -0.88385  -0.86457
 Alpha  occ. eigenvalues --   -0.85972  -0.85455  -0.83214  -0.83008  -0.82340
 Alpha  occ. eigenvalues --   -0.81431  -0.80972  -0.80721  -0.79062  -0.78779
 Alpha  occ. eigenvalues --   -0.74797  -0.74756  -0.73458  -0.73086  -0.71898
 Alpha  occ. eigenvalues --   -0.71790  -0.71246  -0.70535  -0.69628  -0.69264
 Alpha  occ. eigenvalues --   -0.69103  -0.69003  -0.68511  -0.67371  -0.66747
 Alpha  occ. eigenvalues --   -0.66234  -0.65549  -0.65499  -0.65298  -0.64534
 Alpha  occ. eigenvalues --   -0.64330  -0.64079  -0.63637  -0.63128  -0.62920
 Alpha  occ. eigenvalues --   -0.62389  -0.60802  -0.60684  -0.60008  -0.59396
 Alpha  occ. eigenvalues --   -0.59237  -0.58835  -0.57931  -0.57681  -0.57382
 Alpha  occ. eigenvalues --   -0.56901  -0.56504  -0.56217  -0.55958  -0.55617
 Alpha  occ. eigenvalues --   -0.54981  -0.54840  -0.54649  -0.54263  -0.53882
 Alpha  occ. eigenvalues --   -0.53731  -0.53694  -0.53540  -0.53000  -0.52925
 Alpha  occ. eigenvalues --   -0.52773  -0.52462  -0.52255  -0.51533  -0.51345
 Alpha  occ. eigenvalues --   -0.50942  -0.50636  -0.50508  -0.50286  -0.50273
 Alpha  occ. eigenvalues --   -0.49862  -0.49763  -0.49606  -0.49348  -0.49110
 Alpha  occ. eigenvalues --   -0.48595  -0.48462  -0.48244  -0.48090  -0.47606
 Alpha  occ. eigenvalues --   -0.47310  -0.47021  -0.46967  -0.46794  -0.46697
 Alpha  occ. eigenvalues --   -0.46649  -0.46107  -0.46030  -0.45725  -0.45345
 Alpha  occ. eigenvalues --   -0.44788  -0.44700  -0.44508  -0.44269  -0.44231
 Alpha  occ. eigenvalues --   -0.44046  -0.43731  -0.43568  -0.43263  -0.43231
 Alpha  occ. eigenvalues --   -0.42902  -0.42834  -0.42659  -0.42084  -0.41759
 Alpha  occ. eigenvalues --   -0.41497  -0.41461  -0.41222  -0.41076  -0.40865
 Alpha  occ. eigenvalues --   -0.40369  -0.40310  -0.39667  -0.38344  -0.38069
 Alpha  occ. eigenvalues --   -0.37919  -0.37015  -0.36644  -0.36235  -0.35943
 Alpha  occ. eigenvalues --   -0.35676  -0.34948  -0.34555  -0.34271  -0.34054
 Alpha  occ. eigenvalues --   -0.34038  -0.33538  -0.33160  -0.32985  -0.32626
 Alpha  occ. eigenvalues --   -0.31554  -0.31060  -0.30385  -0.30019  -0.29146
 Alpha virt. eigenvalues --   -0.10141  -0.08380  -0.08027  -0.07737  -0.07254
 Alpha virt. eigenvalues --   -0.06642  -0.06211  -0.05597  -0.05228  -0.04739
 Alpha virt. eigenvalues --   -0.03849  -0.02788  -0.02411  -0.01516  -0.01035

 Mulliken charges:
               1
     1  N   -0.755339
     2  H    0.404630
     3  H    0.426919
     4  H    0.419511
     5  C   -0.127053
     6  H    0.203974
     7  C    0.637183
     8  C    0.120608
     9  H    0.183717
    10  O   -0.535732
    11  C   -0.471840
    12  H    0.168438
    13  H    0.171290
    14  H    0.183355
    15  O   -0.690808
    16  H    0.467829
    17  N   -0.606366
    18  H    0.371867
    19  C   -0.072499
    20  H    0.184485
    21  C    0.641507
    22  C   -0.075219
    23  H    0.148138
    24  O   -0.553226
    25  C   -0.268807
    26  H    0.142440
    27  H    0.154710
    28  C   -0.459586
    29  H    0.168383
    30  H    0.138240
    31  H    0.160298
    32  C   -0.463209
    33  H    0.165521
    34  H    0.158102
    35  H    0.143418
    36  N   -0.651441
    37  H    0.380434
    38  C   -0.022071
    39  H    0.191909
    40  C    0.619949
    41  C   -0.487948
    42  H    0.184962
    43  H    0.150761
    44  H    0.207980
    45  O   -0.570057
    46  N   -0.644941
    47  H    0.412357
    48  C   -0.061256
    49  H    0.178336
    50  C    0.616856
    51  C   -0.299867
    52  H    0.170855
    53  H    0.200162
    54  O   -0.532728
    55  C   -0.382218
    56  H    0.164122
    57  H    0.189355
    58  C    0.622104
    59  N   -0.733391
    60  H    0.355421
    61  H    0.360005
    62  O   -0.535165
    63  N   -0.609686
    64  H    0.376500
    65  C   -0.063881
    66  H    0.173706
    67  C    0.639943
    68  C   -0.398306
    69  H    0.192785
    70  H    0.157385
    71  O   -0.539711
    72  C    0.171514
    73  C   -0.202759
    74  H    0.140039
    75  C   -0.194401
    76  H    0.155947
    77  C   -0.195371
    78  H    0.133360
    79  C   -0.162057
    80  H    0.139891
    81  O   -0.749705
    82  C    0.324756
    83  N   -0.618788
    84  H    0.375738
    85  C   -0.054636
    86  H    0.181033
    87  C    0.620523
    88  C   -0.461958
    89  H    0.175399
    90  H    0.150787
    91  H    0.173429
    92  O   -0.529579
    93  N   -0.618976
    94  H    0.381896
    95  C   -0.039021
    96  H    0.200583
    97  C    0.571795
    98  C   -0.259379
    99  H    0.148020
   100  H    0.153673
   101  O   -0.451464
   102  C   -0.298005
   103  H    0.186720
   104  H    0.152237
   105  C   -0.144593
   106  H    0.163108
   107  H    0.161916
   108  N   -0.597084
   109  H    0.338315
   110  N   -0.769472
   111  H    0.462764
   112  H    0.305591
   113  N   -0.744832
   114  H    0.350056
   115  H    0.337350
   116  C    0.688181
   117  O   -0.568249
   118  H    0.417614
 Sum of Mulliken charges =   1.00000

 Dipole moment (field-independent basis, Debye):
    X=             -1.2239    Y=             -3.0000    Z=            -13.1138  Tot=             13.5082
 Quadrupole moment (field-independent basis, Debye-Ang):
   XX=           -275.9467   YY=           -310.2511   ZZ=           -129.7123
   XY=             37.3256   XZ=            -23.8093   YZ=            -50.5403

 Normal termination of Gaussian 16 at Sat Jul  2 15:35:51 2022.
