 Gaussian 16, Revision C.01,
 Gaussian 16:  ES64L-G16RevC.01  3-Jul-2019

 -------------------------------------------------------------------
 # B3LYP/6-31G* guess=read geom=check nosymm integral(ultrafinegrid)
 -------------------------------------------------------------------

 ------------------------------------------------------
 Candidate Structure: Conf:497 Charge calc in gas phase
 ------------------------------------------------------
 Structure from the checkpoint file:  "conf-497.chk"
 Charge =  1 Multiplicity = 1

                          Input orientation:
 ---------------------------------------------------------------------
 Center     Atomic      Atomic             Coordinates (Angstroms)
 Number     Number       Type             X           Y           Z
 ---------------------------------------------------------------------
      1          7           0       -7.479737   -1.454865   -9.144473
      2          1           0       -8.229286   -1.985082   -9.591536
      3          1           0       -6.832041   -1.063182   -9.847739
      4          1           0       -7.853407   -0.655085   -8.550291
      5          6           0       -6.656330   -2.227636   -8.147343
      6          1           0       -7.181414   -3.152395   -7.896042
      7          6           0       -6.642503   -1.280676   -6.905433
      8          6           0       -5.272048   -2.532503   -8.764928
      9          1           0       -4.568697   -2.718589   -7.942861
     10          8           0       -7.344629   -0.261494   -6.961130
     11          6           0       -5.282269   -3.732140   -9.711230
     12          1           0       -5.550946   -4.651077   -9.179255
     13          1           0       -5.983679   -3.588768  -10.541485
     14          1           0       -4.285476   -3.882284  -10.139730
     15          8           0       -4.931324   -1.317137   -9.434367
     16          1           0       -4.067102   -1.409947   -9.865583
     17          7           0       -5.909574   -1.682173   -5.875838
     18          1           0       -5.256384   -2.463787   -5.957753
     19          6           0       -5.599957   -0.885756   -4.680747
     20          1           0       -5.818115    0.163230   -4.903962
     21          6           0       -4.077450   -1.121710   -4.505638
     22          6           0       -6.425786   -1.342359   -3.436696
     23          1           0       -6.110280   -2.371724   -3.209571
     24          8           0       -3.581412   -2.171145   -4.939036
     25          6           0       -7.936662   -1.363613   -3.756233
     26          1           0       -8.101160   -1.963423   -4.659380
     27          1           0       -8.268065   -0.344622   -3.998718
     28          6           0       -6.120668   -0.455869   -2.218016
     29          1           0       -6.409889    0.586388   -2.406631
     30          1           0       -5.065253   -0.468168   -1.936384
     31          1           0       -6.684721   -0.798477   -1.347125
     32          6           0       -8.808696   -1.940911   -2.634169
     33          1           0       -9.848879   -2.025765   -2.966458
     34          1           0       -8.805091   -1.312347   -1.738740
     35          1           0       -8.470499   -2.942646   -2.341997
     36          7           0       -3.378699   -0.156670   -3.895906
     37          1           0       -3.829247    0.653871   -3.472428
     38          6           0       -1.980170   -0.296603   -3.503386
     39          1           0       -1.814457   -1.329548   -3.176711
     40          6           0       -1.800822    0.664233   -2.306710
     41          6           0       -1.019863    0.025965   -4.660041
     42          1           0        0.022356   -0.095910   -4.348342
     43          1           0       -1.160246    1.056570   -5.001728
     44          1           0       -1.210973   -0.655831   -5.493295
     45          8           0       -2.678668    1.487602   -2.032167
     46          7           0       -0.647859    0.542295   -1.628022
     47          1           0        0.051360   -0.158442   -1.858409
     48          6           0       -0.315327    1.352430   -0.463090
     49          1           0       -0.603194    2.390221   -0.665060
     50          6           0        1.208531    1.210383   -0.289697
     51          6           0       -1.052887    0.839920    0.804322
     52          1           0       -0.595871   -0.112430    1.100784
     53          1           0       -2.089667    0.627456    0.531779
     54          8           0        1.786830    0.211815   -0.715913
     55          6           0       -1.047740    1.828649    1.982678
     56          1           0       -0.055748    2.249832    2.153392
     57          1           0       -1.738398    2.653740    1.769341
     58          6           0       -1.522858    1.140799    3.262780
     59          7           0       -0.612328    1.163882    4.277817
     60          1           0        0.320444    1.544612    4.156336
     61          1           0       -0.859419    0.713425    5.148095
     62          8           0       -2.621160    0.606984    3.349126
     63          7           0        1.835902    2.217975    0.373051
     64          1           0        1.260103    2.938433    0.789371
     65          6           0        3.158239    2.054616    0.969468
     66          1           0        3.661221    1.267416    0.404096
     67          6           0        2.992418    1.630038    2.443911
     68          6           0        3.964078    3.376285    0.867027
     69          1           0        3.399392    4.163473    1.382699
     70          1           0        4.004596    3.647653   -0.194657
     71          8           0        2.097307    2.126938    3.141889
     72          6           0        5.351266    3.258693    1.457169
     73          6           0        5.633534    3.728832    2.745046
     74          1           0        4.863258    4.259062    3.301701
     75          6           0        6.374420    2.596731    0.760762
     76          1           0        6.190175    2.236288   -0.249972
     77          6           0        6.879155    3.523612    3.337171
     78          1           0        7.085671    3.904983    4.333222
     79          6           0        7.619478    2.377189    1.339283
     80          1           0        8.402720    1.848217    0.805429
     81          8           0        9.092749    2.549898    3.179848
     82          6           0        7.876943    2.821285    2.644686
     83          7           0        3.877676    0.727638    2.902571
     84          1           0        4.667737    0.429901    2.335441
     85          6           0        3.976906    0.361811    4.307853
     86          1           0        3.718971    1.241474    4.908171
     87          6           0        5.443779   -0.037091    4.552718
     88          6           0        3.027760   -0.797140    4.667471
     89          1           0        3.093982   -1.043828    5.732837
     90          1           0        1.996038   -0.514115    4.440324
     91          1           0        3.281501   -1.690133    4.087474
     92          8           0        6.169151   -0.395994    3.628810
     93          7           0        5.845963    0.012324    5.846317
     94          1           0        5.182672    0.218609    6.584395
     95          6           0        7.135883   -0.500718    6.285621
     96          1           0        7.403805   -1.352558    5.651014
     97          6           0        6.950338   -0.998386    7.712676
     98          6           0        8.285871    0.536343    6.196334
     99          1           0        8.448740    0.751702    5.136795
    100          1           0        9.197338    0.052188    6.567932
    101          8           0        5.974158   -0.777870    8.399893
    102          6           0        8.015609    1.832000    6.972757
    103          1           0        7.704996    1.601713    8.001589
    104          1           0        7.179007    2.368006    6.508503
    105          6           0        9.225287    2.770665    7.058023
    106          1           0       10.033967    2.251618    7.604426
    107          1           0        8.934072    3.636859    7.676093
    108          7           0        9.680777    3.197484    5.741767
    109          1           0        9.123322    2.750038    4.168149
    110          7           0       11.405809    4.522850    6.717820
    111          1           0       12.401481    4.654862    6.593567
    112          1           0       11.157322    4.198127    7.641198
    113          7           0       11.308938    4.212746    4.425836
    114          1           0       11.656062    5.156172    4.302691
    115          1           0       10.771362    3.867906    3.635602
    116          6           0       10.738915    3.939810    5.655588
    117          8           0        8.016916   -1.696140    8.145171
    118          1           0        7.828477   -1.957569    9.066855
 ---------------------------------------------------------------------

 SCF Done:  E(RB3LYP) =  -2837.65896431     A.U. after    1 cycles

 Alpha  occ. eigenvalues --  -19.30220 -19.26106 -19.25795 -19.21064 -19.20314
 Alpha  occ. eigenvalues --  -19.18987 -19.18649 -19.18274 -19.17549 -19.17066
 Alpha  occ. eigenvalues --  -19.13783 -14.58583 -14.48545 -14.44531 -14.42767
 Alpha  occ. eigenvalues --  -14.42414 -14.41447 -14.41340 -14.40596 -14.38912
 Alpha  occ. eigenvalues --  -14.38302 -14.35299 -10.42960 -10.40403 -10.39785
 Alpha  occ. eigenvalues --  -10.38160 -10.38099 -10.36056 -10.35341 -10.34396
 Alpha  occ. eigenvalues --  -10.34188 -10.34117 -10.33429 -10.31804 -10.31574
 Alpha  occ. eigenvalues --  -10.31378 -10.29827 -10.29287 -10.29034 -10.28917
 Alpha  occ. eigenvalues --  -10.28245 -10.27793 -10.26146 -10.26043 -10.25790
 Alpha  occ. eigenvalues --  -10.24882 -10.24550 -10.24407 -10.24382 -10.23527
 Alpha  occ. eigenvalues --  -10.23445 -10.23235 -10.23180 -10.22811 -10.22672
 Alpha  occ. eigenvalues --  -10.22625 -10.21926 -10.21646  -1.19068  -1.17289
 Alpha  occ. eigenvalues --   -1.16830  -1.13092  -1.12364  -1.11003  -1.10135
 Alpha  occ. eigenvalues --   -1.09386  -1.08641  -1.07812  -1.06958  -1.05615
 Alpha  occ. eigenvalues --   -1.05289  -1.03047  -1.01119  -0.99377  -0.98815
 Alpha  occ. eigenvalues --   -0.98178  -0.97814  -0.93096  -0.92965  -0.92475
 Alpha  occ. eigenvalues --   -0.91980  -0.89829  -0.88892  -0.86351  -0.85815
 Alpha  occ. eigenvalues --   -0.85223  -0.84379  -0.83256  -0.81817  -0.81597
 Alpha  occ. eigenvalues --   -0.79123  -0.78731  -0.78180  -0.78005  -0.76725
 Alpha  occ. eigenvalues --   -0.76126  -0.73835  -0.73770  -0.72523  -0.72336
 Alpha  occ. eigenvalues --   -0.71708  -0.71655  -0.70097  -0.69909  -0.68728
 Alpha  occ. eigenvalues --   -0.67771  -0.66803  -0.66503  -0.66225  -0.65481
 Alpha  occ. eigenvalues --   -0.65304  -0.65128  -0.64281  -0.64090  -0.63920
 Alpha  occ. eigenvalues --   -0.63328  -0.62246  -0.61830  -0.61687  -0.61563
 Alpha  occ. eigenvalues --   -0.61083  -0.59717  -0.59153  -0.58910  -0.58193
 Alpha  occ. eigenvalues --   -0.58001  -0.57449  -0.56886  -0.56819  -0.56716
 Alpha  occ. eigenvalues --   -0.56154  -0.55546  -0.54992  -0.54683  -0.54370
 Alpha  occ. eigenvalues --   -0.54217  -0.53467  -0.53243  -0.53060  -0.52805
 Alpha  occ. eigenvalues --   -0.52498  -0.52200  -0.52092  -0.51932  -0.51836
 Alpha  occ. eigenvalues --   -0.51598  -0.51254  -0.51035  -0.50715  -0.50320
 Alpha  occ. eigenvalues --   -0.50286  -0.49959  -0.49824  -0.49460  -0.49287
 Alpha  occ. eigenvalues --   -0.48954  -0.48777  -0.48540  -0.48457  -0.47939
 Alpha  occ. eigenvalues --   -0.47666  -0.47521  -0.47287  -0.46825  -0.46500
 Alpha  occ. eigenvalues --   -0.46296  -0.45796  -0.45775  -0.45454  -0.45320
 Alpha  occ. eigenvalues --   -0.45045  -0.44924  -0.44542  -0.44412  -0.44301
 Alpha  occ. eigenvalues --   -0.43614  -0.43515  -0.43297  -0.43257  -0.43199
 Alpha  occ. eigenvalues --   -0.42867  -0.42804  -0.42748  -0.42284  -0.41884
 Alpha  occ. eigenvalues --   -0.41831  -0.40943  -0.40895  -0.40506  -0.40273
 Alpha  occ. eigenvalues --   -0.40265  -0.40205  -0.39794  -0.39608  -0.39417
 Alpha  occ. eigenvalues --   -0.38968  -0.38789  -0.38439  -0.37975  -0.37805
 Alpha  occ. eigenvalues --   -0.36785  -0.35735  -0.35126  -0.34505  -0.33855
 Alpha  occ. eigenvalues --   -0.33487  -0.33031  -0.32460  -0.32144  -0.31767
 Alpha  occ. eigenvalues --   -0.31622  -0.31011  -0.30936  -0.30619  -0.30287
 Alpha  occ. eigenvalues --   -0.29422  -0.28574  -0.27863  -0.27622  -0.24730
 Alpha virt. eigenvalues --   -0.12067  -0.09594  -0.06993  -0.05243  -0.05141
 Alpha virt. eigenvalues --   -0.04998  -0.04423  -0.04281  -0.03789  -0.03473
 Alpha virt. eigenvalues --   -0.02664  -0.02245  -0.01972  -0.01738  -0.01009

 Mulliken charges:
               1
     1  N   -0.761280
     2  H    0.409551
     3  H    0.427812
     4  H    0.435317
     5  C   -0.120652
     6  H    0.224953
     7  C    0.659518
     8  C    0.101096
     9  H    0.193489
    10  O   -0.536941
    11  C   -0.474342
    12  H    0.183684
    13  H    0.156504
    14  H    0.188996
    15  O   -0.639075
    16  H    0.435283
    17  N   -0.598913
    18  H    0.370069
    19  C   -0.077286
    20  H    0.186782
    21  C    0.628588
    22  C   -0.073736
    23  H    0.141478
    24  O   -0.562132
    25  C   -0.250799
    26  H    0.117630
    27  H    0.150202
    28  C   -0.480909
    29  H    0.155025
    30  H    0.168756
    31  H    0.177728
    32  C   -0.454016
    33  H    0.154544
    34  H    0.165192
    35  H    0.150141
    36  N   -0.607920
    37  H    0.370451
    38  C   -0.051359
    39  H    0.187645
    40  C    0.630808
    41  C   -0.446995
    42  H    0.167705
    43  H    0.164971
    44  H    0.172239
    45  O   -0.546265
    46  N   -0.625150
    47  H    0.358807
    48  C   -0.043176
    49  H    0.173012
    50  C    0.612958
    51  C   -0.264449
    52  H    0.158792
    53  H    0.189935
    54  O   -0.532345
    55  C   -0.394730
    56  H    0.159873
    57  H    0.171332
    58  C    0.590942
    59  N   -0.778581
    60  H    0.384082
    61  H    0.334115
    62  O   -0.515407
    63  N   -0.591967
    64  H    0.344487
    65  C   -0.073753
    66  H    0.188894
    67  C    0.640708
    68  C   -0.361200
    69  H    0.153289
    70  H    0.163944
    71  O   -0.566003
    72  C    0.151158
    73  C   -0.193903
    74  H    0.128910
    75  C   -0.202229
    76  H    0.124816
    77  C   -0.202361
    78  H    0.138548
    79  C   -0.152603
    80  H    0.140047
    81  O   -0.719033
    82  C    0.364482
    83  N   -0.589578
    84  H    0.369281
    85  C   -0.046002
    86  H    0.173054
    87  C    0.621918
    88  C   -0.450735
    89  H    0.155428
    90  H    0.173265
    91  H    0.170122
    92  O   -0.526217
    93  N   -0.616547
    94  H    0.352978
    95  C   -0.038486
    96  H    0.201687
    97  C    0.584218
    98  C   -0.275993
    99  H    0.195304
   100  H    0.157838
   101  O   -0.473676
   102  C   -0.287483
   103  H    0.138260
   104  H    0.152162
   105  C   -0.152632
   106  H    0.127862
   107  H    0.137709
   108  N   -0.562109
   109  H    0.468318
   110  N   -0.762317
   111  H    0.342137
   112  H    0.346843
   113  N   -0.780570
   114  H    0.331420
   115  H    0.361607
   116  C    0.688840
   117  O   -0.559294
   118  H    0.421611
 Sum of Mulliken charges =   1.00000

 Dipole moment (field-independent basis, Debye):
    X=            -11.7289    Y=             -4.3628    Z=            -25.3463  Tot=             28.2672
 Quadrupole moment (field-independent basis, Debye-Ang):
   XX=            -46.1609   YY=           -295.5677   ZZ=             63.4914
   XY=            108.7731   XZ=            334.0615   YZ=             97.0609

 Normal termination of Gaussian 16 at Sat Jul  2 15:34:53 2022.
