 Gaussian 16, Revision C.01,
 Gaussian 16:  ES64L-G16RevC.01  3-Jul-2019

 -------------------------------------------------------------------
 # B3LYP/6-31G* guess=read geom=check nosymm integral(ultrafinegrid)
 -------------------------------------------------------------------

 ------------------------------------------------------
 Candidate Structure: Conf:217 Charge calc in gas phase
 ------------------------------------------------------
 Structure from the checkpoint file:  "conf-217.chk"
 Charge =  1 Multiplicity = 1

                          Input orientation:
 ---------------------------------------------------------------------
 Center     Atomic      Atomic             Coordinates (Angstroms)
 Number     Number       Type             X           Y           Z
 ---------------------------------------------------------------------
      1          7           0       -3.563882    0.596877   -6.634913
      2          1           0       -3.543503    1.608020   -6.520374
      3          1           0       -4.002945    0.373517   -7.525899
      4          1           0       -2.027112   -0.225100   -6.656782
      5          6           0       -4.348459   -0.030206   -5.565380
      6          1           0       -5.401698    0.292541   -5.587166
      7          6           0       -3.728168    0.362761   -4.219204
      8          6           0       -4.305499   -1.602656   -5.749640
      9          1           0       -3.469901   -1.986168   -5.149371
     10          8           0       -2.574950    0.801629   -4.142684
     11          6           0       -5.604075   -2.270937   -5.312225
     12          1           0       -5.828460   -2.086084   -4.255997
     13          1           0       -6.441313   -1.909334   -5.919396
     14          1           0       -5.525257   -3.352223   -5.454125
     15          8           0       -4.098962   -1.934038   -7.112863
     16          1           0       -3.135762   -1.956405   -7.257860
     17          7           0       -4.500975    0.149372   -3.126151
     18          1           0       -5.434043   -0.219026   -3.247295
     19          6           0       -4.041176    0.408324   -1.754263
     20          1           0       -3.344117    1.247723   -1.838290
     21          6           0       -3.219508   -0.802364   -1.235273
     22          6           0       -5.220186    0.839379   -0.851247
     23          1           0       -5.632594    1.733534   -1.343456
     24          8           0       -3.579173   -1.543245   -0.326600
     25          6           0       -4.752323    1.269738    0.557006
     26          1           0       -4.370887    0.392900    1.090636
     27          1           0       -5.645082    1.600836    1.102931
     28          6           0       -6.346197   -0.205589   -0.748145
     29          1           0       -5.984341   -1.126798   -0.286964
     30          1           0       -6.787965   -0.458280   -1.721853
     31          1           0       -7.163409    0.192776   -0.137256
     32          6           0       -3.712291    2.396671    0.585959
     33          1           0       -3.537593    2.729164    1.614745
     34          1           0       -4.047271    3.269177    0.010710
     35          1           0       -2.741735    2.082330    0.184211
     36          7           0       -2.040650   -0.971470   -1.906329
     37          1           0       -1.797127   -0.299687   -2.631334
     38          6           0       -1.113777   -2.023813   -1.561354
     39          1           0       -1.526990   -2.487466   -0.655698
     40          6           0        0.239489   -1.406602   -1.168753
     41          6           0       -1.016135   -3.091626   -2.668674
     42          1           0       -0.408565   -3.954366   -2.369865
     43          1           0       -0.594312   -2.675902   -3.589575
     44          1           0       -2.020452   -3.466113   -2.883815
     45          8           0        0.392783   -0.203429   -0.980966
     46          7           0        1.294359   -2.277640   -1.019977
     47          1           0        1.104827   -3.269656   -1.074394
     48          6           0        2.478449   -1.862129   -0.269446
     49          1           0        2.150522   -1.345868    0.641099
     50          6           0        3.347217   -0.833397   -1.010903
     51          6           0        3.347531   -3.084767    0.111287
     52          1           0        3.972431   -3.361103   -0.745258
     53          1           0        2.690963   -3.938926    0.316258
     54          8           0        4.212286   -0.218133   -0.368392
     55          6           0        4.232574   -2.809843    1.355185
     56          1           0        4.399259   -1.734510    1.444956
     57          1           0        3.722271   -3.149139    2.263141
     58          6           0        5.610374   -3.437862    1.211002
     59          7           0        5.831962   -4.590062    1.884652
     60          1           0        5.140996   -5.009671    2.488417
     61          1           0        6.731182   -5.044719    1.794541
     62          8           0        6.473922   -2.932191    0.487347
     63          7           0        3.144044   -0.678787   -2.330344
     64          1           0        2.386095   -1.193683   -2.766291
     65          6           0        3.825263    0.330066   -3.129885
     66          1           0        4.870111    0.362560   -2.808064
     67          6           0        3.291912    1.764988   -2.922736
     68          6           0        3.805517   -0.051862   -4.633734
     69          1           0        4.424459   -0.947570   -4.757901
     70          1           0        4.308136    0.765848   -5.160085
     71          8           0        3.930699    2.698380   -3.431148
     72          6           0        2.423916   -0.297726   -5.201831
     73          6           0        1.976587   -1.596189   -5.486153
     74          1           0        2.647298   -2.439875   -5.332140
     75          6           0        1.543535    0.766658   -5.459110
     76          1           0        1.872830    1.788097   -5.286926
     77          6           0        0.699228   -1.832669   -5.996056
     78          1           0        0.369585   -2.838971   -6.236883
     79          6           0        0.262952    0.546636   -5.952460
     80          1           0       -0.407772    1.381366   -6.128488
     81          8           0       -1.408457   -1.021387   -6.711836
     82          6           0       -0.175015   -0.760811   -6.221204
     83          7           0        2.160653    1.935452   -2.216102
     84          1           0        1.676364    1.141246   -1.802332
     85          6           0        1.542850    3.259099   -2.047900
     86          1           0        1.704401    3.801593   -2.985842
     87          6           0        2.245843    4.044333   -0.910891
     88          6           0        0.049763    3.114612   -1.770268
     89          1           0       -0.408697    4.104719   -1.699343
     90          1           0       -0.437086    2.556784   -2.576379
     91          1           0       -0.117849    2.599376   -0.821398
     92          8           0        1.776262    4.131017    0.215329
     93          7           0        3.433330    4.617241   -1.280818
     94          1           0        3.738513    4.478060   -2.239277
     95          6           0        4.147722    5.528426   -0.410607
     96          1           0        3.653916    5.435068    0.565276
     97          6           0        3.992384    7.001512   -0.812501
     98          6           0        5.643932    5.194766   -0.248438
     99          1           0        6.060890    5.931991    0.441481
    100          1           0        6.158404    5.362976   -1.205279
    101          8           0        4.741116    7.879674   -0.445988
    102          6           0        5.910548    3.760631    0.257921
    103          1           0        5.013598    3.351068    0.736904
    104          1           0        6.692390    3.774388    1.028171
    105          6           0        6.335309    2.820126   -0.881228
    106          1           0        7.268874    3.162292   -1.345174
    107          1           0        5.588197    2.820878   -1.678323
    108          7           0        6.498668    1.421631   -0.461922
    109          1           0        5.653506    0.835932   -0.467838
    110          7           0        8.720444    1.619749    0.229913
    111          1           0        9.627355    1.178309    0.269259
    112          1           0        8.710318    2.611735    0.051075
    113          7           0        7.686228   -0.444446    0.238378
    114          1           0        8.456167   -0.813457    0.777220
    115          1           0        6.911139   -1.100811    0.109018
    116          6           0        7.616794    0.870908   -0.002687
    117          8           0        2.915443    7.225305   -1.593881
    118          1           0        2.888386    8.189535   -1.746882
 ---------------------------------------------------------------------

 SCF Done:  E(RB3LYP) =  -2837.69755993     A.U. after    1 cycles

 Alpha  occ. eigenvalues --  -19.26310 -19.23140 -19.22411 -19.22179 -19.22157
 Alpha  occ. eigenvalues --  -19.20660 -19.20447 -19.19999 -19.19982 -19.18559
 Alpha  occ. eigenvalues --  -19.18137 -14.49448 -14.47973 -14.47671 -14.46997
 Alpha  occ. eigenvalues --  -14.46685 -14.46482 -14.44443 -14.44136 -14.42456
 Alpha  occ. eigenvalues --  -14.42456 -14.41390 -10.45062 -10.39957 -10.39844
 Alpha  occ. eigenvalues --  -10.39133 -10.38609 -10.37124 -10.36915 -10.35641
 Alpha  occ. eigenvalues --  -10.35221 -10.34504 -10.32818 -10.32725 -10.31998
 Alpha  occ. eigenvalues --  -10.31338 -10.31279 -10.31153 -10.30946 -10.30444
 Alpha  occ. eigenvalues --  -10.30436 -10.30278 -10.29844 -10.28013 -10.27636
 Alpha  occ. eigenvalues --  -10.27138 -10.26993 -10.26227 -10.26173 -10.25843
 Alpha  occ. eigenvalues --  -10.25777 -10.25116 -10.25081 -10.24546 -10.24051
 Alpha  occ. eigenvalues --  -10.23382 -10.23238 -10.22766  -1.17196  -1.14936
 Alpha  occ. eigenvalues --   -1.14060  -1.13742  -1.13389  -1.11842  -1.11730
 Alpha  occ. eigenvalues --   -1.10526  -1.10239  -1.09936  -1.08408  -1.08104
 Alpha  occ. eigenvalues --   -1.04034  -1.02767  -1.02604  -1.01566  -1.00967
 Alpha  occ. eigenvalues --   -1.00638  -1.00113  -0.99372  -0.99203  -0.97351
 Alpha  occ. eigenvalues --   -0.92136  -0.90756  -0.88695  -0.87534  -0.87267
 Alpha  occ. eigenvalues --   -0.85579  -0.84554  -0.83633  -0.82768  -0.82338
 Alpha  occ. eigenvalues --   -0.81320  -0.80039  -0.79670  -0.78201  -0.77658
 Alpha  occ. eigenvalues --   -0.75557  -0.75196  -0.74745  -0.74006  -0.73177
 Alpha  occ. eigenvalues --   -0.71444  -0.71259  -0.70203  -0.69996  -0.69585
 Alpha  occ. eigenvalues --   -0.68827  -0.68485  -0.68452  -0.67467  -0.67210
 Alpha  occ. eigenvalues --   -0.67078  -0.66215  -0.66112  -0.65575  -0.65438
 Alpha  occ. eigenvalues --   -0.65003  -0.64305  -0.63879  -0.62923  -0.62700
 Alpha  occ. eigenvalues --   -0.61858  -0.61350  -0.61164  -0.60598  -0.60424
 Alpha  occ. eigenvalues --   -0.59683  -0.58999  -0.58381  -0.57952  -0.57818
 Alpha  occ. eigenvalues --   -0.57216  -0.56797  -0.56409  -0.56001  -0.55781
 Alpha  occ. eigenvalues --   -0.55583  -0.55224  -0.54927  -0.54724  -0.54348
 Alpha  occ. eigenvalues --   -0.54141  -0.53776  -0.53441  -0.53228  -0.53004
 Alpha  occ. eigenvalues --   -0.52171  -0.52006  -0.51639  -0.51453  -0.51240
 Alpha  occ. eigenvalues --   -0.50883  -0.50749  -0.50572  -0.50337  -0.49989
 Alpha  occ. eigenvalues --   -0.49413  -0.49342  -0.49059  -0.48977  -0.48792
 Alpha  occ. eigenvalues --   -0.48466  -0.48320  -0.48138  -0.47572  -0.47398
 Alpha  occ. eigenvalues --   -0.47360  -0.47164  -0.46945  -0.46771  -0.46599
 Alpha  occ. eigenvalues --   -0.46425  -0.46244  -0.46153  -0.46045  -0.45831
 Alpha  occ. eigenvalues --   -0.45681  -0.45562  -0.45156  -0.45116  -0.44798
 Alpha  occ. eigenvalues --   -0.44311  -0.44229  -0.43621  -0.43472  -0.43122
 Alpha  occ. eigenvalues --   -0.42928  -0.42660  -0.42469  -0.42387  -0.42077
 Alpha  occ. eigenvalues --   -0.41711  -0.41109  -0.40056  -0.40019  -0.39328
 Alpha  occ. eigenvalues --   -0.39052  -0.38987  -0.38592  -0.38480  -0.38348
 Alpha  occ. eigenvalues --   -0.38245  -0.38204  -0.37537  -0.37050  -0.36393
 Alpha  occ. eigenvalues --   -0.35753  -0.35594  -0.35339  -0.35147  -0.35063
 Alpha  occ. eigenvalues --   -0.34996  -0.33693  -0.33274  -0.32902  -0.32411
 Alpha  occ. eigenvalues --   -0.31902  -0.31242  -0.30940  -0.30867  -0.28147
 Alpha virt. eigenvalues --   -0.09057  -0.08905  -0.08516  -0.07977  -0.07700
 Alpha virt. eigenvalues --   -0.06631  -0.06303  -0.05878  -0.05681  -0.05459
 Alpha virt. eigenvalues --   -0.04592  -0.04232  -0.03343  -0.02702  -0.02067

 Mulliken charges:
               1
     1  N   -0.779581
     2  H    0.331757
     3  H    0.344319
     4  H    0.482882
     5  C   -0.070565
     6  H    0.146696
     7  C    0.612417
     8  C    0.132450
     9  H    0.142166
    10  O   -0.547919
    11  C   -0.461002
    12  H    0.133875
    13  H    0.166571
    14  H    0.176556
    15  O   -0.642517
    16  H    0.429148
    17  N   -0.614314
    18  H    0.347319
    19  C   -0.073334
    20  H    0.191341
    21  C    0.626369
    22  C   -0.088188
    23  H    0.132218
    24  O   -0.518953
    25  C   -0.266633
    26  H    0.169703
    27  H    0.141063
    28  C   -0.478141
    29  H    0.195158
    30  H    0.119805
    31  H    0.159260
    32  C   -0.464206
    33  H    0.157887
    34  H    0.144396
    35  H    0.150613
    36  N   -0.607542
    37  H    0.376167
    38  C   -0.072729
    39  H    0.211304
    40  C    0.612270
    41  C   -0.470296
    42  H    0.136225
    43  H    0.181988
    44  H    0.186049
    45  O   -0.510447
    46  N   -0.658040
    47  H    0.344721
    48  C   -0.012346
    49  H    0.201203
    50  C    0.641496
    51  C   -0.315081
    52  H    0.185015
    53  H    0.159668
    54  O   -0.566758
    55  C   -0.360997
    56  H    0.210345
    57  H    0.158556
    58  C    0.588159
    59  N   -0.724546
    60  H    0.356466
    61  H    0.359817
    62  O   -0.538248
    63  N   -0.611045
    64  H    0.363969
    65  C   -0.032784
    66  H    0.168720
    67  C    0.643440
    68  C   -0.379095
    69  H    0.158347
    70  H    0.194745
    71  O   -0.577715
    72  C    0.129724
    73  C   -0.212965
    74  H    0.126094
    75  C   -0.196457
    76  H    0.150399
    77  C   -0.173725
    78  H    0.140204
    79  C   -0.176966
    80  H    0.145014
    81  O   -0.724293
    82  C    0.376438
    83  N   -0.628441
    84  H    0.404776
    85  C   -0.059605
    86  H    0.174263
    87  C    0.623748
    88  C   -0.482155
    89  H    0.169257
    90  H    0.168137
    91  H    0.190932
    92  O   -0.510536
    93  N   -0.615553
    94  H    0.359922
    95  C   -0.067573
    96  H    0.221048
    97  C    0.596185
    98  C   -0.285452
    99  H    0.189914
   100  H    0.147532
   101  O   -0.457368
   102  C   -0.267714
   103  H    0.181031
   104  H    0.140724
   105  C   -0.211272
   106  H    0.155748
   107  H    0.217993
   108  N   -0.626083
   109  H    0.426348
   110  N   -0.763574
   111  H    0.370822
   112  H    0.379695
   113  N   -0.786539
   114  H    0.360940
   115  H    0.410865
   116  C    0.799471
   117  O   -0.560745
   118  H    0.420179
 Sum of Mulliken charges =   1.00000

 Dipole moment (field-independent basis, Debye):
    X=             18.6967    Y=             -4.6469    Z=             -4.6013  Tot=             19.8074
 Quadrupole moment (field-independent basis, Debye-Ang):
   XX=           -117.5532   YY=           -285.4783   ZZ=           -311.2957
   XY=            -24.4140   XZ=             42.1730   YZ=            -31.0470

 Normal termination of Gaussian 16 at Sat Jul  2 15:35:16 2022.
