 Gaussian 16, Revision C.01,
 Gaussian 16:  ES64L-G16RevC.01  3-Jul-2019

 -------------------------------------------------------------------
 # B3LYP/6-31G* guess=read geom=check nosymm integral(ultrafinegrid)
 -------------------------------------------------------------------

 ------------------------------------------------------
 Candidate Structure: Conf:553 Charge calc in gas phase
 ------------------------------------------------------
 Structure from the checkpoint file:  "conf-553.chk"
 Charge =  1 Multiplicity = 1

                          Input orientation:
 ---------------------------------------------------------------------
 Center     Atomic      Atomic             Coordinates (Angstroms)
 Number     Number       Type             X           Y           Z
 ---------------------------------------------------------------------
      1          7           0       -6.551517   -3.263082   -9.434031
      2          1           0       -7.148259   -4.064815   -9.213793
      3          1           0       -6.315419   -3.263094  -10.442213
      4          1           0       -7.040322   -2.388078   -9.119158
      5          6           0       -5.260537   -3.245577   -8.661423
      6          1           0       -5.002228   -4.270727   -8.384001
      7          6           0       -5.567709   -2.338023   -7.443737
      8          6           0       -4.177218   -2.630203   -9.607958
      9          1           0       -4.348135   -1.548049   -9.644207
     10          8           0       -6.533225   -1.568917   -7.544431
     11          6           0       -2.754185   -2.923849   -9.152317
     12          1           0       -2.548061   -2.517728   -8.157377
     13          1           0       -2.565278   -4.005145   -9.123601
     14          1           0       -2.048552   -2.466490   -9.851772
     15          8           0       -4.438797   -3.093241  -10.935117
     16          1           0       -3.864506   -3.851274  -11.135177
     17          7           0       -4.740079   -2.438363   -6.410314
     18          1           0       -3.908205   -3.032453   -6.434587
     19          6           0       -4.713435   -1.527703   -5.261581
     20          1           0       -5.017597   -0.537148   -5.611427
     21          6           0       -3.219763   -1.513110   -4.852063
     22          6           0       -5.696172   -1.998499   -4.144897
     23          1           0       -6.648736   -2.148744   -4.672403
     24          8           0       -2.455901   -2.381072   -5.299421
     25          6           0       -5.955414   -0.938877   -3.051893
     26          1           0       -5.049639   -0.775254   -2.454283
     27          1           0       -6.684212   -1.379451   -2.359791
     28          6           0       -5.266414   -3.336997   -3.527364
     29          1           0       -4.334902   -3.237732   -2.958291
     30          1           0       -5.112788   -4.110986   -4.287333
     31          1           0       -6.036846   -3.698561   -2.838657
     32          6           0       -6.505424    0.403876   -3.550297
     33          1           0       -6.790111    1.036055   -2.703570
     34          1           0       -7.393689    0.263704   -4.177744
     35          1           0       -5.773937    0.974398   -4.135925
     36          7           0       -2.835850   -0.536379   -4.022261
     37          1           0       -3.492132    0.132386   -3.622931
     38          6           0       -1.495475   -0.430833   -3.456742
     39          1           0       -1.163866   -1.432222   -3.158124
     40          6           0       -1.653106    0.460078   -2.204216
     41          6           0       -0.488068    0.153804   -4.461767
     42          1           0        0.514794    0.207187   -4.026679
     43          1           0       -0.786819    1.162506   -4.764747
     44          1           0       -0.442996   -0.486934   -5.346165
     45          8           0       -2.717388    1.045649   -1.981149
     46          7           0       -0.565932    0.549688   -1.419690
     47          1           0        0.305521    0.075538   -1.644221
     48          6           0       -0.462535    1.445638   -0.273510
     49          1           0       -0.967158    2.384828   -0.511375
     50          6           0        1.048582    1.685525   -0.082441
     51          6           0       -1.137202    0.803959    0.967773
     52          1           0       -0.668373   -0.171042    1.145261
     53          1           0       -2.180440    0.617844    0.690353
     54          8           0        1.863673    0.858778   -0.522210
     55          6           0       -1.088806    1.605682    2.287819
     56          1           0       -1.619570    1.031271    3.055279
     57          1           0       -0.053468    1.709225    2.629820
     58          6           0       -1.658653    3.014348    2.169393
     59          7           0       -2.815431    3.260396    2.829019
     60          1           0       -3.256216    2.579611    3.428398
     61          1           0       -3.202151    4.194365    2.791806
     62          8           0       -1.104844    3.887812    1.493855
     63          7           0        1.387032    2.808114    0.570730
     64          1           0        0.630693    3.407063    0.919425
     65          6           0        2.785989    3.173201    0.832650
     66          1           0        3.358432    2.815643   -0.028051
     67          6           0        3.283337    2.418103    2.090991
     68          6           0        2.904618    4.696765    0.958009
     69          1           0        2.354807    5.011469    1.851988
     70          1           0        2.381607    5.128585    0.092421
     71          8           0        3.328148    2.939175    3.207558
     72          6           0        4.324005    5.230281    1.037110
     73          6           0        4.610489    6.324623    1.862564
     74          1           0        3.812026    6.765647    2.456006
     75          6           0        5.378430    4.706615    0.273907
     76          1           0        5.205740    3.873709   -0.403963
     77          6           0        5.891569    6.868502    1.948549
     78          1           0        6.084254    7.722785    2.590826
     79          6           0        6.669533    5.219578    0.365095
     80          1           0        7.483705    4.790627   -0.211180
     81          8           0        8.231854    6.716520    1.309269
     82          6           0        6.948787    6.299092    1.218389
     83          7           0        3.615535    1.125669    1.852597
     84          1           0        3.458865    0.761141    0.917188
     85          6           0        3.987025    0.183735    2.915718
     86          1           0        3.403867    0.455266    3.803027
     87          6           0        5.490115    0.348220    3.246167
     88          6           0        3.678082   -1.246131    2.486070
     89          1           0        3.881822   -1.937153    3.308550
     90          1           0        2.626318   -1.342241    2.196221
     91          1           0        4.316898   -1.538945    1.648014
     92          8           0        6.350227   -0.399373    2.796219
     93          7           0        5.767250    1.402292    4.059712
     94          1           0        5.019039    2.066086    4.231692
     95          6           0        7.145341    1.787423    4.306358
     96          1           0        7.662220    1.945382    3.351825
     97          6           0        7.880632    0.666797    5.046755
     98          6           0        7.231659    3.074101    5.153268
     99          1           0        8.287866    3.362132    5.199216
    100          1           0        6.913706    2.848110    6.179495
    101          8           0        7.397981   -0.069730    5.873592
    102          6           0        6.396473    4.239347    4.599314
    103          1           0        5.331295    4.078941    4.798517
    104          1           0        6.484762    4.292897    3.506308
    105          6           0        6.775840    5.600274    5.189642
    106          1           0        6.886213    5.518716    6.278057
    107          1           0        5.965140    6.315626    4.997640
    108          7           0        8.039605    6.081482    4.598219
    109          1           0        8.144716    5.793885    3.629818
    110          7           0        8.288395    7.927162    5.997125
    111          1           0        8.674827    8.851084    6.137942
    112          1           0        8.506338    7.281352    6.746001
    113          7           0        8.719087    8.083979    3.653687
    114          1           0        9.089967    9.009184    3.866649
    115          1           0        8.366402    7.361567    2.065398
    116          6           0        8.385206    7.418991    4.713490
    117          8           0        9.193912    0.660852    4.718260
    118          1           0        9.605203   -0.041786    5.256006
 ---------------------------------------------------------------------

 SCF Done:  E(RB3LYP) =  -2837.65256848     A.U. after    1 cycles

 Alpha  occ. eigenvalues --  -19.30862 -19.26519 -19.22199 -19.22105 -19.20169
 Alpha  occ. eigenvalues --  -19.19416 -19.19149 -19.17295 -19.16847 -19.16149
 Alpha  occ. eigenvalues --  -19.14645 -14.59666 -14.49355 -14.45564 -14.43793
 Alpha  occ. eigenvalues --  -14.43750 -14.42355 -14.40741 -14.39871 -14.38633
 Alpha  occ. eigenvalues --  -14.38224 -14.34164 -10.43609 -10.40736 -10.40141
 Alpha  occ. eigenvalues --  -10.39188 -10.37200 -10.37062 -10.35882 -10.34339
 Alpha  occ. eigenvalues --  -10.34313 -10.33696 -10.33228 -10.32378 -10.31644
 Alpha  occ. eigenvalues --  -10.31494 -10.30777 -10.29320 -10.28789 -10.27534
 Alpha  occ. eigenvalues --  -10.27403 -10.27254 -10.26884 -10.26874 -10.26845
 Alpha  occ. eigenvalues --  -10.26490 -10.26453 -10.25947 -10.25635 -10.23636
 Alpha  occ. eigenvalues --  -10.23067 -10.22619 -10.22305 -10.22104 -10.21873
 Alpha  occ. eigenvalues --  -10.21724 -10.20937 -10.20774  -1.19483  -1.17909
 Alpha  occ. eigenvalues --   -1.14143  -1.13376  -1.12899  -1.12024  -1.11070
 Alpha  occ. eigenvalues --   -1.10626  -1.08375  -1.06447  -1.06002  -1.05753
 Alpha  occ. eigenvalues --   -1.03848  -1.02264  -1.02161  -1.00436  -0.99098
 Alpha  occ. eigenvalues --   -0.98258  -0.97044  -0.95486  -0.93583  -0.93086
 Alpha  occ. eigenvalues --   -0.90728  -0.89246  -0.88151  -0.87630  -0.86098
 Alpha  occ. eigenvalues --   -0.85521  -0.83852  -0.83141  -0.82752  -0.80930
 Alpha  occ. eigenvalues --   -0.80608  -0.79690  -0.77882  -0.77822  -0.77137
 Alpha  occ. eigenvalues --   -0.75934  -0.74698  -0.74291  -0.73212  -0.72427
 Alpha  occ. eigenvalues --   -0.71995  -0.70972  -0.70734  -0.70322  -0.68869
 Alpha  occ. eigenvalues --   -0.68071  -0.67056  -0.66593  -0.66279  -0.65952
 Alpha  occ. eigenvalues --   -0.65132  -0.64874  -0.64751  -0.64260  -0.64135
 Alpha  occ. eigenvalues --   -0.63308  -0.63095  -0.62250  -0.61600  -0.61237
 Alpha  occ. eigenvalues --   -0.60713  -0.60371  -0.59469  -0.58914  -0.58598
 Alpha  occ. eigenvalues --   -0.57888  -0.57724  -0.57623  -0.56924  -0.56355
 Alpha  occ. eigenvalues --   -0.56302  -0.56127  -0.55690  -0.55618  -0.54908
 Alpha  occ. eigenvalues --   -0.54400  -0.54073  -0.53765  -0.53384  -0.53088
 Alpha  occ. eigenvalues --   -0.52846  -0.52166  -0.52006  -0.51499  -0.51355
 Alpha  occ. eigenvalues --   -0.51299  -0.51179  -0.50908  -0.50671  -0.50583
 Alpha  occ. eigenvalues --   -0.50218  -0.50002  -0.49967  -0.49324  -0.49196
 Alpha  occ. eigenvalues --   -0.48939  -0.48545  -0.48392  -0.48311  -0.48144
 Alpha  occ. eigenvalues --   -0.48116  -0.47172  -0.47043  -0.46744  -0.46685
 Alpha  occ. eigenvalues --   -0.46231  -0.45868  -0.45460  -0.45415  -0.45270
 Alpha  occ. eigenvalues --   -0.45008  -0.44874  -0.44720  -0.44433  -0.44253
 Alpha  occ. eigenvalues --   -0.44167  -0.43841  -0.43672  -0.43326  -0.42996
 Alpha  occ. eigenvalues --   -0.42790  -0.42718  -0.42387  -0.42305  -0.42147
 Alpha  occ. eigenvalues --   -0.42016  -0.41762  -0.41638  -0.41504  -0.41478
 Alpha  occ. eigenvalues --   -0.40562  -0.40124  -0.39577  -0.39438  -0.38685
 Alpha  occ. eigenvalues --   -0.38514  -0.37924  -0.37766  -0.37480  -0.36293
 Alpha  occ. eigenvalues --   -0.35931  -0.35509  -0.34892  -0.34469  -0.34350
 Alpha  occ. eigenvalues --   -0.34049  -0.33978  -0.33527  -0.33084  -0.32661
 Alpha  occ. eigenvalues --   -0.31671  -0.31603  -0.30369  -0.30179  -0.29712
 Alpha  occ. eigenvalues --   -0.28441  -0.27731  -0.27504  -0.27407  -0.23607
 Alpha virt. eigenvalues --   -0.12570  -0.10528  -0.07982  -0.06097  -0.05799
 Alpha virt. eigenvalues --   -0.05520  -0.04987  -0.04803  -0.03476  -0.02952
 Alpha virt. eigenvalues --   -0.02336  -0.01590  -0.01485  -0.01281  -0.00834

 Mulliken charges:
               1
     1  N   -0.747183
     2  H    0.414461
     3  H    0.427023
     4  H    0.426930
     5  C   -0.140096
     6  H    0.202709
     7  C    0.646632
     8  C    0.130576
     9  H    0.193857
    10  O   -0.536233
    11  C   -0.512250
    12  H    0.204324
    13  H    0.165874
    14  H    0.207496
    15  O   -0.630370
    16  H    0.425313
    17  N   -0.604689
    18  H    0.374254
    19  C   -0.082676
    20  H    0.194348
    21  C    0.635270
    22  C   -0.073699
    23  H    0.150030
    24  O   -0.562890
    25  C   -0.282638
    26  H    0.156116
    27  H    0.155067
    28  C   -0.463267
    29  H    0.164174
    30  H    0.138577
    31  H    0.166547
    32  C   -0.460980
    33  H    0.171649
    34  H    0.156856
    35  H    0.143591
    36  N   -0.623332
    37  H    0.380325
    38  C   -0.048218
    39  H    0.186991
    40  C    0.626121
    41  C   -0.452040
    42  H    0.170840
    43  H    0.166680
    44  H    0.179285
    45  O   -0.548945
    46  N   -0.624421
    47  H    0.362550
    48  C   -0.046005
    49  H    0.203320
    50  C    0.605194
    51  C   -0.268924
    52  H    0.161679
    53  H    0.176636
    54  O   -0.571902
    55  C   -0.381984
    56  H    0.152955
    57  H    0.197703
    58  C    0.622612
    59  N   -0.733447
    60  H    0.351431
    61  H    0.358076
    62  O   -0.525897
    63  N   -0.637806
    64  H    0.399625
    65  C   -0.065057
    66  H    0.178492
    67  C    0.640745
    68  C   -0.369217
    69  H    0.168014
    70  H    0.158245
    71  O   -0.550600
    72  C    0.178642
    73  C   -0.192606
    74  H    0.121305
    75  C   -0.199089
    76  H    0.119227
    77  C   -0.204958
    78  H    0.138612
    79  C   -0.169155
    80  H    0.138060
    81  O   -0.692126
    82  C    0.341266
    83  N   -0.610283
    84  H    0.368565
    85  C   -0.058265
    86  H    0.166456
    87  C    0.641492
    88  C   -0.467475
    89  H    0.175719
    90  H    0.136404
    91  H    0.180097
    92  O   -0.522071
    93  N   -0.629082
    94  H    0.373473
    95  C   -0.002213
    96  H    0.177786
    97  C    0.598000
    98  C   -0.307453
    99  H    0.175734
   100  H    0.157919
   101  O   -0.465815
   102  C   -0.320979
   103  H    0.168507
   104  H    0.173169
   105  C   -0.118302
   106  H    0.140422
   107  H    0.155001
   108  N   -0.606321
   109  H    0.343940
   110  N   -0.739670
   111  H    0.333330
   112  H    0.341131
   113  N   -0.712123
   114  H    0.284101
   115  H    0.455899
   116  C    0.637574
   117  O   -0.569767
   118  H    0.411494
 Sum of Mulliken charges =   1.00000

 Dipole moment (field-independent basis, Debye):
    X=            -24.8459    Y=             -8.3557    Z=            -27.4054  Tot=             37.9235
 Quadrupole moment (field-independent basis, Debye-Ang):
   XX=           -197.1728   YY=           -251.0580   ZZ=             23.4550
   XY=            109.5695   XZ=            212.3706   YZ=            187.2142

 Normal termination of Gaussian 16 at Sat Jul  2 15:34:56 2022.
