 Gaussian 16, Revision C.01,
 Gaussian 16:  ES64L-G16RevC.01  3-Jul-2019

 -------------------------------------------------------------------
 # B3LYP/6-31G* guess=read geom=check nosymm integral(ultrafinegrid)
 -------------------------------------------------------------------

 -----------------------------------------------------
 Candidate Structure: Conf:81 Charge calc in gas phase
 -----------------------------------------------------
 Structure from the checkpoint file:  "conf-81.chk"
 Charge =  1 Multiplicity = 1

                          Input orientation:
 ---------------------------------------------------------------------
 Center     Atomic      Atomic             Coordinates (Angstroms)
 Number     Number       Type             X           Y           Z
 ---------------------------------------------------------------------
      1          7           0       -7.696428   -4.168090   -6.633489
      2          1           0       -8.641173   -4.063414   -6.256102
      3          1           0       -7.674820   -4.920108   -7.341790
      4          1           0       -7.368130   -3.227019   -6.991303
      5          6           0       -6.663627   -4.480448   -5.585946
      6          1           0       -7.147367   -4.982827   -4.744557
      7          6           0       -6.084011   -3.085564   -5.227853
      8          6           0       -5.601921   -5.402421   -6.262854
      9          1           0       -4.998885   -4.774069   -6.928276
     10          8           0       -6.244374   -2.194656   -6.078113
     11          6           0       -4.707182   -6.118236   -5.260594
     12          1           0       -4.143681   -5.419811   -4.632578
     13          1           0       -5.301110   -6.763972   -4.599252
     14          1           0       -3.989351   -6.742643   -5.800609
     15          8           0       -6.288584   -6.309492   -7.135093
     16          1           0       -6.449009   -7.142371   -6.661076
     17          7           0       -5.453682   -2.999268   -4.068610
     18          1           0       -5.252176   -3.844168   -3.526564
     19          6           0       -4.562063   -1.910844   -3.640363
     20          1           0       -4.258860   -1.336357   -4.519464
     21          6           0       -3.344118   -2.659022   -3.042508
     22          6           0       -5.221792   -0.935623   -2.626148
     23          1           0       -4.442986   -0.181759   -2.457809
     24          8           0       -3.449957   -3.874930   -2.776589
     25          6           0       -5.568841   -1.618196   -1.288586
     26          1           0       -4.682077   -2.140639   -0.913410
     27          1           0       -6.347038   -2.380784   -1.451878
     28          6           0       -6.420592   -0.228730   -3.274405
     29          1           0       -7.254153   -0.921416   -3.454030
     30          1           0       -6.140903    0.222262   -4.231936
     31          1           0       -6.792486    0.572286   -2.628560
     32          6           0       -6.034839   -0.642352   -0.201467
     33          1           0       -6.201555   -1.170395    0.744350
     34          1           0       -6.970353   -0.136536   -0.465011
     35          1           0       -5.273298    0.125234   -0.021782
     36          7           0       -2.259503   -1.910267   -2.854403
     37          1           0       -2.309973   -0.876560   -3.113508
     38          6           0       -1.100550   -2.413813   -2.136940
     39          1           0       -1.269532   -3.487394   -1.992635
     40          6           0       -1.095053   -1.791533   -0.714694
     41          6           0        0.180324   -2.203558   -2.956908
     42          1           0        1.040920   -2.708712   -2.501483
     43          1           0        0.408002   -1.138419   -3.072163
     44          1           0        0.045890   -2.633068   -3.953827
     45          8           0       -2.139078   -1.572999   -0.111875
     46          7           0        0.131529   -1.553513   -0.156728
     47          1           0        0.972673   -1.697215   -0.697081
     48          6           0        0.278687   -0.852091    1.120541
     49          1           0       -0.680558   -0.358714    1.303029
     50          6           0        1.393913    0.183624    0.927776
     51          6           0        0.617205   -1.778770    2.297971
     52          1           0        0.761533   -1.171738    3.199053
     53          1           0        1.577163   -2.268034    2.101852
     54          8           0        2.577182   -0.176358    0.829618
     55          6           0       -0.467261   -2.819452    2.577533
     56          1           0       -1.448707   -2.332786    2.662900
     57          1           0       -0.556504   -3.524969    1.743105
     58          6           0       -0.196732   -3.581026    3.875289
     59          7           0       -0.884351   -4.759060    4.001369
     60          1           0       -1.632816   -5.003053    3.369356
     61          1           0       -0.854608   -5.222783    4.899152
     62          8           0        0.574284   -3.182594    4.737279
     63          7           0        1.012413    1.479680    0.861812
     64          1           0        0.022834    1.662241    0.713847
     65          6           0        1.909257    2.522392    0.337632
     66          1           0        2.568252    2.035625   -0.392888
     67          6           0        2.802958    3.068687    1.467844
     68          6           0        1.089427    3.626987   -0.371101
     69          1           0        1.806122    4.281463   -0.883430
     70          1           0        0.600348    4.244052    0.390562
     71          8           0        2.714500    4.227057    1.893053
     72          6           0        0.077604    3.023422   -1.315405
     73          6           0        0.473101    2.386466   -2.504044
     74          1           0        1.508589    2.474944   -2.837522
     75          6           0       -1.275364    2.909923   -0.945812
     76          1           0       -1.624399    3.426684   -0.049622
     77          6           0       -0.417448    1.633819   -3.258613
     78          1           0       -0.096663    1.162220   -4.185322
     79          6           0       -2.178841    2.157287   -1.687467
     80          1           0       -3.217875    2.082852   -1.376167
     81          8           0       -2.579039    0.647264   -3.499216
     82          6           0       -1.779002    1.438958   -2.856319
     83          7           0        3.711179    2.176774    1.943139
     84          1           0        3.636108    1.219272    1.584356
     85          6           0        4.452746    2.403870    3.186757
     86          1           0        3.796224    2.963677    3.865486
     87          6           0        5.683689    3.296856    2.912710
     88          6           0        4.849837    1.072274    3.815985
     89          1           0        5.369473    1.236597    4.763621
     90          1           0        3.956958    0.470484    4.007521
     91          1           0        5.520434    0.512482    3.157918
     92          8           0        6.842096    2.848519    2.973168
     93          7           0        5.381830    4.577757    2.611029
     94          1           0        4.383990    4.790871    2.476804
     95          6           0        6.390016    5.565669    2.284789
     96          1           0        7.314131    5.227700    2.752745
     97          6           0        6.142504    6.941700    2.893012
     98          6           0        6.621632    5.708088    0.753691
     99          1           0        7.072417    6.685752    0.544695
    100          1           0        5.641287    5.702018    0.265424
    101          8           0        7.011094    7.789899    2.917167
    102          6           0        7.498935    4.580704    0.184967
    103          1           0        7.295121    4.456606   -0.885283
    104          1           0        7.237936    3.629835    0.657762
    105          6           0        9.012793    4.835481    0.295113
    106          1           0        9.315320    5.574514   -0.453050
    107          1           0        9.569746    3.916572    0.090988
    108          7           0        9.516293    5.376986    1.578756
    109          1           0        9.551457    6.384914    1.674553
    110          7           0        9.543665    3.408484    2.811127
    111          1           0       10.028020    2.838630    3.493183
    112          1           0        8.540459    3.180196    2.672192
    113          7           0       10.863550    5.218254    3.452799
    114          1           0       10.987034    4.871413    4.393629
    115          1           0       11.382045    6.043892    3.187464
    116          6           0        9.963962    4.661968    2.619489
    117          8           0        4.898698    7.119453    3.357890
    118          1           0        4.837281    8.033838    3.696581
 ---------------------------------------------------------------------

 SCF Done:  E(RB3LYP) =  -2837.61371931     A.U. after    2 cycles

 Alpha  occ. eigenvalues --  -19.28811 -19.27256 -19.22869 -19.21811 -19.21478
 Alpha  occ. eigenvalues --  -19.18651 -19.17830 -19.15736 -19.15086 -19.14500
 Alpha  occ. eigenvalues --  -19.07362 -14.55578 -14.51428 -14.50916 -14.49159
 Alpha  occ. eigenvalues --  -14.44116 -14.44097 -14.41888 -14.41508 -14.40295
 Alpha  occ. eigenvalues --  -14.39018 -14.37508 -10.46913 -10.41246 -10.38737
 Alpha  occ. eigenvalues --  -10.37687 -10.36518 -10.36214 -10.34980 -10.34539
 Alpha  occ. eigenvalues --  -10.34339 -10.33174 -10.32458 -10.32259 -10.32237
 Alpha  occ. eigenvalues --  -10.30657 -10.28887 -10.28857 -10.28351 -10.27785
 Alpha  occ. eigenvalues --  -10.27594 -10.27493 -10.26875 -10.24536 -10.22970
 Alpha  occ. eigenvalues --  -10.22584 -10.22454 -10.22383 -10.22337 -10.21589
 Alpha  occ. eigenvalues --  -10.20444 -10.20192 -10.19732 -10.19177 -10.19154
 Alpha  occ. eigenvalues --  -10.18918 -10.17216 -10.17014  -1.19707  -1.15356
 Alpha  occ. eigenvalues --   -1.15348  -1.13649  -1.12554  -1.10613  -1.10147
 Alpha  occ. eigenvalues --   -1.09232  -1.09181  -1.07417  -1.06729  -1.06297
 Alpha  occ. eigenvalues --   -1.04727  -1.03179  -1.01401  -1.00737  -0.98792
 Alpha  occ. eigenvalues --   -0.97793  -0.96401  -0.96344  -0.94714  -0.93602
 Alpha  occ. eigenvalues --   -0.90302  -0.89265  -0.86140  -0.85116  -0.84581
 Alpha  occ. eigenvalues --   -0.83766  -0.83338  -0.81444  -0.80594  -0.80466
 Alpha  occ. eigenvalues --   -0.80049  -0.77266  -0.76786  -0.76042  -0.74443
 Alpha  occ. eigenvalues --   -0.73961  -0.73650  -0.73398  -0.72681  -0.72155
 Alpha  occ. eigenvalues --   -0.71943  -0.70145  -0.69509  -0.69357  -0.68640
 Alpha  occ. eigenvalues --   -0.68599  -0.67783  -0.67462  -0.66933  -0.65892
 Alpha  occ. eigenvalues --   -0.65442  -0.64432  -0.64148  -0.63672  -0.63149
 Alpha  occ. eigenvalues --   -0.62829  -0.62284  -0.61624  -0.61250  -0.60654
 Alpha  occ. eigenvalues --   -0.60353  -0.60187  -0.59655  -0.59406  -0.58749
 Alpha  occ. eigenvalues --   -0.58122  -0.57523  -0.57326  -0.57008  -0.56652
 Alpha  occ. eigenvalues --   -0.56476  -0.56291  -0.55559  -0.55090  -0.54823
 Alpha  occ. eigenvalues --   -0.54668  -0.54485  -0.53969  -0.53369  -0.53115
 Alpha  occ. eigenvalues --   -0.52552  -0.51964  -0.51718  -0.51631  -0.50977
 Alpha  occ. eigenvalues --   -0.50916  -0.50591  -0.49938  -0.49383  -0.49017
 Alpha  occ. eigenvalues --   -0.48703  -0.48575  -0.48241  -0.48113  -0.47697
 Alpha  occ. eigenvalues --   -0.47537  -0.47184  -0.46771  -0.46604  -0.46450
 Alpha  occ. eigenvalues --   -0.46311  -0.46253  -0.46083  -0.45674  -0.45434
 Alpha  occ. eigenvalues --   -0.45061  -0.44940  -0.44782  -0.44556  -0.44509
 Alpha  occ. eigenvalues --   -0.44340  -0.44124  -0.43980  -0.43658  -0.43269
 Alpha  occ. eigenvalues --   -0.43184  -0.42938  -0.42449  -0.42223  -0.42045
 Alpha  occ. eigenvalues --   -0.41610  -0.41380  -0.41316  -0.40832  -0.40636
 Alpha  occ. eigenvalues --   -0.40565  -0.40246  -0.39842  -0.39611  -0.39435
 Alpha  occ. eigenvalues --   -0.39354  -0.39043  -0.38450  -0.38186  -0.37800
 Alpha  occ. eigenvalues --   -0.37569  -0.37105  -0.36793  -0.36356  -0.36202
 Alpha  occ. eigenvalues --   -0.35337  -0.34707  -0.34172  -0.34088  -0.33931
 Alpha  occ. eigenvalues --   -0.33662  -0.32994  -0.32473  -0.31586  -0.30483
 Alpha  occ. eigenvalues --   -0.30320  -0.30190  -0.29729  -0.29404  -0.28973
 Alpha  occ. eigenvalues --   -0.28282  -0.27929  -0.24961  -0.21683  -0.18319
 Alpha virt. eigenvalues --   -0.12485  -0.08384  -0.07981  -0.07090  -0.06786
 Alpha virt. eigenvalues --   -0.06683  -0.04861  -0.04097  -0.03144  -0.02466
 Alpha virt. eigenvalues --   -0.02070  -0.01403  -0.00785  -0.00579  -0.00518

 Mulliken charges:
               1
     1  N   -0.749061
     2  H    0.407518
     3  H    0.418193
     4  H    0.424207
     5  C   -0.140529
     6  H    0.194510
     7  C    0.647988
     8  C    0.126967
     9  H    0.192076
    10  O   -0.543605
    11  C   -0.517318
    12  H    0.225203
    13  H    0.153511
    14  H    0.193239
    15  O   -0.633386
    16  H    0.417108
    17  N   -0.583576
    18  H    0.363958
    19  C   -0.102362
    20  H    0.208840
    21  C    0.620891
    22  C   -0.083622
    23  H    0.203522
    24  O   -0.596335
    25  C   -0.275143
    26  H    0.179235
    27  H    0.097584
    28  C   -0.455557
    29  H    0.109629
    30  H    0.165613
    31  H    0.156504
    32  C   -0.448672
    33  H    0.137804
    34  H    0.137844
    35  H    0.162731
    36  N   -0.612484
    37  H    0.430605
    38  C   -0.070700
    39  H    0.189839
    40  C    0.637090
    41  C   -0.487506
    42  H    0.139421
    43  H    0.185041
    44  H    0.165249
    45  O   -0.519794
    46  N   -0.626997
    47  H    0.344033
    48  C   -0.039413
    49  H    0.181986
    50  C    0.611749
    51  C   -0.251842
    52  H    0.163964
    53  H    0.162941
    54  O   -0.566985
    55  C   -0.378481
    56  H    0.185314
    57  H    0.159525
    58  C    0.596533
    59  N   -0.747760
    60  H    0.336030
    61  H    0.340247
    62  O   -0.508379
    63  N   -0.598016
    64  H    0.363636
    65  C   -0.054950
    66  H    0.174578
    67  C    0.629637
    68  C   -0.382881
    69  H    0.143346
    70  H    0.166320
    71  O   -0.551526
    72  C    0.136341
    73  C   -0.187560
    74  H    0.088138
    75  C   -0.229355
    76  H    0.103021
    77  C   -0.207684
    78  H    0.098481
    79  C   -0.191316
    80  H    0.106296
    81  O   -0.707736
    82  C    0.405357
    83  N   -0.628450
    84  H    0.392499
    85  C   -0.055972
    86  H    0.184655
    87  C    0.640988
    88  C   -0.466761
    89  H    0.163098
    90  H    0.181194
    91  H    0.170985
    92  O   -0.583121
    93  N   -0.604235
    94  H    0.404169
    95  C   -0.049556
    96  H    0.163114
    97  C    0.586382
    98  C   -0.281761
    99  H    0.161779
   100  H    0.185338
   101  O   -0.476708
   102  C   -0.295112
   103  H    0.175331
   104  H    0.184665
   105  C   -0.159117
   106  H    0.186733
   107  H    0.196361
   108  N   -0.588397
   109  H    0.371256
   110  N   -0.754803
   111  H    0.363879
   112  H    0.440196
   113  N   -0.747257
   114  H    0.379902
   115  H    0.380621
   116  C    0.751596
   117  O   -0.542050
   118  H    0.429700
 Sum of Mulliken charges =   1.00000

 Dipole moment (field-independent basis, Debye):
    X=             16.2598    Y=              0.0989    Z=             -3.5384  Tot=             16.6406
 Quadrupole moment (field-independent basis, Debye-Ang):
   XX=            166.1601   YY=           -154.3213   ZZ=           -222.8343
   XY=            298.4960   XZ=            202.5687   YZ=            146.9682

 Normal termination of Gaussian 16 at Sat Jul  2 15:36:12 2022.
