 Gaussian 16, Revision C.01,
 Gaussian 16:  ES64L-G16RevC.01  3-Jul-2019

 -------------------------------------------------------------------
 # B3LYP/6-31G* guess=read geom=check nosymm integral(ultrafinegrid)
 -------------------------------------------------------------------

 -----------------------------------------------------
 Candidate Structure: Conf:34 Charge calc in gas phase
 -----------------------------------------------------
 Structure from the checkpoint file:  "conf-34.chk"
 Charge =  1 Multiplicity = 1

                          Input orientation:
 ---------------------------------------------------------------------
 Center     Atomic      Atomic             Coordinates (Angstroms)
 Number     Number       Type             X           Y           Z
 ---------------------------------------------------------------------
      1          7           0       -5.010691   -2.359685   -7.853183
      2          1           0       -5.942406   -2.776747   -7.851290
      3          1           0       -4.559215   -2.513398   -8.756597
      4          1           0       -5.091480   -1.355176   -7.677360
      5          6           0       -4.159280   -2.933915   -6.794080
      6          1           0       -4.258687   -4.023541   -6.774160
      7          6           0       -4.564208   -2.338194   -5.457453
      8          6           0       -2.696605   -2.595657   -7.102491
      9          1           0       -2.609712   -1.498878   -7.119713
     10          8           0       -4.882268   -1.159173   -5.359778
     11          6           0       -1.700686   -3.187994   -6.124695
     12          1           0       -1.831886   -2.795529   -5.116327
     13          1           0       -1.810165   -4.275525   -6.090914
     14          1           0       -0.683158   -2.955172   -6.439731
     15          8           0       -2.460450   -3.111919   -8.415936
     16          1           0       -1.570116   -2.865571   -8.676291
     17          7           0       -4.544457   -3.189646   -4.390056
     18          1           0       -3.975567   -4.017694   -4.486512
     19          6           0       -4.562261   -2.633969   -3.032025
     20          1           0       -5.293424   -1.825434   -3.021928
     21          6           0       -3.157157   -2.048308   -2.785624
     22          6           0       -4.962020   -3.700738   -2.001852
     23          1           0       -4.333481   -4.576087   -2.205916
     24          8           0       -2.154084   -2.796804   -2.619173
     25          6           0       -6.432779   -4.090636   -2.189245
     26          1           0       -6.643686   -4.216288   -3.251939
     27          1           0       -7.048548   -3.248816   -1.854635
     28          6           0       -4.695082   -3.209325   -0.577722
     29          1           0       -5.232693   -2.273846   -0.403282
     30          1           0       -3.623900   -3.025548   -0.439552
     31          1           0       -5.014384   -3.938634    0.165691
     32          6           0       -6.831528   -5.359808   -1.449702
     33          1           0       -7.884832   -5.591284   -1.617893
     34          1           0       -6.678975   -5.271329   -0.372751
     35          1           0       -6.241324   -6.212997   -1.796396
     36          7           0       -3.098122   -0.691342   -2.847973
     37          1           0       -3.897852   -0.201643   -3.218802
     38          6           0       -1.831083    0.018258   -2.821915
     39          1           0       -1.065385   -0.706494   -3.114377
     40          6           0       -1.541179    0.454559   -1.386986
     41          6           0       -1.841275    1.189288   -3.776324
     42          1           0       -0.894591    1.737168   -3.708718
     43          1           0       -2.652916    1.873927   -3.521322
     44          1           0       -1.980773    0.826791   -4.797899
     45          8           0       -1.747695    1.598604   -0.974161
     46          7           0       -1.062046   -0.515472   -0.580683
     47          1           0       -1.015369   -1.464230   -0.933157
     48          6           0       -0.717531   -0.240959    0.809174
     49          1           0       -1.430853    0.519417    1.148729
     50          6           0        0.698741    0.346565    0.872663
     51          6           0       -0.858637   -1.501985    1.647950
     52          1           0       -0.033525   -2.176356    1.422079
     53          1           0       -1.780576   -2.001081    1.334329
     54          8           0        1.648659   -0.244699    1.377698
     55          6           0       -0.932623   -1.212876    3.143797
     56          1           0        0.017524   -0.822487    3.512189
     57          1           0       -1.689004   -0.446407    3.334488
     58          6           0       -1.352771   -2.444546    3.935581
     59          7           0       -0.942934   -2.471153    5.235090
     60          1           0       -0.397755   -1.738774    5.648894
     61          1           0       -1.228031   -3.255336    5.794331
     62          8           0       -2.045536   -3.326607    3.459415
     63          7           0        0.840151    1.565742    0.297514
     64          1           0        0.037285    2.015286   -0.125227
     65          6           0        2.122647    2.235848    0.309399
     66          1           0        2.848304    1.576370   -0.172740
     67          6           0        2.554720    2.485863    1.754823
     68          6           0        2.047466    3.569460   -0.437119
     69          1           0        3.010158    4.073639   -0.314323
     70          1           0        1.298437    4.189416    0.053490
     71          8           0        1.836489    3.065914    2.551550
     72          6           0        1.730477    3.410998   -1.886594
     73          6           0        2.624642    2.755685   -2.745980
     74          1           0        3.543935    2.356894   -2.329354
     75          6           0        0.545704    3.920937   -2.423042
     76          1           0       -0.179148    4.390053   -1.762486
     77          6           0        2.377464    2.615848   -4.090453
     78          1           0        3.067088    2.102958   -4.748246
     79          6           0        0.262786    3.845849   -3.767248
     80          1           0       -0.663175    4.219331   -4.182274
     81          8           0        0.891969    3.003881   -5.874406
     82          6           0        1.157740    3.146271   -4.677518
     83          7           0        3.790096    2.043776    2.080069
     84          1           0        4.367081    1.536356    1.429645
     85          6           0        4.242075    2.022487    3.450603
     86          1           0        4.088097    3.015967    3.877440
     87          6           0        5.735988    1.680754    3.396865
     88          6           0        3.477593    0.997512    4.294058
     89          1           0        3.835502    1.001567    5.324043
     90          1           0        2.415872    1.240744    4.281418
     91          1           0        3.602061   -0.005709    3.877339
     92          8           0        6.235665    1.133582    2.431242
     93          7           0        6.436137    1.979906    4.515831
     94          1           0        5.995798    2.452796    5.288257
     95          6           0        7.855027    1.671013    4.586978
     96          1           0        8.008733    0.694812    4.119530
     97          6           0        8.302748    1.570483    6.026072
     98          6           0        8.699527    2.703050    3.821856
     99          1           0        8.587482    3.675590    4.300100
    100          1           0        8.261602    2.775941    2.825504
    101          8           0        9.156190    0.825435    6.434508
    102          6           0       10.161060    2.294865    3.719965
    103          1           0       10.211046    1.259651    3.363299
    104          1           0       10.640153    2.304427    4.698721
    105          6           0       10.963354    3.159144    2.762864
    106          1           0       10.495292    3.162285    1.771654
    107          1           0       11.964305    2.733739    2.648636
    108          7           0       11.080104    4.534763    3.286408
    109          1           0       10.288512    4.844353    3.832443
    110          7           0       12.386705    5.230935    1.476283
    111          1           0       13.063704    5.897096    1.141047
    112          1           0       12.580175    4.265913    1.267019
    113          7           0       11.572599    6.787401    3.032093
    114          1           0       12.215843    7.463771    2.650714
    115          1           0       11.355130    6.925818    4.010125
    116          6           0       11.697747    5.507379    2.601303
    117          8           0        7.664982    2.459139    6.821007
    118          1           0        8.022218    2.346031    7.710564
 ---------------------------------------------------------------------

 SCF Done:  E(RB3LYP) =  -2837.49785670     A.U. after    3 cycles

 Alpha  occ. eigenvalues --  -19.28723 -19.27516 -19.24566 -19.22718 -19.19029
 Alpha  occ. eigenvalues --  -19.18392 -19.15186 -19.13799 -19.13407 -19.12730
 Alpha  occ. eigenvalues --  -19.03824 -14.60822 -14.51348 -14.50898 -14.50878
 Alpha  occ. eigenvalues --  -14.47579 -14.43461 -14.43381 -14.39751 -14.38593
 Alpha  occ. eigenvalues --  -14.37736 -14.36535 -10.45878 -10.41334 -10.40817
 Alpha  occ. eigenvalues --  -10.39299 -10.37505 -10.36215 -10.35157 -10.35062
 Alpha  occ. eigenvalues --  -10.32431 -10.32205 -10.31592 -10.31516 -10.30085
 Alpha  occ. eigenvalues --  -10.29699 -10.29544 -10.28935 -10.28234 -10.27664
 Alpha  occ. eigenvalues --  -10.27605 -10.26275 -10.25881 -10.24455 -10.23845
 Alpha  occ. eigenvalues --  -10.23041 -10.22993 -10.22279 -10.21908 -10.21589
 Alpha  occ. eigenvalues --  -10.20657 -10.19091 -10.19077 -10.16048 -10.15828
 Alpha  occ. eigenvalues --  -10.15598 -10.14088 -10.13718  -1.19929  -1.18270
 Alpha  occ. eigenvalues --   -1.15722  -1.15704  -1.14154  -1.11152  -1.10702
 Alpha  occ. eigenvalues --   -1.09579  -1.07319  -1.06052  -1.05824  -1.05306
 Alpha  occ. eigenvalues --   -1.04834  -1.04423  -1.03874  -1.00638  -0.99444
 Alpha  occ. eigenvalues --   -0.96214  -0.95117  -0.94628  -0.93481  -0.93387
 Alpha  occ. eigenvalues --   -0.92741  -0.91382  -0.88599  -0.86052  -0.84201
 Alpha  occ. eigenvalues --   -0.83649  -0.82319  -0.82158  -0.81169  -0.80152
 Alpha  occ. eigenvalues --   -0.79142  -0.77807  -0.77685  -0.77461  -0.75797
 Alpha  occ. eigenvalues --   -0.75153  -0.74935  -0.73532  -0.72370  -0.71380
 Alpha  occ. eigenvalues --   -0.71203  -0.71149  -0.71034  -0.70083  -0.69829
 Alpha  occ. eigenvalues --   -0.68894  -0.68795  -0.68301  -0.67017  -0.66558
 Alpha  occ. eigenvalues --   -0.65522  -0.65365  -0.64969  -0.64414  -0.63666
 Alpha  occ. eigenvalues --   -0.63144  -0.62768  -0.62588  -0.61216  -0.61081
 Alpha  occ. eigenvalues --   -0.60849  -0.60609  -0.59883  -0.59656  -0.58629
 Alpha  occ. eigenvalues --   -0.58189  -0.57862  -0.57390  -0.56962  -0.56932
 Alpha  occ. eigenvalues --   -0.56473  -0.56337  -0.56002  -0.55737  -0.55150
 Alpha  occ. eigenvalues --   -0.54396  -0.54052  -0.53921  -0.53530  -0.53345
 Alpha  occ. eigenvalues --   -0.52550  -0.52509  -0.52218  -0.52147  -0.51529
 Alpha  occ. eigenvalues --   -0.50794  -0.50642  -0.50414  -0.50097  -0.49838
 Alpha  occ. eigenvalues --   -0.49384  -0.48958  -0.48689  -0.48562  -0.48142
 Alpha  occ. eigenvalues --   -0.47986  -0.47709  -0.47682  -0.46439  -0.46371
 Alpha  occ. eigenvalues --   -0.46019  -0.45813  -0.45669  -0.45543  -0.45087
 Alpha  occ. eigenvalues --   -0.44841  -0.44324  -0.44107  -0.43783  -0.43643
 Alpha  occ. eigenvalues --   -0.43477  -0.43043  -0.42799  -0.42653  -0.42572
 Alpha  occ. eigenvalues --   -0.42316  -0.42188  -0.41980  -0.41888  -0.41547
 Alpha  occ. eigenvalues --   -0.41146  -0.40825  -0.40695  -0.40495  -0.40455
 Alpha  occ. eigenvalues --   -0.40346  -0.39922  -0.39654  -0.39473  -0.39303
 Alpha  occ. eigenvalues --   -0.39298  -0.38913  -0.38879  -0.38559  -0.38249
 Alpha  occ. eigenvalues --   -0.38047  -0.37501  -0.37080  -0.36629  -0.36227
 Alpha  occ. eigenvalues --   -0.35237  -0.34261  -0.33322  -0.33028  -0.32227
 Alpha  occ. eigenvalues --   -0.32182  -0.31892  -0.31335  -0.30454  -0.29648
 Alpha  occ. eigenvalues --   -0.28646  -0.28244  -0.27842  -0.27716  -0.27200
 Alpha  occ. eigenvalues --   -0.26319  -0.25520  -0.22243  -0.17455  -0.13666
 Alpha virt. eigenvalues --   -0.12826  -0.12381  -0.09396  -0.08325  -0.07802
 Alpha virt. eigenvalues --   -0.06358  -0.04939  -0.04359  -0.03890  -0.03735
 Alpha virt. eigenvalues --   -0.03028  -0.02660  -0.02274  -0.02145  -0.01650

 Mulliken charges:
               1
     1  N   -0.712775
     2  H    0.420787
     3  H    0.431054
     4  H    0.425708
     5  C   -0.149575
     6  H    0.213516
     7  C    0.614266
     8  C    0.122193
     9  H    0.176777
    10  O   -0.518542
    11  C   -0.503818
    12  H    0.212719
    13  H    0.168250
    14  H    0.192494
    15  O   -0.645947
    16  H    0.432008
    17  N   -0.584791
    18  H    0.348765
    19  C   -0.066677
    20  H    0.175865
    21  C    0.613628
    22  C   -0.083338
    23  H    0.136990
    24  O   -0.572360
    25  C   -0.256812
    26  H    0.124229
    27  H    0.141857
    28  C   -0.479775
    29  H    0.149158
    30  H    0.184583
    31  H    0.176269
    32  C   -0.451145
    33  H    0.154685
    34  H    0.164267
    35  H    0.144696
    36  N   -0.568114
    37  H    0.357039
    38  C   -0.082157
    39  H    0.181757
    40  C    0.652975
    41  C   -0.466734
    42  H    0.242080
    43  H    0.159753
    44  H    0.126814
    45  O   -0.539533
    46  N   -0.619151
    47  H    0.352314
    48  C   -0.060128
    49  H    0.178719
    50  C    0.640276
    51  C   -0.283222
    52  H    0.169021
    53  H    0.164487
    54  O   -0.555455
    55  C   -0.380619
    56  H    0.171253
    57  H    0.171007
    58  C    0.602963
    59  N   -0.750097
    60  H    0.335828
    61  H    0.340352
    62  O   -0.513432
    63  N   -0.615315
    64  H    0.381492
    65  C   -0.015290
    66  H    0.146427
    67  C    0.648776
    68  C   -0.395355
    69  H    0.134607
    70  H    0.161036
    71  O   -0.554892
    72  C    0.150358
    73  C   -0.176692
    74  H    0.075370
    75  C   -0.181233
    76  H    0.097200
    77  C   -0.221438
    78  H    0.083573
    79  C   -0.243764
    80  H    0.087946
    81  O   -0.629599
    82  C    0.411298
    83  N   -0.616172
    84  H    0.350570
    85  C   -0.027127
    86  H    0.162858
    87  C    0.621114
    88  C   -0.449268
    89  H    0.122662
    90  H    0.199159
    91  H    0.177017
    92  O   -0.530377
    93  N   -0.638708
    94  H    0.355803
    95  C   -0.011542
    96  H    0.211091
    97  C    0.572191
    98  C   -0.295796
    99  H    0.133904
   100  H    0.197086
   101  O   -0.446984
   102  C   -0.310707
   103  H    0.189944
   104  H    0.181638
   105  C   -0.165059
   106  H    0.190314
   107  H    0.178964
   108  N   -0.593040
   109  H    0.361419
   110  N   -0.732970
   111  H    0.370724
   112  H    0.384094
   113  N   -0.735859
   114  H    0.366287
   115  H    0.370959
   116  C    0.732302
   117  O   -0.574525
   118  H    0.426325
 Sum of Mulliken charges =   1.00000

 Dipole moment (field-independent basis, Debye):
    X=             23.6602    Y=              1.5692    Z=             -3.3344  Tot=             23.9455
 Quadrupole moment (field-independent basis, Debye-Ang):
   XX=            278.8576   YY=           -234.0836   ZZ=           -103.1815
   XY=            293.7202   XZ=            277.0879   YZ=            187.1774

 Normal termination of Gaussian 16 at Sat Jul  2 15:36:44 2022.
