 Gaussian 16, Revision C.01,
 Gaussian 16:  ES64L-G16RevC.01  3-Jul-2019

 -------------------------------------------------------------------
 # B3LYP/6-31G* guess=read geom=check nosymm integral(ultrafinegrid)
 -------------------------------------------------------------------

 ------------------------------------------------------
 Candidate Structure: Conf:684 Charge calc in gas phase
 ------------------------------------------------------
 Structure from the checkpoint file:  "conf-684.chk"
 Charge =  1 Multiplicity = 1

                          Input orientation:
 ---------------------------------------------------------------------
 Center     Atomic      Atomic             Coordinates (Angstroms)
 Number     Number       Type             X           Y           Z
 ---------------------------------------------------------------------
      1          7           0       -6.265760   -0.293128   -7.973837
      2          1           0       -7.032628   -0.947835   -7.806628
      3          1           0       -6.108638   -0.181756   -8.981001
      4          1           0       -6.504513    0.614649   -7.556315
      5          6           0       -4.999645   -0.748807   -7.345768
      6          1           0       -4.822432   -1.800926   -7.587481
      7          6           0       -5.118163   -0.529614   -5.845617
      8          6           0       -3.850966    0.081577   -7.926016
      9          1           0       -4.027062    1.132008   -7.657358
     10          8           0       -5.556039    0.545892   -5.428276
     11          6           0       -2.477639   -0.358083   -7.455095
     12          1           0       -2.358669   -0.225332   -6.376656
     13          1           0       -2.318858   -1.412006   -7.700925
     14          1           0       -1.706952    0.235417   -7.952198
     15          8           0       -3.984692   -0.078803   -9.346605
     16          1           0       -3.306475    0.454923   -9.775363
     17          7           0       -4.704416   -1.532297   -5.056165
     18          1           0       -4.256848   -2.368173   -5.418209
     19          6           0       -4.608985   -1.384584   -3.613912
     20          1           0       -4.195541   -0.391283   -3.415298
     21          6           0       -3.584632   -2.442048   -3.188419
     22          6           0       -5.986305   -1.494267   -2.906340
     23          1           0       -6.692543   -1.015562   -3.595148
     24          8           0       -3.314050   -3.398871   -3.905816
     25          6           0       -6.046407   -0.694512   -1.599271
     26          1           0       -5.286452   -1.049679   -0.894047
     27          1           0       -7.012480   -0.922390   -1.132021
     28          6           0       -6.418132   -2.948720   -2.699678
     29          1           0       -5.802087   -3.434405   -1.937915
     30          1           0       -6.325665   -3.522711   -3.625914
     31          1           0       -7.459820   -2.990518   -2.370904
     32          6           0       -5.948430    0.817795   -1.786428
     33          1           0       -6.080418    1.337456   -0.834760
     34          1           0       -6.721921    1.173625   -2.474914
     35          1           0       -4.982195    1.124262   -2.199090
     36          7           0       -3.031130   -2.246116   -1.979762
     37          1           0       -3.188703   -1.407852   -1.437409
     38          6           0       -2.026460   -3.123118   -1.421890
     39          1           0       -2.357332   -4.163088   -1.492121
     40          6           0       -1.851395   -2.679062    0.027982
     41          6           0       -0.681029   -2.987348   -2.159163
     42          1           0        0.065839   -3.640482   -1.703053
     43          1           0       -0.327556   -1.960370   -2.087923
     44          1           0       -0.814774   -3.246046   -3.208736
     45          8           0       -2.214720   -1.574050    0.403818
     46          7           0       -1.180411   -3.555615    0.843247
     47          1           0       -0.728827   -4.318782    0.360048
     48          6           0       -0.331048   -2.950800    1.872535
     49          1           0       -0.880182   -2.097025    2.267391
     50          6           0        0.944213   -2.470418    1.162502
     51          6           0       -0.006597   -3.941734    2.993260
     52          1           0        0.483237   -4.818891    2.557291
     53          1           0       -0.949736   -4.271305    3.434528
     54          8           0        1.462256   -3.138629    0.275522
     55          6           0        0.891733   -3.353635    4.094599
     56          1           0        1.048997   -4.114634    4.865115
     57          1           0        1.871514   -3.079028    3.699083
     58          6           0        0.221185   -2.176314    4.779813
     59          7           0        0.895754   -0.991079    4.716713
     60          1           0        1.862278   -0.926193    4.419859
     61          1           0        0.504223   -0.229131    5.247525
     62          8           0       -0.865790   -2.281186    5.321832
     63          7           0        1.436903   -1.278030    1.577124
     64          1           0        1.067967   -0.861337    2.426137
     65          6           0        2.659135   -0.744641    1.035395
     66          1           0        2.989839   -1.456083    0.276879
     67          6           0        3.729890   -0.641721    2.121535
     68          6           0        2.430957    0.636022    0.368903
     69          1           0        3.408043    1.061485    0.117693
     70          1           0        1.976519    1.288983    1.121295
     71          8           0        3.466885   -0.524497    3.317414
     72          6           0        1.569382    0.586652   -0.860967
     73          6           0        2.134433    0.613927   -2.149060
     74          1           0        3.214777    0.678351   -2.250987
     75          6           0        0.167816    0.509084   -0.762111
     76          1           0       -0.297046    0.458292    0.217924
     77          6           0        1.363095    0.569542   -3.291914
     78          1           0        1.814988    0.583411   -4.277525
     79          6           0       -0.637553    0.522819   -1.881728
     80          1           0       -1.716328    0.469346   -1.799875
     81          8           0       -0.809290    0.458173   -4.239076
     82          6           0       -0.086291    0.514616   -3.224125
     83          7           0        5.021655   -0.666473    1.671868
     84          1           0        5.143266   -0.509320    0.682920
     85          6           0        6.082499   -0.105032    2.493776
     86          1           0        5.828987   -0.324492    3.530125
     87          6           0        6.134353    1.415243    2.292046
     88          6           0        7.431072   -0.725065    2.126141
     89          1           0        8.231665   -0.306355    2.743369
     90          1           0        7.398952   -1.806128    2.270624
     91          1           0        7.668366   -0.515743    1.078926
     92          8           0        5.793725    1.954892    1.254670
     93          7           0        6.610590    2.130830    3.359939
     94          1           0        7.126411    1.616911    4.055368
     95          6           0        7.025695    3.509324    3.151486
     96          1           0        6.225471    4.023497    2.615610
     97          6           0        8.289433    3.535940    2.304639
     98          6           0        7.259180    4.177999    4.515488
     99          1           0        8.085696    3.658869    5.014809
    100          1           0        6.358752    3.999377    5.105327
    101          8           0        9.136800    2.675213    2.311454
    102          6           0        7.547214    5.673519    4.429329
    103          1           0        6.772407    6.157920    3.826039
    104          1           0        8.494242    5.847283    3.909039
    105          6           0        7.627758    6.368176    5.787854
    106          1           0        7.964712    7.398159    5.645714
    107          1           0        8.374652    5.886883    6.423315
    108          7           0        6.333871    6.442387    6.493313
    109          1           0        5.590088    6.873190    5.958612
    110          7           0        6.687846    4.676909    8.020678
    111          1           0        6.454648    4.318246    8.935205
    112          1           0        7.672875    4.663782    7.803806
    113          7           0        4.630547    5.784683    7.917874
    114          1           0        4.365126    5.310000    8.768876
    115          1           0        4.194848    6.690706    7.798828
    116          6           0        5.913143    5.649324    7.489487
    117          8           0        8.381347    4.663903    1.568490
    118          1           0        9.220317    4.610223    1.086313
 ---------------------------------------------------------------------

 SCF Done:  E(RB3LYP) =  -2837.53034723     A.U. after    3 cycles

 Alpha  occ. eigenvalues --  -19.27961 -19.25440 -19.22288 -19.20839 -19.19047
 Alpha  occ. eigenvalues --  -19.17618 -19.16004 -19.15657 -19.14206 -19.13825
 Alpha  occ. eigenvalues --  -19.04641 -14.58642 -14.52221 -14.52148 -14.51586
 Alpha  occ. eigenvalues --  -14.44086 -14.43819 -14.41131 -14.39156 -14.38710
 Alpha  occ. eigenvalues --  -14.38667 -14.38250 -10.46954 -10.40155 -10.38222
 Alpha  occ. eigenvalues --  -10.36632 -10.36589 -10.35599 -10.34748 -10.33811
 Alpha  occ. eigenvalues --  -10.32864 -10.32709 -10.32030 -10.31561 -10.31129
 Alpha  occ. eigenvalues --  -10.30840 -10.30416 -10.29467 -10.28190 -10.26090
 Alpha  occ. eigenvalues --  -10.25908 -10.25797 -10.24760 -10.24543 -10.24218
 Alpha  occ. eigenvalues --  -10.22623 -10.22578 -10.22195 -10.21803 -10.20820
 Alpha  occ. eigenvalues --  -10.20617 -10.19706 -10.18261 -10.16496 -10.16257
 Alpha  occ. eigenvalues --  -10.16203 -10.14292 -10.14276  -1.19046  -1.16377
 Alpha  occ. eigenvalues --   -1.15441  -1.12566  -1.11516  -1.11313  -1.09995
 Alpha  occ. eigenvalues --   -1.09263  -1.08551  -1.07728  -1.06346  -1.06267
 Alpha  occ. eigenvalues --   -1.06060  -1.04936  -1.00921  -1.00492  -0.98154
 Alpha  occ. eigenvalues --   -0.96283  -0.95794  -0.95591  -0.94609  -0.93185
 Alpha  occ. eigenvalues --   -0.92207  -0.89868  -0.86900  -0.86102  -0.84100
 Alpha  occ. eigenvalues --   -0.83257  -0.82077  -0.81109  -0.80258  -0.80018
 Alpha  occ. eigenvalues --   -0.78565  -0.77824  -0.77756  -0.76012  -0.74492
 Alpha  occ. eigenvalues --   -0.74489  -0.73583  -0.73495  -0.72462  -0.72241
 Alpha  occ. eigenvalues --   -0.71420  -0.71012  -0.69765  -0.68703  -0.68312
 Alpha  occ. eigenvalues --   -0.68178  -0.68033  -0.66798  -0.66000  -0.65673
 Alpha  occ. eigenvalues --   -0.65180  -0.64432  -0.64319  -0.64161  -0.63117
 Alpha  occ. eigenvalues --   -0.62398  -0.62265  -0.61715  -0.61466  -0.61295
 Alpha  occ. eigenvalues --   -0.60839  -0.60469  -0.60143  -0.60003  -0.59007
 Alpha  occ. eigenvalues --   -0.58290  -0.57587  -0.57176  -0.56687  -0.56546
 Alpha  occ. eigenvalues --   -0.55707  -0.55402  -0.55251  -0.54786  -0.54287
 Alpha  occ. eigenvalues --   -0.53917  -0.53708  -0.52909  -0.52483  -0.52274
 Alpha  occ. eigenvalues --   -0.52167  -0.51725  -0.51336  -0.50967  -0.50761
 Alpha  occ. eigenvalues --   -0.50116  -0.50016  -0.49488  -0.49158  -0.48869
 Alpha  occ. eigenvalues --   -0.48700  -0.48384  -0.47865  -0.47655  -0.47430
 Alpha  occ. eigenvalues --   -0.46850  -0.46738  -0.46634  -0.46592  -0.46417
 Alpha  occ. eigenvalues --   -0.46144  -0.45930  -0.45496  -0.45415  -0.45225
 Alpha  occ. eigenvalues --   -0.45087  -0.44709  -0.44559  -0.44237  -0.43866
 Alpha  occ. eigenvalues --   -0.43578  -0.43409  -0.43189  -0.43123  -0.43009
 Alpha  occ. eigenvalues --   -0.42794  -0.42274  -0.42124  -0.41692  -0.41364
 Alpha  occ. eigenvalues --   -0.41022  -0.40899  -0.40254  -0.39943  -0.39605
 Alpha  occ. eigenvalues --   -0.39470  -0.39170  -0.38991  -0.38904  -0.38374
 Alpha  occ. eigenvalues --   -0.38270  -0.38143  -0.37881  -0.37810  -0.37446
 Alpha  occ. eigenvalues --   -0.37237  -0.36631  -0.36447  -0.36166  -0.34916
 Alpha  occ. eigenvalues --   -0.34301  -0.34205  -0.33144  -0.32983  -0.32979
 Alpha  occ. eigenvalues --   -0.31863  -0.31462  -0.30795  -0.30537  -0.30210
 Alpha  occ. eigenvalues --   -0.29937  -0.29342  -0.28560  -0.28298  -0.27693
 Alpha  occ. eigenvalues --   -0.27429  -0.27317  -0.22333  -0.18319  -0.14400
 Alpha virt. eigenvalues --   -0.13538  -0.09259  -0.09117  -0.07686  -0.06815
 Alpha virt. eigenvalues --   -0.06152  -0.04920  -0.04187  -0.03370  -0.03289
 Alpha virt. eigenvalues --   -0.02815  -0.02053  -0.01494  -0.01320  -0.00676

 Mulliken charges:
               1
     1  N   -0.721848
     2  H    0.420673
     3  H    0.429020
     4  H    0.418581
     5  C   -0.141129
     6  H    0.208746
     7  C    0.641283
     8  C    0.121551
     9  H    0.168841
    10  O   -0.533359
    11  C   -0.487566
    12  H    0.248780
    13  H    0.164176
    14  H    0.176455
    15  O   -0.656770
    16  H    0.425657
    17  N   -0.610085
    18  H    0.361536
    19  C   -0.069062
    20  H    0.212972
    21  C    0.649463
    22  C   -0.069091
    23  H    0.133693
    24  O   -0.559655
    25  C   -0.276111
    26  H    0.152411
    27  H    0.140666
    28  C   -0.461667
    29  H    0.165877
    30  H    0.141228
    31  H    0.149245
    32  C   -0.454965
    33  H    0.153343
    34  H    0.145690
    35  H    0.166111
    36  N   -0.624774
    37  H    0.377440
    38  C   -0.044530
    39  H    0.164557
    40  C    0.613894
    41  C   -0.476666
    42  H    0.164650
    43  H    0.219537
    44  H    0.175031
    45  O   -0.521220
    46  N   -0.589789
    47  H    0.336188
    48  C   -0.090878
    49  H    0.199090
    50  C    0.623036
    51  C   -0.267576
    52  H    0.147716
    53  H    0.183499
    54  O   -0.538311
    55  C   -0.370357
    56  H    0.174568
    57  H    0.154605
    58  C    0.568660
    59  N   -0.790402
    60  H    0.390972
    61  H    0.327702
    62  O   -0.505092
    63  N   -0.598541
    64  H    0.349496
    65  C   -0.079346
    66  H    0.198543
    67  C    0.626696
    68  C   -0.377409
    69  H    0.154781
    70  H    0.130501
    71  O   -0.557012
    72  C    0.157081
    73  C   -0.180124
    74  H    0.077964
    75  C   -0.175803
    76  H    0.099268
    77  C   -0.217526
    78  H    0.083422
    79  C   -0.240158
    80  H    0.066585
    81  O   -0.668831
    82  C    0.428852
    83  N   -0.568284
    84  H    0.347459
    85  C   -0.091398
    86  H    0.178687
    87  C    0.633633
    88  C   -0.453806
    89  H    0.157757
    90  H    0.181435
    91  H    0.171555
    92  O   -0.506684
    93  N   -0.598885
    94  H    0.331265
    95  C   -0.029773
    96  H    0.207283
    97  C    0.594506
    98  C   -0.307630
    99  H    0.147100
   100  H    0.168218
   101  O   -0.459896
   102  C   -0.274787
   103  H    0.166918
   104  H    0.185950
   105  C   -0.176526
   106  H    0.204508
   107  H    0.166180
   108  N   -0.578992
   109  H    0.363046
   110  N   -0.732707
   111  H    0.370959
   112  H    0.375746
   113  N   -0.734100
   114  H    0.369118
   115  H    0.371280
   116  C    0.723230
   117  O   -0.560625
   118  H    0.423583
 Sum of Mulliken charges =   1.00000

 Dipole moment (field-independent basis, Debye):
    X=             11.3729    Y=             21.8128    Z=              9.8241  Tot=             26.4887
 Quadrupole moment (field-independent basis, Debye-Ang):
   XX=            -25.4703   YY=           -198.8579   ZZ=             76.5842
   XY=            157.0748   XZ=            349.1894   YZ=            181.3178

 Normal termination of Gaussian 16 at Sat Jul  2 15:36:04 2022.
