 Gaussian 16, Revision C.01,
 Gaussian 16:  ES64L-G16RevC.01  3-Jul-2019

 -------------------------------------------------------------------
 # B3LYP/6-31G* guess=read geom=check nosymm integral(ultrafinegrid)
 -------------------------------------------------------------------

 ------------------------------------------------------
 Candidate Structure: Conf:771 Charge calc in gas phase
 ------------------------------------------------------
 Structure from the checkpoint file:  "conf-771.chk"
 Charge =  1 Multiplicity = 1

                          Input orientation:
 ---------------------------------------------------------------------
 Center     Atomic      Atomic             Coordinates (Angstroms)
 Number     Number       Type             X           Y           Z
 ---------------------------------------------------------------------
      1          7           0       -6.561259    2.523280   -6.632828
      2          1           0       -7.566234    2.352268   -6.541694
      3          1           0       -6.343074    2.834178   -7.594452
      4          1           0       -6.268509    3.210934   -5.896263
      5          6           0       -5.722994    1.305370   -6.337641
      6          1           0       -6.320685    0.414263   -6.541870
      7          6           0       -5.343562    1.470998   -4.843468
      8          6           0       -4.488592    1.355059   -7.276341
      9          1           0       -3.800998    2.124880   -6.894050
     10          8           0       -5.404882    2.614158   -4.374997
     11          6           0       -3.772599    0.013629   -7.385935
     12          1           0       -3.364379   -0.318283   -6.425747
     13          1           0       -4.450759   -0.753343   -7.774837
     14          1           0       -2.930510    0.104872   -8.080452
     15          8           0       -5.037336    1.778559   -8.531380
     16          1           0       -4.318465    1.914963   -9.169317
     17          7           0       -4.970810    0.366417   -4.200355
     18          1           0       -4.803199   -0.497621   -4.717941
     19          6           0       -4.293390    0.348818   -2.899400
     20          1           0       -3.892022    1.351319   -2.719160
     21          6           0       -3.131876   -0.657780   -3.087712
     22          6           0       -5.232728   -0.035441   -1.719502
     23          1           0       -4.583414   -0.070652   -0.832599
     24          8           0       -3.113968   -1.405207   -4.075963
     25          6           0       -5.855317   -1.435227   -1.903780
     26          1           0       -5.070010   -2.150998   -2.178580
     27          1           0       -6.553474   -1.407007   -2.752671
     28          6           0       -6.284723    1.058516   -1.484907
     29          1           0       -6.999692    1.106586   -2.314917
     30          1           0       -5.822304    2.045873   -1.384344
     31          1           0       -6.851523    0.860951   -0.570961
     32          6           0       -6.584813   -1.961769   -0.662080
     33          1           0       -6.944872   -2.981474   -0.833452
     34          1           0       -7.452547   -1.347674   -0.400523
     35          1           0       -5.917797   -1.987897    0.207791
     36          7           0       -2.203342   -0.659106   -2.124511
     37          1           0       -2.269098   -0.062459   -1.300410
     38          6           0       -1.083516   -1.591468   -2.067727
     39          1           0       -1.458335   -2.602989   -2.265481
     40          6           0       -0.558579   -1.499619   -0.619303
     41          6           0        0.010267   -1.245468   -3.094098
     42          1           0        0.824548   -1.976756   -3.064918
     43          1           0        0.430864   -0.255409   -2.891978
     44          1           0       -0.419281   -1.257319   -4.098760
     45          8           0       -0.979198   -0.620196    0.139882
     46          7           0        0.370729   -2.406628   -0.261693
     47          1           0        0.723484   -3.058194   -0.951237
     48          6           0        1.047063   -2.384357    1.047528
     49          1           0        0.305675   -2.023021    1.767060
     50          6           0        2.229540   -1.382300    0.973682
     51          6           0        1.503460   -3.797005    1.406786
     52          1           0        2.260536   -4.119961    0.682326
     53          1           0        0.654381   -4.483059    1.332400
     54          8           0        3.383908   -1.763025    0.794157
     55          6           0        2.090779   -3.901428    2.816139
     56          1           0        3.036648   -3.353680    2.876257
     57          1           0        1.406694   -3.445801    3.547190
     58          6           0        2.272513   -5.365910    3.224775
     59          7           0        3.259535   -5.590359    4.140583
     60          1           0        3.926223   -4.879620    4.400785
     61          1           0        3.436576   -6.543697    4.425693
     62          8           0        1.557989   -6.261736    2.796354
     63          7           0        1.865763   -0.081878    1.096422
     64          1           0        0.879194    0.163666    1.124234
     65          6           0        2.796999    1.017670    0.859262
     66          1           0        3.785543    0.691721    1.192626
     67          6           0        2.287888    2.214550    1.666510
     68          6           0        2.853969    1.381503   -0.653504
     69          1           0        1.821742    1.592415   -0.961624
     70          1           0        3.179133    0.474175   -1.176643
     71          8           0        1.117607    2.586502    1.557979
     72          6           0        3.752984    2.545948   -0.999764
     73          6           0        3.272121    3.866326   -0.983656
     74          1           0        2.229046    4.045602   -0.725500
     75          6           0        5.097898    2.355076   -1.348736
     76          1           0        5.500012    1.342518   -1.382082
     77          6           0        4.093879    4.944835   -1.290285
     78          1           0        3.703066    5.959792   -1.288818
     79          6           0        5.930453    3.425395   -1.664506
     80          1           0        6.966330    3.243874   -1.944095
     81          8           0        6.220705    5.800897   -1.935371
     82          6           0        5.456824    4.764157   -1.648234
     83          7           0        3.191564    2.829208    2.462659
     84          1           0        4.144377    2.493455    2.537832
     85          6           0        2.895156    4.073357    3.154653
     86          1           0        2.359974    4.728886    2.457354
     87          6           0        4.240508    4.691008    3.557245
     88          6           0        2.023067    3.852691    4.405781
     89          1           0        1.793184    4.806189    4.894945
     90          1           0        1.086247    3.377203    4.106576
     91          1           0        2.544713    3.208501    5.120377
     92          8           0        5.191521    3.985106    3.885474
     93          7           0        4.278665    6.049465    3.553294
     94          1           0        3.445752    6.562724    3.300371
     95          6           0        5.396454    6.816664    4.098605
     96          1           0        5.531678    6.535391    5.154604
     97          6           0        5.068167    8.309612    4.118882
     98          6           0        6.748777    6.570309    3.396810
     99          1           0        7.069090    5.558032    3.654153
    100          1           0        7.460228    7.276962    3.838134
    101          8           0        5.890817    9.181482    4.266310
    102          6           0        6.714161    6.723790    1.873392
    103          1           0        6.302574    7.699129    1.583610
    104          1           0        6.065062    5.956459    1.436351
    105          6           0        8.119976    6.582851    1.279813
    106          1           0        8.611042    5.694297    1.705320
    107          1           0        8.720500    7.460511    1.560815
    108          7           0        8.043202    6.460900   -0.171445
    109          1           0        7.116011    6.302817   -0.666995
    110          7           0       10.356554    6.429239   -0.562303
    111          1           0       11.099095    5.942607   -1.042833
    112          1           0       10.532658    6.654332    0.405171
    113          7           0        8.827277    5.786363   -2.213119
    114          1           0        9.512233    5.924484   -2.942128
    115          1           0        7.789932    5.669441   -2.419170
    116          6           0        9.075634    6.225819   -0.973606
    117          8           0        3.742164    8.565548    3.989238
    118          1           0        3.639855    9.535441    4.034106
 ---------------------------------------------------------------------

 SCF Done:  E(RB3LYP) =  -2837.63971046     A.U. after    2 cycles

 Alpha  occ. eigenvalues --  -19.30138 -19.26814 -19.26181 -19.21741 -19.20565
 Alpha  occ. eigenvalues --  -19.20230 -19.17354 -19.16078 -19.15453 -19.14945
 Alpha  occ. eigenvalues --  -19.10381 -14.59162 -14.49018 -14.45129 -14.44320
 Alpha  occ. eigenvalues --  -14.44319 -14.42202 -14.41268 -14.40596 -14.40275
 Alpha  occ. eigenvalues --  -14.40137 -14.39642 -10.43278 -10.40382 -10.39601
 Alpha  occ. eigenvalues --  -10.38917 -10.38692 -10.38649 -10.37170 -10.34459
 Alpha  occ. eigenvalues --  -10.33801 -10.33268 -10.32855 -10.32653 -10.32247
 Alpha  occ. eigenvalues --  -10.30571 -10.30297 -10.29323 -10.29009 -10.28765
 Alpha  occ. eigenvalues --  -10.28424 -10.27012 -10.26459 -10.26180 -10.25754
 Alpha  occ. eigenvalues --  -10.24672 -10.24491 -10.24308 -10.24010 -10.23937
 Alpha  occ. eigenvalues --  -10.23891 -10.22737 -10.22219 -10.19876 -10.19757
 Alpha  occ. eigenvalues --  -10.19696 -10.18427 -10.18290  -1.19051  -1.17497
 Alpha  occ. eigenvalues --   -1.17318  -1.13649  -1.12857  -1.12012  -1.09396
 Alpha  occ. eigenvalues --   -1.08394  -1.08008  -1.07504  -1.07174  -1.06822
 Alpha  occ. eigenvalues --   -1.05620  -1.01791  -1.00384  -0.98745  -0.98480
 Alpha  occ. eigenvalues --   -0.96709  -0.96690  -0.96543  -0.95131  -0.94194
 Alpha  occ. eigenvalues --   -0.93222  -0.90261  -0.86732  -0.86190  -0.85454
 Alpha  occ. eigenvalues --   -0.85144  -0.84310  -0.82811  -0.82159  -0.81003
 Alpha  occ. eigenvalues --   -0.79596  -0.79501  -0.77513  -0.77008  -0.74788
 Alpha  occ. eigenvalues --   -0.74756  -0.74371  -0.73823  -0.73715  -0.72144
 Alpha  occ. eigenvalues --   -0.71397  -0.71049  -0.70634  -0.69576  -0.68812
 Alpha  occ. eigenvalues --   -0.68442  -0.68234  -0.67022  -0.66804  -0.65984
 Alpha  occ. eigenvalues --   -0.65457  -0.65022  -0.64380  -0.64111  -0.63119
 Alpha  occ. eigenvalues --   -0.62756  -0.62604  -0.62252  -0.61930  -0.61658
 Alpha  occ. eigenvalues --   -0.61354  -0.60876  -0.60116  -0.58812  -0.58642
 Alpha  occ. eigenvalues --   -0.58136  -0.57818  -0.57595  -0.57033  -0.56386
 Alpha  occ. eigenvalues --   -0.55874  -0.55628  -0.55083  -0.54978  -0.54607
 Alpha  occ. eigenvalues --   -0.54487  -0.54196  -0.53986  -0.53846  -0.53781
 Alpha  occ. eigenvalues --   -0.53290  -0.52940  -0.52443  -0.52156  -0.51881
 Alpha  occ. eigenvalues --   -0.51703  -0.51412  -0.51144  -0.50919  -0.50399
 Alpha  occ. eigenvalues --   -0.49786  -0.49659  -0.49371  -0.49327  -0.49221
 Alpha  occ. eigenvalues --   -0.48814  -0.48756  -0.48449  -0.48012  -0.47903
 Alpha  occ. eigenvalues --   -0.47727  -0.47153  -0.46703  -0.46596  -0.46556
 Alpha  occ. eigenvalues --   -0.45991  -0.45911  -0.45721  -0.45597  -0.45488
 Alpha  occ. eigenvalues --   -0.45025  -0.44589  -0.44503  -0.44279  -0.44075
 Alpha  occ. eigenvalues --   -0.44042  -0.43685  -0.42849  -0.42597  -0.42472
 Alpha  occ. eigenvalues --   -0.42342  -0.42257  -0.41871  -0.41499  -0.41341
 Alpha  occ. eigenvalues --   -0.41201  -0.41088  -0.40834  -0.40655  -0.40499
 Alpha  occ. eigenvalues --   -0.40395  -0.40072  -0.39647  -0.39602  -0.39338
 Alpha  occ. eigenvalues --   -0.38951  -0.38587  -0.38307  -0.38133  -0.36174
 Alpha  occ. eigenvalues --   -0.35783  -0.35289  -0.35029  -0.34655  -0.34319
 Alpha  occ. eigenvalues --   -0.34275  -0.33976  -0.32030  -0.31637  -0.31328
 Alpha  occ. eigenvalues --   -0.31256  -0.30632  -0.30312  -0.29435  -0.29200
 Alpha  occ. eigenvalues --   -0.28822  -0.28606  -0.25697  -0.25057  -0.20254
 Alpha virt. eigenvalues --   -0.12298  -0.09789  -0.07607  -0.05981  -0.05879
 Alpha virt. eigenvalues --   -0.05803  -0.04179  -0.03780  -0.03624  -0.02836
 Alpha virt. eigenvalues --   -0.02104  -0.01459  -0.01061  -0.00973  -0.00486

 Mulliken charges:
               1
     1  N   -0.748122
     2  H    0.415550
     3  H    0.430583
     4  H    0.425199
     5  C   -0.125250
     6  H    0.214339
     7  C    0.640248
     8  C    0.126632
     9  H    0.173517
    10  O   -0.531748
    11  C   -0.495873
    12  H    0.204408
    13  H    0.180193
    14  H    0.181649
    15  O   -0.649535
    16  H    0.434425
    17  N   -0.587001
    18  H    0.371372
    19  C   -0.093553
    20  H    0.194822
    21  C    0.641682
    22  C   -0.078374
    23  H    0.152243
    24  O   -0.562505
    25  C   -0.272726
    26  H    0.154997
    27  H    0.127520
    28  C   -0.453461
    29  H    0.134646
    30  H    0.163693
    31  H    0.172103
    32  C   -0.453108
    33  H    0.161279
    34  H    0.155801
    35  H    0.158053
    36  N   -0.617985
    37  H    0.373943
    38  C   -0.043307
    39  H    0.187028
    40  C    0.630752
    41  C   -0.456625
    42  H    0.160357
    43  H    0.179575
    44  H    0.182273
    45  O   -0.545229
    46  N   -0.610031
    47  H    0.344606
    48  C   -0.064040
    49  H    0.178895
    50  C    0.626327
    51  C   -0.276407
    52  H    0.163011
    53  H    0.176587
    54  O   -0.534588
    55  C   -0.382494
    56  H    0.174362
    57  H    0.170323
    58  C    0.604444
    59  N   -0.748328
    60  H    0.339247
    61  H    0.345575
    62  O   -0.507937
    63  N   -0.620887
    64  H    0.369729
    65  C   -0.035446
    66  H    0.168042
    67  C    0.643804
    68  C   -0.356561
    69  H    0.139986
    70  H    0.150423
    71  O   -0.563950
    72  C    0.142364
    73  C   -0.200218
    74  H    0.115320
    75  C   -0.199097
    76  H    0.109043
    77  C   -0.198424
    78  H    0.099311
    79  C   -0.206621
    80  H    0.093752
    81  O   -0.746554
    82  C    0.412400
    83  N   -0.612822
    84  H    0.354449
    85  C   -0.018150
    86  H    0.167646
    87  C    0.614922
    88  C   -0.450154
    89  H    0.143967
    90  H    0.190597
    91  H    0.165947
    92  O   -0.532864
    93  N   -0.637343
    94  H    0.360413
    95  C   -0.030161
    96  H    0.201018
    97  C    0.588453
    98  C   -0.284765
    99  H    0.186159
   100  H    0.166579
   101  O   -0.450734
   102  C   -0.303942
   103  H    0.159103
   104  H    0.186158
   105  C   -0.134368
   106  H    0.159577
   107  H    0.155879
   108  N   -0.635470
   109  H    0.421656
   110  N   -0.765368
   111  H    0.357433
   112  H    0.364277
   113  N   -0.795168
   114  H    0.335856
   115  H    0.420818
   116  C    0.776871
   117  O   -0.582707
   118  H    0.425794
 Sum of Mulliken charges =   1.00000

 Dipole moment (field-independent basis, Debye):
    X=            -10.0953    Y=             13.1819    Z=            -20.9957  Tot=             26.7675
 Quadrupole moment (field-independent basis, Debye-Ang):
   XX=            -42.6577   YY=           -273.2719   ZZ=           -136.8485
   XY=             28.3554   XZ=            159.0507   YZ=            -26.3430

 Normal termination of Gaussian 16 at Sat Jul  2 15:35:24 2022.
