 Gaussian 16, Revision C.01,
 Gaussian 16:  ES64L-G16RevC.01  3-Jul-2019

 -------------------------------------------------------------------
 # B3LYP/6-31G* guess=read geom=check nosymm integral(ultrafinegrid)
 -------------------------------------------------------------------

 ------------------------------------------------------
 Candidate Structure: Conf:747 Charge calc in gas phase
 ------------------------------------------------------
 Structure from the checkpoint file:  "conf-747.chk"
 Charge =  1 Multiplicity = 1

                          Input orientation:
 ---------------------------------------------------------------------
 Center     Atomic      Atomic             Coordinates (Angstroms)
 Number     Number       Type             X           Y           Z
 ---------------------------------------------------------------------
      1          7           0       -6.748824   -5.163074   -6.982890
      2          1           0       -6.310693   -6.027406   -6.662485
      3          1           0       -7.125790   -5.290602   -7.924196
      4          1           0       -7.511445   -4.918866   -6.346213
      5          6           0       -5.784575   -4.045452   -7.000848
      6          1           0       -4.847735   -4.374252   -7.464364
      7          6           0       -5.534124   -3.592547   -5.571290
      8          6           0       -6.367484   -2.900510   -7.842252
      9          1           0       -7.302694   -2.591230   -7.372098
     10          8           0       -6.470990   -3.394915   -4.798203
     11          6           0       -5.438910   -1.715139   -7.994168
     12          1           0       -5.213505   -1.258373   -7.027114
     13          1           0       -4.500071   -2.031178   -8.457789
     14          1           0       -5.908632   -0.962343   -8.629961
     15          8           0       -6.735692   -3.405320   -9.123506
     16          1           0       -5.928488   -3.522925   -9.628809
     17          7           0       -4.243902   -3.411447   -5.211585
     18          1           0       -3.488087   -3.419568   -5.883589
     19          6           0       -3.907991   -2.856646   -3.916550
     20          1           0       -4.635314   -2.071020   -3.692590
     21          6           0       -2.515230   -2.249095   -4.059903
     22          6           0       -4.010057   -3.914236   -2.791026
     23          1           0       -4.955472   -4.425062   -3.000585
     24          8           0       -1.769737   -2.543116   -4.979640
     25          6           0       -4.134765   -3.308928   -1.392327
     26          1           0       -3.176753   -2.889015   -1.071747
     27          1           0       -4.332341   -4.142827   -0.710768
     28          6           0       -2.864575   -4.923977   -2.834586
     29          1           0       -1.922818   -4.440325   -2.564447
     30          1           0       -2.751688   -5.354847   -3.832551
     31          1           0       -3.046948   -5.734249   -2.125340
     32          6           0       -5.247508   -2.279247   -1.251068
     33          1           0       -5.504336   -2.120521   -0.202392
     34          1           0       -6.150854   -2.611177   -1.774937
     35          1           0       -4.956231   -1.309721   -1.668924
     36          7           0       -2.156691   -1.404571   -3.069223
     37          1           0       -2.723203   -1.246766   -2.254669
     38          6           0       -0.815166   -0.897138   -2.927904
     39          1           0       -0.101202   -1.716894   -3.069615
     40          6           0       -0.742125   -0.401394   -1.478435
     41          6           0       -0.492885    0.200588   -3.940524
     42          1           0        0.557080    0.487693   -3.842574
     43          1           0       -1.120666    1.084659   -3.788963
     44          1           0       -0.662075   -0.191597   -4.942233
     45          8           0       -1.708973   -0.436111   -0.732815
     46          7           0        0.449242    0.104660   -1.098072
     47          1           0        1.264909   -0.031848   -1.673810
     48          6           0        0.667303    0.511668    0.282989
     49          1           0       -0.206937    1.093714    0.587696
     50          6           0        1.925825    1.365131    0.267677
     51          6           0        0.839581   -0.670701    1.237766
     52          1           0        1.706408   -1.246823    0.928684
     53          1           0       -0.033736   -1.310938    1.133401
     54          8           0        2.993916    0.908945   -0.150306
     55          6           0        0.992326   -0.219275    2.687941
     56          1           0        1.886748    0.410565    2.794388
     57          1           0        0.132001    0.371523    3.002606
     58          6           0        1.098258   -1.377025    3.665454
     59          7           0        2.109579   -2.260324    3.404666
     60          1           0        2.856687   -2.009379    2.783453
     61          1           0        2.281987   -2.957997    4.107542
     62          8           0        0.328825   -1.522010    4.599482
     63          7           0        1.792145    2.613758    0.769775
     64          1           0        0.858082    2.956899    0.911742
     65          6           0        2.818297    3.615046    0.514927
     66          1           0        3.479361    3.178580   -0.238946
     67          6           0        3.621984    3.847961    1.799709
     68          6           0        2.201395    4.908765   -0.029496
     69          1           0        3.016805    5.576166   -0.313420
     70          1           0        1.643681    5.406412    0.762464
     71          8           0        3.667261    4.924604    2.376134
     72          6           0        1.307888    4.608441   -1.183060
     73          6           0        1.837422    4.116289   -2.383431
     74          1           0        2.914831    4.015435   -2.477147
     75          6           0       -0.083309    4.715538   -1.056123
     76          1           0       -0.501959    5.093177   -0.127786
     77          6           0        1.029335    3.762776   -3.438654
     78          1           0        1.437749    3.387817   -4.366973
     79          6           0       -0.939080    4.356024   -2.071432
     80          1           0       -2.011961    4.444729   -1.973152
     81          8           0       -1.164521    3.489404   -4.251993
     82          6           0       -0.417554    3.844116   -3.327591
     83          7           0        4.256630    2.751378    2.280853
     84          1           0        4.245264    1.863119    1.799092
     85          6           0        5.031168    2.810716    3.495043
     86          1           0        5.588986    3.749191    3.507631
     87          6           0        5.994963    1.620238    3.465284
     88          6           0        4.139997    2.763202    4.738280
     89          1           0        4.749689    2.754613    5.643794
     90          1           0        3.490624    3.636195    4.753185
     91          1           0        3.520441    1.862771    4.722988
     92          8           0        5.786151    0.642911    2.768489
     93          7           0        7.068689    1.729999    4.286820
     94          1           0        7.118285    2.485799    4.952597
     95          6           0        7.948698    0.606512    4.524698
     96          1           0        7.424936   -0.306026    4.224710
     97          6           0        8.249526    0.543687    6.006416
     98          6           0        9.258540    0.694991    3.731431
     99          1           0        9.879232   -0.153276    4.023025
    100          1           0        9.796996    1.600646    4.020142
    101          8           0        8.046146    1.431035    6.796476
    102          6           0        9.030869    0.666351    2.225783
    103          1           0        8.464297    1.532766    1.909567
    104          1           0        8.428672   -0.206938    1.970987
    105          6           0       10.344172    0.626492    1.459161
    106          1           0       10.889617   -0.283604    1.718116
    107          1           0       10.980212    1.468895    1.752093
    108          7           0       10.201041    0.607009   -0.007578
    109          1           0        9.953286   -0.287287   -0.407420
    110          7           0        9.609088    2.863366   -0.109796
    111          1           0        9.577065    3.703256   -0.665208
    112          1           0        9.950492    2.970776    0.831129
    113          7           0        9.505540    1.508007   -2.025061
    114          1           0        9.397218    2.340127   -2.586087
    115          1           0        9.952101    0.733575   -2.498168
    116          6           0        9.791881    1.672823   -0.710264
    117          8           0        8.809149   -0.632631    6.349624
    118          1           0        8.984904   -0.575391    7.297356
 ---------------------------------------------------------------------

 SCF Done:  E(RB3LYP) =  -2837.51080825     A.U. after    1 cycles

 Alpha  occ. eigenvalues --  -19.28857 -19.28031 -19.24090 -19.22732 -19.19293
 Alpha  occ. eigenvalues --  -19.18449 -19.16808 -19.16157 -19.14534 -19.14329
 Alpha  occ. eigenvalues --  -19.03303 -14.61992 -14.51262 -14.51098 -14.50778
 Alpha  occ. eigenvalues --  -14.47149 -14.43813 -14.40934 -14.40510 -14.39923
 Alpha  occ. eigenvalues --  -14.39075 -14.39013 -10.45924 -10.41469 -10.40574
 Alpha  occ. eigenvalues --  -10.39979 -10.38209 -10.35963 -10.35385 -10.35200
 Alpha  occ. eigenvalues --  -10.33352 -10.32818 -10.32493 -10.32057 -10.31373
 Alpha  occ. eigenvalues --  -10.30816 -10.29476 -10.29180 -10.29070 -10.28558
 Alpha  occ. eigenvalues --  -10.27611 -10.27448 -10.26353 -10.25228 -10.24051
 Alpha  occ. eigenvalues --  -10.23866 -10.23110 -10.22964 -10.22898 -10.22679
 Alpha  occ. eigenvalues --  -10.19874 -10.19178 -10.18774 -10.16004 -10.15852
 Alpha  occ. eigenvalues --  -10.15346 -10.13858 -10.13509  -1.19571  -1.18937
 Alpha  occ. eigenvalues --   -1.16257  -1.15733  -1.14971  -1.11935  -1.11117
 Alpha  occ. eigenvalues --   -1.10531  -1.09377  -1.08002  -1.06799  -1.06427
 Alpha  occ. eigenvalues --   -1.05232  -1.04393  -1.03477  -1.01124  -0.98407
 Alpha  occ. eigenvalues --   -0.97359  -0.96985  -0.96027  -0.94081  -0.93920
 Alpha  occ. eigenvalues --   -0.93283  -0.91345  -0.88698  -0.86400  -0.85014
 Alpha  occ. eigenvalues --   -0.84885  -0.82562  -0.82022  -0.81861  -0.80144
 Alpha  occ. eigenvalues --   -0.80063  -0.78607  -0.78309  -0.77022  -0.76959
 Alpha  occ. eigenvalues --   -0.75856  -0.75405  -0.73354  -0.73052  -0.72244
 Alpha  occ. eigenvalues --   -0.71709  -0.71269  -0.71158  -0.70845  -0.70105
 Alpha  occ. eigenvalues --   -0.69352  -0.68535  -0.68268  -0.67784  -0.67159
 Alpha  occ. eigenvalues --   -0.66837  -0.64933  -0.64396  -0.64079  -0.63789
 Alpha  occ. eigenvalues --   -0.63517  -0.63071  -0.62827  -0.62473  -0.62235
 Alpha  occ. eigenvalues --   -0.61978  -0.61664  -0.60210  -0.59844  -0.59027
 Alpha  occ. eigenvalues --   -0.58724  -0.57917  -0.57610  -0.57458  -0.57178
 Alpha  occ. eigenvalues --   -0.56914  -0.56824  -0.56496  -0.55829  -0.55388
 Alpha  occ. eigenvalues --   -0.54952  -0.54465  -0.53886  -0.53726  -0.53235
 Alpha  occ. eigenvalues --   -0.52839  -0.52610  -0.52135  -0.52022  -0.51516
 Alpha  occ. eigenvalues --   -0.51283  -0.51128  -0.50722  -0.50358  -0.50137
 Alpha  occ. eigenvalues --   -0.49976  -0.49530  -0.49315  -0.49116  -0.48707
 Alpha  occ. eigenvalues --   -0.48605  -0.48340  -0.48125  -0.47646  -0.47464
 Alpha  occ. eigenvalues --   -0.47199  -0.46331  -0.46145  -0.45998  -0.45822
 Alpha  occ. eigenvalues --   -0.45330  -0.45205  -0.45181  -0.44696  -0.44389
 Alpha  occ. eigenvalues --   -0.44268  -0.43764  -0.43620  -0.43274  -0.43048
 Alpha  occ. eigenvalues --   -0.42846  -0.42436  -0.42395  -0.42309  -0.42101
 Alpha  occ. eigenvalues --   -0.42062  -0.41721  -0.41375  -0.41186  -0.41056
 Alpha  occ. eigenvalues --   -0.40496  -0.40301  -0.40160  -0.40102  -0.39710
 Alpha  occ. eigenvalues --   -0.39670  -0.39347  -0.38975  -0.38927  -0.38876
 Alpha  occ. eigenvalues --   -0.38293  -0.37743  -0.36952  -0.36488  -0.35774
 Alpha  occ. eigenvalues --   -0.35089  -0.34011  -0.33910  -0.33057  -0.32541
 Alpha  occ. eigenvalues --   -0.31800  -0.31683  -0.31297  -0.31183  -0.31057
 Alpha  occ. eigenvalues --   -0.30400  -0.30315  -0.29352  -0.28899  -0.27679
 Alpha  occ. eigenvalues --   -0.27524  -0.27018  -0.22239  -0.17078  -0.13589
 Alpha virt. eigenvalues --   -0.12550  -0.12388  -0.10173  -0.08222  -0.07595
 Alpha virt. eigenvalues --   -0.06042  -0.05395  -0.04981  -0.04657  -0.04041
 Alpha virt. eigenvalues --   -0.03233  -0.03163  -0.02469  -0.02371  -0.02081

 Mulliken charges:
               1
     1  N   -0.712321
     2  H    0.427775
     3  H    0.423289
     4  H    0.427059
     5  C   -0.157349
     6  H    0.194820
     7  C    0.626345
     8  C    0.114112
     9  H    0.193702
    10  O   -0.519584
    11  C   -0.483612
    12  H    0.202368
    13  H    0.158806
    14  H    0.214116
    15  O   -0.612468
    16  H    0.410838
    17  N   -0.605707
    18  H    0.355285
    19  C   -0.061685
    20  H    0.197473
    21  C    0.616123
    22  C   -0.082583
    23  H    0.139515
    24  O   -0.549468
    25  C   -0.276512
    26  H    0.162217
    27  H    0.146660
    28  C   -0.456046
    29  H    0.166272
    30  H    0.131132
    31  H    0.156648
    32  C   -0.471843
    33  H    0.169007
    34  H    0.154499
    35  H    0.158335
    36  N   -0.626596
    37  H    0.381822
    38  C   -0.052335
    39  H    0.160480
    40  C    0.639566
    41  C   -0.453384
    42  H    0.147138
    43  H    0.225692
    44  H    0.165833
    45  O   -0.545151
    46  N   -0.618112
    47  H    0.348122
    48  C   -0.011599
    49  H    0.180668
    50  C    0.612441
    51  C   -0.274527
    52  H    0.142848
    53  H    0.177985
    54  O   -0.571603
    55  C   -0.381160
    56  H    0.163783
    57  H    0.178066
    58  C    0.568266
    59  N   -0.736020
    60  H    0.337340
    61  H    0.337663
    62  O   -0.492290
    63  N   -0.578943
    64  H    0.347348
    65  C   -0.072667
    66  H    0.179450
    67  C    0.625060
    68  C   -0.375610
    69  H    0.143808
    70  H    0.154153
    71  O   -0.530340
    72  C    0.146309
    73  C   -0.178920
    74  H    0.065813
    75  C   -0.212452
    76  H    0.082018
    77  C   -0.222660
    78  H    0.077273
    79  C   -0.217597
    80  H    0.088752
    81  O   -0.650409
    82  C    0.423876
    83  N   -0.628395
    84  H    0.362522
    85  C   -0.032557
    86  H    0.166672
    87  C    0.606991
    88  C   -0.451515
    89  H    0.143106
    90  H    0.202354
    91  H    0.163158
    92  O   -0.533538
    93  N   -0.615161
    94  H    0.355718
    95  C   -0.045350
    96  H    0.206024
    97  C    0.580228
    98  C   -0.272903
    99  H    0.172167
   100  H    0.148933
   101  O   -0.450434
   102  C   -0.276908
   103  H    0.172231
   104  H    0.179384
   105  C   -0.195596
   106  H    0.193818
   107  H    0.172379
   108  N   -0.574457
   109  H    0.362820
   110  N   -0.729863
   111  H    0.375112
   112  H    0.380268
   113  N   -0.734360
   114  H    0.370620
   115  H    0.370995
   116  C    0.733931
   117  O   -0.561891
   118  H    0.427080
 Sum of Mulliken charges =   1.00000

 Dipole moment (field-independent basis, Debye):
    X=             19.8460    Y=            -24.4425    Z=            -19.6496  Tot=             37.1134
 Quadrupole moment (field-independent basis, Debye-Ang):
   XX=            209.3774   YY=           -276.8713   ZZ=           -152.7952
   XY=            169.4381   XZ=            174.3282   YZ=            157.2416

 Normal termination of Gaussian 16 at Sat Jul  2 15:34:57 2022.
