 Gaussian 16, Revision C.01,
 Gaussian 16:  ES64L-G16RevC.01  3-Jul-2019

 -------------------------------------------------------------------
 # B3LYP/6-31G* guess=read geom=check nosymm integral(ultrafinegrid)
 -------------------------------------------------------------------

 ------------------------------------------------------
 Candidate Structure: Conf:962 Charge calc in gas phase
 ------------------------------------------------------
 Structure from the checkpoint file:  "conf-962.chk"
 Charge =  1 Multiplicity = 1

                          Input orientation:
 ---------------------------------------------------------------------
 Center     Atomic      Atomic             Coordinates (Angstroms)
 Number     Number       Type             X           Y           Z
 ---------------------------------------------------------------------
      1          7           0       -1.080765    0.251623   -6.985269
      2          1           0       -1.744546    0.875848   -7.440698
      3          1           0       -0.568881   -0.264084   -7.700408
      4          1           0       -0.003148    1.242235   -6.153633
      5          6           0       -1.793113   -0.736621   -6.156939
      6          1           0       -2.529936   -1.305723   -6.749212
      7          6           0       -2.536668    0.019064   -5.041876
      8          6           0       -0.723771   -1.742453   -5.631484
      9          1           0       -0.048212   -1.190887   -4.973301
     10          8           0       -2.283974    1.191912   -4.781260
     11          6           0       -1.268649   -2.952049   -4.881576
     12          1           0       -1.660716   -2.662795   -3.903725
     13          1           0       -2.049738   -3.473323   -5.454290
     14          1           0       -0.450491   -3.658315   -4.708974
     15          8           0        0.085755   -2.141893   -6.747649
     16          1           0       -0.316966   -2.931159   -7.145184
     17          7           0       -3.499908   -0.684086   -4.377526
     18          1           0       -3.544325   -1.682594   -4.528427
     19          6           0       -3.985712   -0.196493   -3.090249
     20          1           0       -4.459450    0.772334   -3.274406
     21          6           0       -2.759550    0.038239   -2.174198
     22          6           0       -5.045719   -1.171421   -2.503432
     23          1           0       -5.781085   -1.301806   -3.311798
     24          8           0       -1.739839   -0.646039   -2.289551
     25          6           0       -5.798335   -0.571777   -1.295672
     26          1           0       -5.089345   -0.379228   -0.479466
     27          1           0       -6.473113   -1.350334   -0.920013
     28          6           0       -4.473862   -2.552864   -2.141036
     29          1           0       -3.761228   -2.516134   -1.311287
     30          1           0       -3.968534   -3.041328   -2.982973
     31          1           0       -5.288495   -3.218338   -1.837399
     32          6           0       -6.627714    0.685658   -1.586715
     33          1           0       -7.202481    0.980446   -0.702480
     34          1           0       -7.340154    0.511219   -2.401809
     35          1           0       -6.015476    1.550813   -1.873262
     36          7           0       -2.861089    1.044133   -1.267069
     37          1           0       -3.714437    1.587923   -1.283121
     38          6           0       -1.685345    1.749463   -0.719776
     39          1           0       -0.936254    1.768825   -1.524011
     40          6           0       -0.971781    1.062433    0.470896
     41          6           0       -2.087771    3.176590   -0.354007
     42          1           0       -1.229570    3.707250    0.059968
     43          1           0       -2.868900    3.178960    0.414202
     44          1           0       -2.455378    3.708940   -1.238442
     45          8           0       -0.534065    1.732924    1.407163
     46          7           0       -0.776167   -0.270700    0.348995
     47          1           0       -0.999209   -0.694045   -0.553740
     48          6           0        0.058433   -1.028570    1.280415
     49          1           0        0.012898   -0.496195    2.237597
     50          6           0        1.536170   -1.030830    0.807724
     51          6           0       -0.484346   -2.454589    1.420537
     52          1           0        0.254878   -3.065906    1.945218
     53          1           0       -0.596123   -2.893749    0.423246
     54          8           0        2.160552   -2.068413    0.605390
     55          6           0       -1.843287   -2.494459    2.140711
     56          1           0       -1.712350   -2.402818    3.225747
     57          1           0       -2.449388   -1.640036    1.814965
     58          6           0       -2.640309   -3.740466    1.764085
     59          7           0       -3.053741   -4.524641    2.799206
     60          1           0       -2.762074   -4.364355    3.751081
     61          1           0       -3.548094   -5.380011    2.584953
     62          8           0       -2.910184   -4.003199    0.596631
     63          7           0        2.070022    0.206509    0.606818
     64          1           0        1.588968    1.040612    0.939738
     65          6           0        3.430065    0.378413    0.131041
     66          1           0        4.104785   -0.210936    0.770015
     67          6           0        3.808557    1.859904    0.320039
     68          6           0        3.647463   -0.164450   -1.304530
     69          1           0        3.473906   -1.243030   -1.240703
     70          1           0        4.712146   -0.054194   -1.558867
     71          8           0        3.019683    2.683847    0.781660
     72          6           0        2.806178    0.405059   -2.433695
     73          6           0        2.833155   -0.246716   -3.676579
     74          1           0        3.437509   -1.143493   -3.794078
     75          6           0        2.008831    1.549527   -2.318770
     76          1           0        1.946778    2.085263   -1.378798
     77          6           0        2.117374    0.230113   -4.774224
     78          1           0        2.169210   -0.281863   -5.731341
     79          6           0        1.264628    2.020860   -3.401829
     80          1           0        0.630711    2.894463   -3.285585
     81          8           0        0.647057    1.912784   -5.721732
     82          6           0        1.318093    1.369508   -4.633869
     83          7           0        5.076848    2.201488   -0.024948
     84          1           0        5.695523    1.516781   -0.435967
     85          6           0        5.592029    3.544775    0.215786
     86          1           0        5.280439    3.835031    1.224697
     87          6           0        5.031276    4.563312   -0.802377
     88          6           0        7.120172    3.537952    0.120488
     89          1           0        7.520957    4.526564    0.363103
     90          1           0        7.545855    2.815261    0.824003
     91          1           0        7.434382    3.287382   -0.897812
     92          8           0        5.265140    4.481422   -2.006480
     93          7           0        4.339985    5.594148   -0.249986
     94          1           0        4.053836    5.565714    0.721836
     95          6           0        3.913226    6.747965   -1.017934
     96          1           0        4.755113    7.088773   -1.633045
     97          6           0        3.570164    7.842856   -0.012734
     98          6           0        2.729860    6.421068   -1.968277
     99          1           0        1.847965    6.163399   -1.367995
    100          1           0        3.037309    5.515950   -2.500759
    101          8           0        3.375595    7.652957    1.166378
    102          6           0        2.389611    7.531422   -2.973861
    103          1           0        3.308970    7.933986   -3.423317
    104          1           0        1.912354    8.380054   -2.475034
    105          6           0        1.453788    7.062535   -4.095616
    106          1           0        1.097556    7.919706   -4.679252
    107          1           0        0.581224    6.561626   -3.664483
    108          7           0        2.130645    6.109857   -4.985881
    109          1           0        3.092379    6.319825   -5.224183
    110          7           0        0.338502    4.661507   -5.403118
    111          1           0        0.069049    3.674936   -5.523898
    112          1           0       -0.353931    5.358150   -5.176795
    113          7           0        2.470872    4.072976   -6.044986
    114          1           0        2.051013    3.178221   -6.305948
    115          1           0        3.432366    4.035978   -5.730937
    116          6           0        1.639152    4.956576   -5.459649
    117          8           0        3.489350    9.058084   -0.593819
    118          1           0        3.258962    9.693669    0.111906
 ---------------------------------------------------------------------

 SCF Done:  E(RB3LYP) =  -2837.67503170     A.U. after    3 cycles

 Alpha  occ. eigenvalues --  -19.29045 -19.24212 -19.23434 -19.23348 -19.20303
 Alpha  occ. eigenvalues --  -19.20081 -19.19435 -19.19162 -19.17712 -19.17061
 Alpha  occ. eigenvalues --  -19.16087 -14.50518 -14.48845 -14.48382 -14.44411
 Alpha  occ. eigenvalues --  -14.44049 -14.44007 -14.43921 -14.43054 -14.41297
 Alpha  occ. eigenvalues --  -14.41020 -14.41004 -10.45830 -10.41341 -10.37080
 Alpha  occ. eigenvalues --  -10.36961 -10.36499 -10.36300 -10.35199 -10.34819
 Alpha  occ. eigenvalues --  -10.34044 -10.34002 -10.33164 -10.32352 -10.31904
 Alpha  occ. eigenvalues --  -10.31625 -10.31259 -10.31255 -10.31002 -10.30558
 Alpha  occ. eigenvalues --  -10.29880 -10.28787 -10.28765 -10.27260 -10.26724
 Alpha  occ. eigenvalues --  -10.26311 -10.26226 -10.26158 -10.26081 -10.26011
 Alpha  occ. eigenvalues --  -10.25955 -10.25658 -10.25568 -10.25375 -10.24804
 Alpha  occ. eigenvalues --  -10.24706 -10.24068 -10.23593  -1.19946  -1.14482
 Alpha  occ. eigenvalues --   -1.12669  -1.11719  -1.11452  -1.11165  -1.11098
 Alpha  occ. eigenvalues --   -1.10663  -1.10612  -1.09602  -1.08664  -1.07894
 Alpha  occ. eigenvalues --   -1.04206  -1.01839  -1.00659  -1.00624  -1.00593
 Alpha  occ. eigenvalues --   -1.00266  -0.98881  -0.98486  -0.97452  -0.95437
 Alpha  occ. eigenvalues --   -0.92425  -0.90686  -0.88666  -0.86768  -0.85680
 Alpha  occ. eigenvalues --   -0.85168  -0.84772  -0.83902  -0.83665  -0.81944
 Alpha  occ. eigenvalues --   -0.80933  -0.80149  -0.79180  -0.78464  -0.77605
 Alpha  occ. eigenvalues --   -0.76315  -0.76145  -0.73873  -0.73193  -0.72472
 Alpha  occ. eigenvalues --   -0.72166  -0.71449  -0.70464  -0.69740  -0.69482
 Alpha  occ. eigenvalues --   -0.68589  -0.68244  -0.67799  -0.67007  -0.66769
 Alpha  occ. eigenvalues --   -0.66293  -0.66045  -0.65717  -0.64390  -0.63719
 Alpha  occ. eigenvalues --   -0.63279  -0.63226  -0.62935  -0.62369  -0.61736
 Alpha  occ. eigenvalues --   -0.61551  -0.60911  -0.60116  -0.59836  -0.59507
 Alpha  occ. eigenvalues --   -0.58709  -0.58551  -0.58070  -0.57697  -0.57476
 Alpha  occ. eigenvalues --   -0.56846  -0.56790  -0.56491  -0.56275  -0.55724
 Alpha  occ. eigenvalues --   -0.55645  -0.55022  -0.54732  -0.54468  -0.54095
 Alpha  occ. eigenvalues --   -0.53599  -0.53228  -0.52864  -0.52708  -0.52403
 Alpha  occ. eigenvalues --   -0.52061  -0.51981  -0.51534  -0.51446  -0.51104
 Alpha  occ. eigenvalues --   -0.50562  -0.50254  -0.50073  -0.49976  -0.49850
 Alpha  occ. eigenvalues --   -0.49397  -0.49150  -0.49090  -0.49056  -0.48783
 Alpha  occ. eigenvalues --   -0.48598  -0.48261  -0.48047  -0.47884  -0.47649
 Alpha  occ. eigenvalues --   -0.47362  -0.46677  -0.46489  -0.46307  -0.45984
 Alpha  occ. eigenvalues --   -0.45872  -0.45796  -0.45610  -0.45374  -0.45253
 Alpha  occ. eigenvalues --   -0.45139  -0.45003  -0.44819  -0.44581  -0.44206
 Alpha  occ. eigenvalues --   -0.43900  -0.43849  -0.43530  -0.43252  -0.43153
 Alpha  occ. eigenvalues --   -0.42769  -0.42579  -0.42137  -0.41613  -0.41132
 Alpha  occ. eigenvalues --   -0.41025  -0.40782  -0.40652  -0.40509  -0.40401
 Alpha  occ. eigenvalues --   -0.40025  -0.39815  -0.39587  -0.39479  -0.38995
 Alpha  occ. eigenvalues --   -0.38576  -0.37233  -0.37020  -0.35655  -0.35327
 Alpha  occ. eigenvalues --   -0.34913  -0.34690  -0.33860  -0.33602  -0.33361
 Alpha  occ. eigenvalues --   -0.33074  -0.32925  -0.32484  -0.31982  -0.31802
 Alpha  occ. eigenvalues --   -0.30895  -0.30653  -0.30101  -0.29888  -0.29089
 Alpha virt. eigenvalues --   -0.10308  -0.08566  -0.07896  -0.07541  -0.06917
 Alpha virt. eigenvalues --   -0.05764  -0.05664  -0.05316  -0.04839  -0.04743
 Alpha virt. eigenvalues --   -0.03548  -0.02733  -0.02062  -0.01822  -0.01197

 Mulliken charges:
               1
     1  N   -0.779266
     2  H    0.332308
     3  H    0.346821
     4  H    0.490883
     5  C   -0.097759
     6  H    0.139675
     7  C    0.642032
     8  C    0.143060
     9  H    0.184406
    10  O   -0.541109
    11  C   -0.530713
    12  H    0.208630
    13  H    0.136069
    14  H    0.183961
    15  O   -0.631266
    16  H    0.400447
    17  N   -0.613375
    18  H    0.341948
    19  C   -0.037596
    20  H    0.166681
    21  C    0.654099
    22  C   -0.111683
    23  H    0.143234
    24  O   -0.551741
    25  C   -0.270433
    26  H    0.146994
    27  H    0.158079
    28  C   -0.475786
    29  H    0.200674
    30  H    0.129320
    31  H    0.163529
    32  C   -0.461278
    33  H    0.164837
    34  H    0.158894
    35  H    0.127538
    36  N   -0.606432
    37  H    0.345379
    38  C   -0.067425
    39  H    0.193818
    40  C    0.619536
    41  C   -0.481678
    42  H    0.193855
    43  H    0.170311
    44  H    0.138218
    45  O   -0.534243
    46  N   -0.614956
    47  H    0.388358
    48  C   -0.083781
    49  H    0.188099
    50  C    0.624977
    51  C   -0.273286
    52  H    0.172120
    53  H    0.178906
    54  O   -0.526388
    55  C   -0.354503
    56  H    0.137557
    57  H    0.175947
    58  C    0.588349
    59  N   -0.740588
    60  H    0.341786
    61  H    0.346016
    62  O   -0.513445
    63  N   -0.639168
    64  H    0.384166
    65  C   -0.041768
    66  H    0.183915
    67  C    0.626816
    68  C   -0.378342
    69  H    0.212766
    70  H    0.141469
    71  O   -0.539043
    72  C    0.183299
    73  C   -0.189397
    74  H    0.142640
    75  C   -0.197729
    76  H    0.155852
    77  C   -0.188589
    78  H    0.157545
    79  C   -0.180472
    80  H    0.117406
    81  O   -0.771976
    82  C    0.331339
    83  N   -0.603471
    84  H    0.341277
    85  C   -0.032825
    86  H    0.170219
    87  C    0.641948
    88  C   -0.487831
    89  H    0.174703
    90  H    0.169987
    91  H    0.178998
    92  O   -0.551783
    93  N   -0.614620
    94  H    0.369059
    95  C   -0.017272
    96  H    0.188054
    97  C    0.580346
    98  C   -0.281381
    99  H    0.160723
   100  H    0.182745
   101  O   -0.447216
   102  C   -0.294960
   103  H    0.156893
   104  H    0.182723
   105  C   -0.150862
   106  H    0.188774
   107  H    0.166819
   108  N   -0.595237
   109  H    0.361757
   110  N   -0.774729
   111  H    0.424680
   112  H    0.367976
   113  N   -0.759758
   114  H    0.403486
   115  H    0.371241
   116  C    0.789591
   117  O   -0.566736
   118  H    0.427336
 Sum of Mulliken charges =   1.00000

 Dipole moment (field-independent basis, Debye):
    X=              1.0753    Y=             15.6589    Z=            -19.1000  Tot=             24.7218
 Quadrupole moment (field-independent basis, Debye-Ang):
   XX=           -257.2435   YY=           -187.1611   ZZ=           -203.1156
   XY=             53.7218   XZ=             -2.6877   YZ=            -69.8188

 Normal termination of Gaussian 16 at Sat Jul  2 15:36:15 2022.
