 Gaussian 16, Revision C.01,
 Gaussian 16:  ES64L-G16RevC.01  3-Jul-2019

 -------------------------------------------------------------------
 # B3LYP/6-31G* guess=read geom=check nosymm integral(ultrafinegrid)
 -------------------------------------------------------------------

 ------------------------------------------------------
 Candidate Structure: Conf:961 Charge calc in gas phase
 ------------------------------------------------------
 Structure from the checkpoint file:  "conf-961.chk"
 Charge =  1 Multiplicity = 1

                          Input orientation:
 ---------------------------------------------------------------------
 Center     Atomic      Atomic             Coordinates (Angstroms)
 Number     Number       Type             X           Y           Z
 ---------------------------------------------------------------------
      1          7           0       -6.425555   -5.133059   -5.013829
      2          1           0       -5.726020   -5.525555   -4.383005
      3          1           0       -6.586300   -5.778537   -5.783680
      4          1           0       -7.300638   -5.002514   -4.497385
      5          6           0       -6.012876   -3.796645   -5.500128
      6          1           0       -5.285731   -3.915180   -6.315586
      7          6           0       -5.346511   -3.048562   -4.347353
      8          6           0       -7.221508   -3.015522   -6.020500
      9          1           0       -6.883623   -2.005825   -6.270735
     10          8           0       -5.799696   -2.001600   -3.877562
     11          6           0       -7.867192   -3.658153   -7.222801
     12          1           0       -7.155348   -3.765105   -8.046366
     13          1           0       -8.262172   -4.643749   -6.972050
     14          1           0       -8.703002   -3.043682   -7.561601
     15          8           0       -8.213159   -2.938009   -4.997063
     16          1           0       -7.838051   -2.364847   -4.320092
     17          7           0       -4.260158   -3.654576   -3.819896
     18          1           0       -3.741745   -4.314923   -4.380020
     19          6           0       -3.534836   -3.038473   -2.717877
     20          1           0       -4.289236   -2.471189   -2.173414
     21          6           0       -2.524598   -2.045934   -3.279498
     22          6           0       -2.991454   -4.100421   -1.756362
     23          1           0       -3.904114   -4.565014   -1.359390
     24          8           0       -1.306749   -2.226463   -3.268973
     25          6           0       -2.232936   -3.497019   -0.568820
     26          1           0       -1.251342   -3.159610   -0.914477
     27          1           0       -2.048028   -4.307792    0.141849
     28          6           0       -2.160471   -5.189507   -2.428694
     29          1           0       -1.274910   -4.759793   -2.894279
     30          1           0       -2.732751   -5.729151   -3.183810
     31          1           0       -1.834284   -5.915725   -1.681319
     32          6           0       -2.969903   -2.362445    0.128730
     33          1           0       -2.491941   -2.083179    1.068638
     34          1           0       -4.002204   -2.642840    0.348034
     35          1           0       -3.000133   -1.460767   -0.490810
     36          7           0       -3.073902   -0.945239   -3.834723
     37          1           0       -4.075016   -0.811546   -3.776432
     38          6           0       -2.244213    0.158288   -4.280082
     39          1           0       -1.332920   -0.290417   -4.684929
     40          6           0       -1.876620    1.017711   -3.060317
     41          6           0       -2.969330    0.967252   -5.340159
     42          1           0       -2.329886    1.773179   -5.706004
     43          1           0       -3.876368    1.413426   -4.927645
     44          1           0       -3.234828    0.316342   -6.175137
     45          8           0       -2.438474    2.071144   -2.792893
     46          7           0       -0.901407    0.503770   -2.271540
     47          1           0       -0.527204   -0.423633   -2.436981
     48          6           0       -0.497049    1.199053   -1.066566
     49          1           0       -0.662996    2.265205   -1.227421
     50          6           0        0.981200    0.898671   -0.822384
     51          6           0       -1.329418    0.734925    0.143002
     52          1           0       -1.072783   -0.310396    0.329040
     53          1           0       -2.388523    0.770342   -0.123493
     54          8           0        1.442483   -0.209385   -1.024680
     55          6           0       -1.073024    1.558295    1.403486
     56          1           0       -0.046601    1.885946    1.445209
     57          1           0       -1.686524    2.462360    1.409419
     58          6           0       -1.347906    0.790878    2.688798
     59          7           0       -0.820309    1.340276    3.821597
     60          1           0       -0.084078    2.024643    3.773056
     61          1           0       -0.951978    0.824009    4.673058
     62          8           0       -2.036597   -0.214323    2.724250
     63          7           0        1.742687    1.930663   -0.344259
     64          1           0        1.264673    2.754121   -0.021359
     65          6           0        3.014258    1.637517    0.304725
     66          1           0        3.432816    0.787320   -0.217905
     67          6           0        2.806514    1.252484    1.790401
     68          6           0        3.961755    2.843384    0.236865
     69          1           0        3.572988    3.596263    0.933636
     70          1           0        3.897994    3.264921   -0.767283
     71          8           0        2.110998    1.956095    2.558638
     72          6           0        5.395898    2.547346    0.580736
     73          6           0        6.196545    3.554232    1.153650
     74          1           0        5.774662    4.537238    1.317755
     75          6           0        5.996654    1.296499    0.334336
     76          1           0        5.440104    0.521666   -0.180953
     77          6           0        7.496660    3.337294    1.528388
     78          1           0        8.108090    4.118477    1.966833
     79          6           0        7.278926    1.012888    0.740068
     80          1           0        7.717632    0.035902    0.584971
     81          8           0        9.254018    1.777074    1.763449
     82          6           0        8.106207    2.021223    1.387532
     83          7           0        3.503287    0.130559    2.162330
     84          1           0        4.156001   -0.242701    1.495238
     85          6           0        3.807924   -0.126340    3.564916
     86          1           0        2.958000    0.270244    4.126617
     87          6           0        5.082521    0.637316    3.948386
     88          6           0        3.978448   -1.614326    3.790254
     89          1           0        4.196199   -1.816030    4.841642
     90          1           0        3.059180   -2.130037    3.508582
     91          1           0        4.807414   -2.002856    3.195175
     92          8           0        6.190466    0.116603    3.963443
     93          7           0        4.921186    1.944805    4.271973
     94          1           0        4.042551    2.401865    4.095279
     95          6           0        6.055610    2.690954    4.782420
     96          1           0        6.829436    2.706285    4.002578
     97          6           0        6.693228    2.026427    5.995101
     98          6           0        5.659824    4.112558    5.186098
     99          1           0        6.482242    4.535082    5.763510
    100          1           0        4.807796    4.035609    5.862442
    101          8           0        7.862383    2.117316    6.272535
    102          6           0        5.338521    5.014567    4.013523
    103          1           0        4.605345    4.532351    3.357412
    104          1           0        6.243859    5.164808    3.422942
    105          6           0        4.791528    6.375610    4.420387
    106          1           0        3.838160    6.257957    4.939355
    107          1           0        4.583831    6.988523    3.537669
    108          7           0        5.653742    7.140207    5.344071
    109          1           0        5.567780    6.873345    6.314323
    110          7           0        7.260527    7.567768    3.707058
    111          1           0        8.025213    8.158885    3.422509
    112          1           0        6.543254    7.436973    3.013053
    113          7           0        7.705224    8.039117    5.963509
    114          1           0        8.501515    8.588124    5.675459
    115          1           0        7.296097    8.314980    6.846265
    116          6           0        6.863041    7.599177    4.996804
    117          8           0        5.796891    1.395207    6.781821
    118          1           0        6.292269    1.036044    7.528669
 ---------------------------------------------------------------------

 SCF Done:  E(RB3LYP) =  -2837.47688741     A.U. after    3 cycles

 Alpha  occ. eigenvalues --  -19.26865 -19.25212 -19.23525 -19.19475 -19.17904
 Alpha  occ. eigenvalues --  -19.17445 -19.16489 -19.16090 -19.15002 -19.14950
 Alpha  occ. eigenvalues --  -19.05166 -14.61923 -14.52520 -14.52503 -14.52447
 Alpha  occ. eigenvalues --  -14.49190 -14.43437 -14.41270 -14.40822 -14.40046
 Alpha  occ. eigenvalues --  -14.39983 -14.38974 -10.48651 -10.41985 -10.39966
 Alpha  occ. eigenvalues --  -10.37479 -10.36500 -10.35740 -10.35246 -10.34340
 Alpha  occ. eigenvalues --  -10.33356 -10.33193 -10.32588 -10.32077 -10.31958
 Alpha  occ. eigenvalues --  -10.29986 -10.29236 -10.28302 -10.28071 -10.27605
 Alpha  occ. eigenvalues --  -10.27386 -10.27376 -10.27314 -10.27056 -10.24992
 Alpha  occ. eigenvalues --  -10.24186 -10.23590 -10.23209 -10.23063 -10.22345
 Alpha  occ. eigenvalues --  -10.21882 -10.21580 -10.20774 -10.18791 -10.18315
 Alpha  occ. eigenvalues --  -10.18248 -10.16347 -10.15747  -1.18984  -1.17302
 Alpha  occ. eigenvalues --   -1.16360  -1.14751  -1.14296  -1.11711  -1.09261
 Alpha  occ. eigenvalues --   -1.08347  -1.08073  -1.07138  -1.07110  -1.06526
 Alpha  occ. eigenvalues --   -1.05820  -1.05589  -1.05452  -1.00231  -0.97839
 Alpha  occ. eigenvalues --   -0.97384  -0.96934  -0.96800  -0.95963  -0.93941
 Alpha  occ. eigenvalues --   -0.93099  -0.90241  -0.89711  -0.86035  -0.85422
 Alpha  occ. eigenvalues --   -0.84639  -0.84349  -0.83510  -0.81882  -0.80440
 Alpha  occ. eigenvalues --   -0.79889  -0.79395  -0.79029  -0.76989  -0.76414
 Alpha  occ. eigenvalues --   -0.76067  -0.75737  -0.74657  -0.73844  -0.73333
 Alpha  occ. eigenvalues --   -0.72394  -0.72037  -0.71650  -0.71358  -0.69673
 Alpha  occ. eigenvalues --   -0.69547  -0.68504  -0.68337  -0.67563  -0.66953
 Alpha  occ. eigenvalues --   -0.66416  -0.65437  -0.64914  -0.64842  -0.64496
 Alpha  occ. eigenvalues --   -0.64195  -0.63508  -0.63101  -0.62953  -0.62522
 Alpha  occ. eigenvalues --   -0.61514  -0.61248  -0.61055  -0.60665  -0.59671
 Alpha  occ. eigenvalues --   -0.59454  -0.58619  -0.58400  -0.57897  -0.57465
 Alpha  occ. eigenvalues --   -0.57106  -0.56833  -0.56194  -0.55591  -0.54968
 Alpha  occ. eigenvalues --   -0.54464  -0.54186  -0.53562  -0.53426  -0.53061
 Alpha  occ. eigenvalues --   -0.52807  -0.52416  -0.52217  -0.51909  -0.51643
 Alpha  occ. eigenvalues --   -0.51352  -0.51035  -0.50837  -0.50257  -0.50194
 Alpha  occ. eigenvalues --   -0.49931  -0.49535  -0.49036  -0.48592  -0.48560
 Alpha  occ. eigenvalues --   -0.48418  -0.48030  -0.47579  -0.47246  -0.47087
 Alpha  occ. eigenvalues --   -0.46683  -0.46389  -0.46138  -0.46070  -0.45590
 Alpha  occ. eigenvalues --   -0.45247  -0.45089  -0.44804  -0.44714  -0.44482
 Alpha  occ. eigenvalues --   -0.44431  -0.44360  -0.43958  -0.43730  -0.43485
 Alpha  occ. eigenvalues --   -0.43313  -0.43019  -0.42791  -0.42627  -0.42351
 Alpha  occ. eigenvalues --   -0.42130  -0.41915  -0.41729  -0.41504  -0.41097
 Alpha  occ. eigenvalues --   -0.40894  -0.40735  -0.40718  -0.40511  -0.40317
 Alpha  occ. eigenvalues --   -0.39615  -0.39463  -0.39381  -0.39277  -0.39219
 Alpha  occ. eigenvalues --   -0.38661  -0.38401  -0.38026  -0.37658  -0.36070
 Alpha  occ. eigenvalues --   -0.35516  -0.34303  -0.34009  -0.33546  -0.32892
 Alpha  occ. eigenvalues --   -0.32565  -0.32190  -0.31860  -0.31195  -0.30579
 Alpha  occ. eigenvalues --   -0.29683  -0.29356  -0.29294  -0.29129  -0.28861
 Alpha  occ. eigenvalues --   -0.28579  -0.27849  -0.24640  -0.18739  -0.15369
 Alpha virt. eigenvalues --   -0.14672  -0.13828  -0.11074  -0.08899  -0.07394
 Alpha virt. eigenvalues --   -0.05721  -0.05236  -0.05211  -0.04779  -0.04090
 Alpha virt. eigenvalues --   -0.03390  -0.03288  -0.03125  -0.02822  -0.01923

 Mulliken charges:
               1
     1  N   -0.696665
     2  H    0.411740
     3  H    0.391470
     4  H    0.416606
     5  C   -0.165521
     6  H    0.210656
     7  C    0.616180
     8  C    0.115211
     9  H    0.192683
    10  O   -0.532374
    11  C   -0.466858
    12  H    0.167961
    13  H    0.138728
    14  H    0.214927
    15  O   -0.630849
    16  H    0.433353
    17  N   -0.625966
    18  H    0.337502
    19  C   -0.090253
    20  H    0.205576
    21  C    0.627896
    22  C   -0.069420
    23  H    0.116449
    24  O   -0.530878
    25  C   -0.272983
    26  H    0.182204
    27  H    0.142801
    28  C   -0.473665
    29  H    0.200394
    30  H    0.085505
    31  H    0.171267
    32  C   -0.483216
    33  H    0.210538
    34  H    0.130583
    35  H    0.141364
    36  N   -0.608617
    37  H    0.364464
    38  C   -0.058479
    39  H    0.184547
    40  C    0.619472
    41  C   -0.457004
    42  H    0.179144
    43  H    0.172409
    44  H    0.134338
    45  O   -0.531154
    46  N   -0.623476
    47  H    0.376444
    48  C   -0.050255
    49  H    0.168037
    50  C    0.616352
    51  C   -0.261316
    52  H    0.176667
    53  H    0.166482
    54  O   -0.520843
    55  C   -0.403314
    56  H    0.166795
    57  H    0.174038
    58  C    0.589893
    59  N   -0.751746
    60  H    0.351086
    61  H    0.336017
    62  O   -0.505818
    63  N   -0.597755
    64  H    0.328449
    65  C   -0.065176
    66  H    0.189830
    67  C    0.643234
    68  C   -0.363311
    69  H    0.118520
    70  H    0.156677
    71  O   -0.594880
    72  C    0.134810
    73  C   -0.168483
    74  H    0.037195
    75  C   -0.213857
    76  H    0.092112
    77  C   -0.240382
    78  H    0.066283
    79  C   -0.206361
    80  H    0.111231
    81  O   -0.596645
    82  C    0.431468
    83  N   -0.559209
    84  H    0.353559
    85  C   -0.081198
    86  H    0.167548
    87  C    0.662430
    88  C   -0.449339
    89  H    0.164116
    90  H    0.155018
    91  H    0.180341
    92  O   -0.502328
    93  N   -0.639366
    94  H    0.332994
    95  C    0.009913
    96  H    0.245370
    97  C    0.588688
    98  C   -0.332073
    99  H    0.155191
   100  H    0.147134
   101  O   -0.458061
   102  C   -0.284637
   103  H    0.191673
   104  H    0.187505
   105  C   -0.211741
   106  H    0.196268
   107  H    0.182202
   108  N   -0.561815
   109  H    0.371052
   110  N   -0.704560
   111  H    0.381405
   112  H    0.392420
   113  N   -0.724491
   114  H    0.379892
   115  H    0.381784
   116  C    0.750150
   117  O   -0.571276
   118  H    0.413371
 Sum of Mulliken charges =   1.00000

 Dipole moment (field-independent basis, Debye):
    X=            -15.8660    Y=              9.8208    Z=             -2.1497  Tot=             18.7829
 Quadrupole moment (field-independent basis, Debye-Ang):
   XX=           -246.6578   YY=             12.3691   ZZ=           -109.6486
   XY=            302.3442   XZ=            219.0488   YZ=            258.2603

 Normal termination of Gaussian 16 at Sat Jul  2 15:35:50 2022.
