 Gaussian 16, Revision C.01,
 Gaussian 16:  ES64L-G16RevC.01  3-Jul-2019

 -------------------------------------------------------------------
 # B3LYP/6-31G* guess=read geom=check nosymm integral(ultrafinegrid)
 -------------------------------------------------------------------

 ------------------------------------------------------
 Candidate Structure: Conf:879 Charge calc in gas phase
 ------------------------------------------------------
 Structure from the checkpoint file:  "conf-879.chk"
 Charge =  1 Multiplicity = 1

                          Input orientation:
 ---------------------------------------------------------------------
 Center     Atomic      Atomic             Coordinates (Angstroms)
 Number     Number       Type             X           Y           Z
 ---------------------------------------------------------------------
      1          7           0       -7.170127   -6.497239   -3.519642
      2          1           0       -7.379777   -6.711424   -2.543990
      3          1           0       -7.021820   -7.361982   -4.043747
      4          1           0       -7.959701   -5.988023   -3.924812
      5          6           0       -5.966066   -5.654535   -3.639476
      6          1           0       -5.174409   -6.049041   -2.990976
      7          6           0       -6.308879   -4.225045   -3.240955
      8          6           0       -5.457083   -5.714585   -5.091914
      9          1           0       -6.257468   -5.348727   -5.738193
     10          8           0       -7.390969   -3.723744   -3.522053
     11          6           0       -4.187664   -4.925640   -5.334140
     12          1           0       -4.338232   -3.855043   -5.184551
     13          1           0       -3.391497   -5.262410   -4.659595
     14          1           0       -3.856609   -5.082444   -6.362433
     15          8           0       -5.270379   -7.078501   -5.458900
     16          1           0       -4.472513   -7.385905   -5.022104
     17          7           0       -5.325855   -3.560073   -2.573589
     18          1           0       -4.389556   -3.937525   -2.593923
     19          6           0       -5.344739   -2.117901   -2.449400
     20          1           0       -6.096550   -1.727055   -3.138964
     21          6           0       -3.967850   -1.624064   -2.874714
     22          6           0       -5.719571   -1.629345   -1.030895
     23          1           0       -5.595162   -0.541382   -1.054496
     24          8           0       -2.985306   -2.358014   -2.866540
     25          6           0       -4.779252   -2.180945    0.042707
     26          1           0       -3.750582   -2.111569   -0.328376
     27          1           0       -4.997535   -3.242968    0.177350
     28          6           0       -7.179765   -1.970017   -0.735078
     29          1           0       -7.308757   -3.050729   -0.674339
     30          1           0       -7.838679   -1.597475   -1.523483
     31          1           0       -7.501455   -1.542033    0.214834
     32          6           0       -4.880077   -1.457218    1.379283
     33          1           0       -4.221109   -1.917552    2.116397
     34          1           0       -5.892854   -1.477993    1.782248
     35          1           0       -4.585629   -0.410254    1.277082
     36          7           0       -3.904458   -0.319894   -3.264454
     37          1           0       -4.684477    0.260432   -3.014618
     38          6           0       -2.619528    0.365523   -3.299297
     39          1           0       -1.931941   -0.271014   -3.860371
     40          6           0       -2.105440    0.519465   -1.864635
     41          6           0       -2.775669    1.724334   -3.960501
     42          1           0       -1.813536    2.238324   -4.018040
     43          1           0       -3.461708    2.346460   -3.382503
     44          1           0       -3.170256    1.605832   -4.971279
     45          8           0       -2.867270    0.776978   -0.932960
     46          7           0       -0.773622    0.367895   -1.705325
     47          1           0       -0.149910    0.204605   -2.480230
     48          6           0       -0.169591    0.371195   -0.392389
     49          1           0       -0.449825    1.299165    0.119529
     50          6           0        1.348754    0.343019   -0.621190
     51          6           0       -0.649267   -0.796652    0.487089
     52          1           0       -1.675200   -0.577719    0.793476
     53          1           0       -0.041299   -0.836610    1.391737
     54          8           0        1.833305    0.057873   -1.704110
     55          6           0       -0.595696   -2.146462   -0.222638
     56          1           0       -1.315481   -2.200386   -1.035049
     57          1           0        0.390475   -2.304858   -0.660601
     58          6           0       -0.822144   -3.297864    0.744707
     59          7           0       -1.455766   -4.383608    0.215025
     60          1           0       -1.773443   -4.408674   -0.735668
     61          1           0       -1.578750   -5.182629    0.810769
     62          8           0       -0.421797   -3.277857    1.895601
     63          7           0        2.097646    0.615032    0.472272
     64          1           0        1.684704    0.877767    1.351245
     65          6           0        3.531629    0.758238    0.387573
     66          1           0        3.937716   -0.121411   -0.118950
     67          6           0        4.050991    0.813814    1.822257
     68          6           0        3.945703    1.994379   -0.433383
     69          1           0        3.689191    1.791956   -1.470518
     70          1           0        5.033478    2.097477   -0.372261
     71          8           0        3.313801    0.970371    2.781108
     72          6           0        3.264869    3.240456    0.027313
     73          6           0        2.160247    3.762210   -0.663661
     74          1           0        1.805817    3.259446   -1.555197
     75          6           0        3.696734    3.921211    1.166937
     76          1           0        4.546406    3.538199    1.723411
     77          6           0        1.508257    4.901974   -0.241537
     78          1           0        0.666287    5.302499   -0.788758
     79          6           0        3.074802    5.065447    1.624291
     80          1           0        3.447509    5.580707    2.496468
     81          8           0        1.335742    6.646447    1.324711
     82          6           0        1.929634    5.617503    0.937743
     83          7           0        5.394848    0.676490    1.953967
     84          1           0        5.976827    0.689107    1.136283
     85          6           0        6.035844    0.654820    3.253747
     86          1           0        5.478491   -0.050031    3.877619
     87          6           0        5.979080    2.032800    3.929442
     88          6           0        7.486106    0.212130    3.106637
     89          1           0        7.973511    0.145455    4.081959
     90          1           0        7.539193   -0.767295    2.628884
     91          1           0        8.032543    0.935310    2.499280
     92          8           0        6.118332    3.085642    3.318007
     93          7           0        5.821404    1.970664    5.278544
     94          1           0        5.916632    1.079006    5.735913
     95          6           0        5.927843    3.127888    6.133404
     96          1           0        6.355243    3.952486    5.558425
     97          6           0        6.848310    2.802132    7.287617
     98          6           0        4.546720    3.546094    6.652769
     99          1           0        4.664227    4.411883    7.305653
    100          1           0        4.140430    2.735624    7.261590
    101          8           0        7.191307    1.694535    7.617245
    102          6           0        3.584604    3.867374    5.514843
    103          1           0        3.480751    2.999849    4.870281
    104          1           0        3.991671    4.670734    4.898949
    105          6           0        2.202949    4.249032    6.022841
    106          1           0        2.263845    5.086895    6.728455
    107          1           0        1.783262    3.401055    6.568125
    108          7           0        1.240938    4.536343    4.947314
    109          1           0        0.467235    3.895531    4.855250
    110          7           0        2.108430    6.633667    4.433641
    111          1           0        1.807437    7.584717    4.268472
    112          1           0        2.693592    6.528186    5.251288
    113          7           0        0.130407    5.941171    3.429914
    114          1           0        0.448594    6.401512    2.570404
    115          1           0       -0.512873    5.173257    3.261876
    116          6           0        1.143976    5.685839    4.277847
    117          8           0        7.227318    3.916614    7.943331
    118          1           0        7.788810    3.618455    8.670717
 ---------------------------------------------------------------------

 SCF Done:  E(RB3LYP) =  -2837.57383730     A.U. after    1 cycles

 Alpha  occ. eigenvalues --  -19.30986 -19.26943 -19.25972 -19.22973 -19.20670
 Alpha  occ. eigenvalues --  -19.17855 -19.16752 -19.16607 -19.16382 -19.16324
 Alpha  occ. eigenvalues --  -19.06526 -14.63852 -14.49538 -14.45793 -14.45518
 Alpha  occ. eigenvalues --  -14.44030 -14.41735 -14.41675 -14.41320 -14.40836
 Alpha  occ. eigenvalues --  -14.40545 -14.39670 -10.44167 -10.42269 -10.40611
 Alpha  occ. eigenvalues --  -10.39838 -10.39279 -10.38417 -10.34854 -10.34137
 Alpha  occ. eigenvalues --  -10.33833 -10.33531 -10.33352 -10.33304 -10.31801
 Alpha  occ. eigenvalues --  -10.31094 -10.31058 -10.29750 -10.28773 -10.28419
 Alpha  occ. eigenvalues --  -10.28383 -10.26679 -10.25881 -10.25827 -10.25763
 Alpha  occ. eigenvalues --  -10.25751 -10.24700 -10.24209 -10.24112 -10.23842
 Alpha  occ. eigenvalues --  -10.23839 -10.20899 -10.20571 -10.17141 -10.16486
 Alpha  occ. eigenvalues --  -10.16368 -10.15063 -10.14956  -1.21094  -1.18671
 Alpha  occ. eigenvalues --   -1.17477  -1.17271  -1.14989  -1.10082  -1.09478
 Alpha  occ. eigenvalues --   -1.09052  -1.08860  -1.08591  -1.08574  -1.08086
 Alpha  occ. eigenvalues --   -1.06328  -1.02316  -0.99186  -0.98569  -0.98501
 Alpha  occ. eigenvalues --   -0.97790  -0.97707  -0.96859  -0.96410  -0.95700
 Alpha  occ. eigenvalues --   -0.95534  -0.90909  -0.87483  -0.87243  -0.86525
 Alpha  occ. eigenvalues --   -0.84894  -0.84084  -0.82997  -0.82660  -0.81647
 Alpha  occ. eigenvalues --   -0.80172  -0.79693  -0.79150  -0.77791  -0.77404
 Alpha  occ. eigenvalues --   -0.75864  -0.75120  -0.73517  -0.72699  -0.72385
 Alpha  occ. eigenvalues --   -0.72178  -0.71666  -0.71103  -0.71077  -0.70309
 Alpha  occ. eigenvalues --   -0.69143  -0.68232  -0.67559  -0.66740  -0.66541
 Alpha  occ. eigenvalues --   -0.66062  -0.65863  -0.65380  -0.64799  -0.64526
 Alpha  occ. eigenvalues --   -0.64088  -0.63750  -0.62639  -0.61940  -0.61701
 Alpha  occ. eigenvalues --   -0.61215  -0.60014  -0.59881  -0.59614  -0.59325
 Alpha  occ. eigenvalues --   -0.58737  -0.58504  -0.57856  -0.57121  -0.56819
 Alpha  occ. eigenvalues --   -0.56244  -0.56041  -0.55719  -0.55602  -0.55030
 Alpha  occ. eigenvalues --   -0.54943  -0.54734  -0.54346  -0.54272  -0.54023
 Alpha  occ. eigenvalues --   -0.53689  -0.53158  -0.52633  -0.52535  -0.52286
 Alpha  occ. eigenvalues --   -0.51961  -0.51884  -0.51809  -0.51650  -0.51300
 Alpha  occ. eigenvalues --   -0.50876  -0.50611  -0.50102  -0.49673  -0.49075
 Alpha  occ. eigenvalues --   -0.48745  -0.48460  -0.48383  -0.48109  -0.47968
 Alpha  occ. eigenvalues --   -0.47181  -0.47050  -0.46797  -0.46590  -0.46499
 Alpha  occ. eigenvalues --   -0.46143  -0.46079  -0.45969  -0.45725  -0.45464
 Alpha  occ. eigenvalues --   -0.44778  -0.44499  -0.44418  -0.44325  -0.44280
 Alpha  occ. eigenvalues --   -0.44167  -0.44012  -0.43668  -0.43231  -0.43059
 Alpha  occ. eigenvalues --   -0.42678  -0.42585  -0.42341  -0.41993  -0.41472
 Alpha  occ. eigenvalues --   -0.41229  -0.41080  -0.40835  -0.40723  -0.40370
 Alpha  occ. eigenvalues --   -0.40297  -0.40088  -0.39544  -0.39344  -0.39186
 Alpha  occ. eigenvalues --   -0.38816  -0.38326  -0.37669  -0.36609  -0.36465
 Alpha  occ. eigenvalues --   -0.35930  -0.35431  -0.34438  -0.33708  -0.33504
 Alpha  occ. eigenvalues --   -0.32609  -0.32557  -0.31939  -0.31813  -0.31407
 Alpha  occ. eigenvalues --   -0.31012  -0.30695  -0.30271  -0.30129  -0.29682
 Alpha  occ. eigenvalues --   -0.29282  -0.28588  -0.23142  -0.20707  -0.16671
 Alpha virt. eigenvalues --   -0.14390  -0.12430  -0.08854  -0.08118  -0.07218
 Alpha virt. eigenvalues --   -0.05594  -0.05315  -0.04955  -0.04501  -0.04352
 Alpha virt. eigenvalues --   -0.02979  -0.02777  -0.02709  -0.02270  -0.02004

 Mulliken charges:
               1
     1  N   -0.711394
     2  H    0.431300
     3  H    0.426357
     4  H    0.429347
     5  C   -0.163468
     6  H    0.196848
     7  C    0.623096
     8  C    0.114920
     9  H    0.192235
    10  O   -0.505890
    11  C   -0.488615
    12  H    0.196461
    13  H    0.159567
    14  H    0.215712
    15  O   -0.606307
    16  H    0.412236
    17  N   -0.584172
    18  H    0.351244
    19  C   -0.094456
    20  H    0.189168
    21  C    0.633817
    22  C   -0.080546
    23  H    0.158537
    24  O   -0.550011
    25  C   -0.269815
    26  H    0.161954
    27  H    0.116835
    28  C   -0.448883
    29  H    0.127100
    30  H    0.158243
    31  H    0.172760
    32  C   -0.465475
    33  H    0.164085
    34  H    0.145662
    35  H    0.179602
    36  N   -0.574967
    37  H    0.344733
    38  C   -0.067831
    39  H    0.176183
    40  C    0.640508
    41  C   -0.470155
    42  H    0.188326
    43  H    0.172276
    44  H    0.169238
    45  O   -0.556277
    46  N   -0.616305
    47  H    0.354275
    48  C   -0.038781
    49  H    0.184284
    50  C    0.639512
    51  C   -0.291265
    52  H    0.176654
    53  H    0.179828
    54  O   -0.553064
    55  C   -0.393857
    56  H    0.170294
    57  H    0.187704
    58  C    0.599174
    59  N   -0.758091
    60  H    0.324751
    61  H    0.335820
    62  O   -0.502793
    63  N   -0.618168
    64  H    0.350787
    65  C   -0.026617
    66  H    0.160811
    67  C    0.649365
    68  C   -0.391425
    69  H    0.174309
    70  H    0.133752
    71  O   -0.549992
    72  C    0.153361
    73  C   -0.201519
    74  H    0.082909
    75  C   -0.213366
    76  H    0.148740
    77  C   -0.211667
    78  H    0.081361
    79  C   -0.254675
    80  H    0.093033
    81  O   -0.708172
    82  C    0.400179
    83  N   -0.605724
    84  H    0.339191
    85  C   -0.040124
    86  H    0.161896
    87  C    0.642510
    88  C   -0.484877
    89  H    0.171833
    90  H    0.170092
    91  H    0.178574
    92  O   -0.511521
    93  N   -0.598686
    94  H    0.344697
    95  C   -0.050377
    96  H    0.210536
    97  C    0.579713
    98  C   -0.269900
    99  H    0.156926
   100  H    0.146626
   101  O   -0.460655
   102  C   -0.282867
   103  H    0.208125
   104  H    0.179360
   105  C   -0.182448
   106  H    0.159391
   107  H    0.172833
   108  N   -0.570490
   109  H    0.352627
   110  N   -0.695916
   111  H    0.376235
   112  H    0.350322
   113  N   -0.737865
   114  H    0.417218
   115  H    0.332316
   116  C    0.717535
   117  O   -0.559955
   118  H    0.421611
 Sum of Mulliken charges =   1.00000

 Dipole moment (field-independent basis, Debye):
    X=            -23.8653    Y=            -24.4980    Z=             -2.7073  Tot=             34.3079
 Quadrupole moment (field-independent basis, Debye-Ang):
   XX=           -131.5051   YY=           -174.8900   ZZ=           -187.9633
   XY=            159.4763   XZ=            137.1092   YZ=            159.4650

 Normal termination of Gaussian 16 at Sat Jul  2 15:35:03 2022.
