 Gaussian 16, Revision C.01,
 Gaussian 16:  ES64L-G16RevC.01  3-Jul-2019

 -------------------------------------------------------------------
 # B3LYP/6-31G* guess=read geom=check nosymm integral(ultrafinegrid)
 -------------------------------------------------------------------

 ------------------------------------------------------
 Candidate Structure: Conf:156 Charge calc in gas phase
 ------------------------------------------------------
 Structure from the checkpoint file:  "conf-156.chk"
 Charge =  1 Multiplicity = 1

                          Input orientation:
 ---------------------------------------------------------------------
 Center     Atomic      Atomic             Coordinates (Angstroms)
 Number     Number       Type             X           Y           Z
 ---------------------------------------------------------------------
      1          7           0       -6.352030    0.806194   -7.000803
      2          1           0       -7.325668    1.081654   -6.850546
      3          1           0       -6.233632    0.415850   -7.951498
      4          1           0       -5.732253    1.635822   -6.800478
      5          6           0       -5.860294   -0.218972   -6.016351
      6          1           0       -6.713070   -0.794988   -5.648279
      7          6           0       -5.167965    0.631803   -4.918396
      8          6           0       -4.850870   -1.132890   -6.783526
      9          1           0       -3.919257   -0.567449   -6.900696
     10          8           0       -4.819276    1.776294   -5.246000
     11          6           0       -4.581679   -2.452155   -6.072673
     12          1           0       -4.149440   -2.308567   -5.076878
     13          1           0       -5.507736   -3.032043   -5.960055
     14          1           0       -3.874219   -3.041438   -6.663445
     15          8           0       -5.343525   -1.315984   -8.115968
     16          1           0       -5.827161   -2.157381   -8.165201
     17          7           0       -4.997360    0.035280   -3.748017
     18          1           0       -5.219503   -0.956128   -3.640117
     19          6           0       -4.126117    0.477679   -2.645735
     20          1           0       -3.499582    1.304630   -2.986327
     21          6           0       -3.273785   -0.784689   -2.366515
     22          6           0       -4.977639    0.897662   -1.411616
     23          1           0       -5.578307    0.015954   -1.142620
     24          8           0       -3.782984   -1.900004   -2.584939
     25          6           0       -5.972491    2.032586   -1.749025
     26          1           0       -6.618337    2.160979   -0.870371
     27          1           0       -6.637538    1.703808   -2.559455
     28          6           0       -4.084832    1.258810   -0.213566
     29          1           0       -3.334471    2.002749   -0.495839
     30          1           0       -3.541757    0.392871    0.173930
     31          1           0       -4.702153    1.661415    0.597882
     32          6           0       -5.353729    3.387021   -2.118906
     33          1           0       -6.143697    4.127722   -2.289644
     34          1           0       -4.754700    3.327349   -3.033349
     35          1           0       -4.710714    3.768855   -1.319748
     36          7           0       -2.030177   -0.575755   -1.926034
     37          1           0       -1.697615    0.404457   -1.836565
     38          6           0       -1.133852   -1.678278   -1.612847
     39          1           0       -1.697880   -2.595655   -1.807973
     40          6           0       -0.744133   -1.650952   -0.116527
     41          6           0        0.112344   -1.636215   -2.518542
     42          1           0        0.773636   -2.489377   -2.335230
     43          1           0        0.683721   -0.718778   -2.345411
     44          1           0       -0.193155   -1.663852   -3.569002
     45          8           0       -1.031109   -0.717130    0.627666
     46          7           0       -0.046859   -2.739156    0.312158
     47          1           0        0.208511   -3.465682   -0.343389
     48          6           0        0.460863   -2.865545    1.684619
     49          1           0       -0.213188   -2.273014    2.310692
     50          6           0        1.882770   -2.258627    1.747933
     51          6           0        0.447320   -4.331659    2.117275
     52          1           0        1.147715   -4.895277    1.489655
     53          1           0       -0.551610   -4.746408    1.954401
     54          8           0        2.894882   -2.948617    1.661717
     55          6           0        0.829724   -4.525821    3.586461
     56          1           0        1.870938   -4.230537    3.753459
     57          1           0        0.209394   -3.882424    4.227654
     58          6           0        0.594951   -5.970314    4.033281
     59          7           0        1.356713   -6.373908    5.093168
     60          1           0        2.126560   -5.824315    5.443433
     61          1           0        1.261671   -7.328272    5.411489
     62          8           0       -0.239809   -6.697264    3.512421
     63          7           0        1.929171   -0.903161    1.864452
     64          1           0        1.067654   -0.375451    1.760427
     65          6           0        3.197447   -0.219446    1.734528
     66          1           0        3.701901   -0.570939    0.824147
     67          6           0        4.119807   -0.441263    2.948945
     68          6           0        3.021548    1.327665    1.665513
     69          1           0        4.015651    1.725231    1.428208
     70          1           0        2.766863    1.665680    2.678460
     71          8           0        3.696868   -0.506378    4.092613
     72          6           0        1.977297    1.822585    0.694911
     73          6           0        2.161147    1.751753   -0.700019
     74          1           0        3.143092    1.489688   -1.095443
     75          6           0        0.692906    2.203617    1.152989
     76          1           0        0.525158    2.289489    2.227161
     77          6           0        1.108899    1.974735   -1.587429
     78          1           0        1.262452    1.878874   -2.660386
     79          6           0       -0.363789    2.424787    0.288933
     80          1           0       -1.346296    2.670118    0.681247
     81          8           0       -1.250518    2.146467   -1.913084
     82          6           0       -0.243166    2.190242   -1.125319
     83          7           0        5.459588   -0.376779    2.638933
     84          1           0        5.697703   -0.191023    1.670624
     85          6           0        6.411917    0.199298    3.583651
     86          1           0        5.931728    0.161407    4.564990
     87          6           0        6.644345    1.656606    3.137119
     88          6           0        7.736935   -0.572403    3.604181
     89          1           0        8.431984   -0.138718    4.332048
     90          1           0        7.550571   -1.615176    3.874991
     91          1           0        8.212589   -0.544536    2.618298
     92          8           0        6.823055    1.927870    1.949368
     93          7           0        6.598170    2.614968    4.105498
     94          1           0        6.594286    2.346696    5.083668
     95          6           0        6.972938    3.992276    3.826288
     96          1           0        7.623169    3.990057    2.944690
     97          6           0        7.763703    4.510314    5.023464
     98          6           0        5.770726    4.933490    3.542806
     99          1           0        6.178016    5.929786    3.332206
    100          1           0        5.162187    5.019613    4.453302
    101          8           0        7.853485    3.936824    6.086265
    102          6           0        4.892936    4.452787    2.378892
    103          1           0        4.422072    3.507105    2.661329
    104          1           0        5.507249    4.249345    1.495929
    105          6           0        3.803598    5.471280    2.025379
    106          1           0        4.269312    6.385889    1.639682
    107          1           0        3.225846    5.737540    2.922130
    108          7           0        2.899970    4.944636    0.992013
    109          1           0        2.708063    3.935194    0.967513
    110          7           0        2.140809    7.025391    0.268571
    111          1           0        1.772107    7.598666   -0.475116
    112          1           0        2.476007    7.490255    1.097230
    113          7           0        1.524298    5.107752   -0.868392
    114          1           0        0.729660    5.583175   -1.273461
    115          1           0        1.531294    4.089082   -1.003551
    116          6           0        2.183175    5.682148    0.145748
    117          8           0        8.330613    5.704986    4.767154
    118          1           0        8.802137    5.976587    5.578349
 ---------------------------------------------------------------------

 SCF Done:  E(RB3LYP) =  -2837.61765630     A.U. after    1 cycles

 Alpha  occ. eigenvalues --  -19.28984 -19.27697 -19.24064 -19.22150 -19.18496
 Alpha  occ. eigenvalues --  -19.18274 -19.17101 -19.16083 -19.15789 -19.14076
 Alpha  occ. eigenvalues --  -19.11745 -14.57548 -14.49340 -14.48154 -14.47007
 Alpha  occ. eigenvalues --  -14.46679 -14.43367 -14.41730 -14.41139 -14.40404
 Alpha  occ. eigenvalues --  -14.39989 -14.38777 -10.44681 -10.41076 -10.40132
 Alpha  occ. eigenvalues --  -10.38520 -10.38056 -10.35437 -10.35157 -10.34234
 Alpha  occ. eigenvalues --  -10.33563 -10.33164 -10.32627 -10.31955 -10.31865
 Alpha  occ. eigenvalues --  -10.30339 -10.29387 -10.29157 -10.28990 -10.28308
 Alpha  occ. eigenvalues --  -10.28037 -10.27856 -10.27821 -10.27197 -10.25555
 Alpha  occ. eigenvalues --  -10.25347 -10.24342 -10.24122 -10.24079 -10.23554
 Alpha  occ. eigenvalues --  -10.23544 -10.23282 -10.22936 -10.22721 -10.22485
 Alpha  occ. eigenvalues --  -10.21892 -10.21311 -10.21281  -1.18684  -1.17287
 Alpha  occ. eigenvalues --   -1.15672  -1.13178  -1.11294  -1.10570  -1.10002
 Alpha  occ. eigenvalues --   -1.09721  -1.08944  -1.08207  -1.07268  -1.05935
 Alpha  occ. eigenvalues --   -1.03244  -1.02629  -1.01108  -1.00837  -0.99807
 Alpha  occ. eigenvalues --   -0.98025  -0.97825  -0.97246  -0.96541  -0.93318
 Alpha  occ. eigenvalues --   -0.91227  -0.89282  -0.88886  -0.87334  -0.84977
 Alpha  occ. eigenvalues --   -0.84601  -0.83530  -0.83252  -0.82367  -0.81182
 Alpha  occ. eigenvalues --   -0.79744  -0.78522  -0.78025  -0.76882  -0.76701
 Alpha  occ. eigenvalues --   -0.75306  -0.75179  -0.74941  -0.72140  -0.71661
 Alpha  occ. eigenvalues --   -0.71394  -0.71164  -0.70468  -0.69566  -0.69355
 Alpha  occ. eigenvalues --   -0.69094  -0.68671  -0.68159  -0.66928  -0.66243
 Alpha  occ. eigenvalues --   -0.65733  -0.65243  -0.64518  -0.64147  -0.63298
 Alpha  occ. eigenvalues --   -0.63210  -0.62615  -0.62328  -0.62201  -0.61708
 Alpha  occ. eigenvalues --   -0.61260  -0.60824  -0.60199  -0.60144  -0.59698
 Alpha  occ. eigenvalues --   -0.58820  -0.58566  -0.57683  -0.57098  -0.56836
 Alpha  occ. eigenvalues --   -0.56528  -0.56486  -0.56128  -0.55709  -0.55018
 Alpha  occ. eigenvalues --   -0.54903  -0.54541  -0.54010  -0.53730  -0.53580
 Alpha  occ. eigenvalues --   -0.53090  -0.52654  -0.52399  -0.52088  -0.51805
 Alpha  occ. eigenvalues --   -0.51188  -0.50872  -0.50601  -0.50476  -0.50043
 Alpha  occ. eigenvalues --   -0.49533  -0.49489  -0.49315  -0.49187  -0.49065
 Alpha  occ. eigenvalues --   -0.48910  -0.48598  -0.48464  -0.48247  -0.48015
 Alpha  occ. eigenvalues --   -0.47825  -0.46698  -0.46395  -0.46167  -0.46147
 Alpha  occ. eigenvalues --   -0.45927  -0.45802  -0.45759  -0.45547  -0.45419
 Alpha  occ. eigenvalues --   -0.45003  -0.44692  -0.44106  -0.43984  -0.43776
 Alpha  occ. eigenvalues --   -0.43485  -0.43412  -0.43076  -0.42914  -0.42732
 Alpha  occ. eigenvalues --   -0.42653  -0.42429  -0.42174  -0.42133  -0.42003
 Alpha  occ. eigenvalues --   -0.41624  -0.41449  -0.41057  -0.40505  -0.40225
 Alpha  occ. eigenvalues --   -0.39798  -0.39790  -0.39655  -0.39269  -0.39103
 Alpha  occ. eigenvalues --   -0.38849  -0.38365  -0.38165  -0.37868  -0.37783
 Alpha  occ. eigenvalues --   -0.37468  -0.37309  -0.35842  -0.35823  -0.34866
 Alpha  occ. eigenvalues --   -0.33100  -0.32729  -0.32495  -0.32337  -0.31724
 Alpha  occ. eigenvalues --   -0.30900  -0.30446  -0.30180  -0.29941  -0.29774
 Alpha  occ. eigenvalues --   -0.28806  -0.28350  -0.27912  -0.25634  -0.22886
 Alpha virt. eigenvalues --   -0.10087  -0.08819  -0.08590  -0.07054  -0.05097
 Alpha virt. eigenvalues --   -0.04962  -0.04816  -0.04287  -0.03933  -0.03749
 Alpha virt. eigenvalues --   -0.03690  -0.02763  -0.01778  -0.01536  -0.01202

 Mulliken charges:
               1
     1  N   -0.748388
     2  H    0.410251
     3  H    0.422022
     4  H    0.424273
     5  C   -0.141958
     6  H    0.198653
     7  C    0.647605
     8  C    0.129286
     9  H    0.192684
    10  O   -0.538199
    11  C   -0.519159
    12  H    0.219756
    13  H    0.159414
    14  H    0.198720
    15  O   -0.633195
    16  H    0.421388
    17  N   -0.586683
    18  H    0.363821
    19  C   -0.101174
    20  H    0.225357
    21  C    0.613686
    22  C   -0.070192
    23  H    0.130895
    24  O   -0.578433
    25  C   -0.254526
    26  H    0.144757
    27  H    0.107151
    28  C   -0.500900
    29  H    0.191117
    30  H    0.183149
    31  H    0.138497
    32  C   -0.460208
    33  H    0.138450
    34  H    0.167103
    35  H    0.157547
    36  N   -0.613615
    37  H    0.429941
    38  C   -0.090726
    39  H    0.191635
    40  C    0.633730
    41  C   -0.458385
    42  H    0.149698
    43  H    0.183901
    44  H    0.156613
    45  O   -0.523396
    46  N   -0.608097
    47  H    0.336353
    48  C   -0.062475
    49  H    0.178383
    50  C    0.634619
    51  C   -0.270831
    52  H    0.159308
    53  H    0.175186
    54  O   -0.533805
    55  C   -0.383368
    56  H    0.176328
    57  H    0.170923
    58  C    0.603362
    59  N   -0.749628
    60  H    0.338783
    61  H    0.342762
    62  O   -0.509237
    63  N   -0.618046
    64  H    0.371313
    65  C   -0.016822
    66  H    0.151277
    67  C    0.624068
    68  C   -0.402291
    69  H    0.157653
    70  H    0.158827
    71  O   -0.515388
    72  C    0.042013
    73  C   -0.181896
    74  H    0.122619
    75  C   -0.185665
    76  H    0.122520
    77  C   -0.281545
    78  H    0.117215
    79  C   -0.199069
    80  H    0.123092
    81  O   -0.680099
    82  C    0.417367
    83  N   -0.574828
    84  H    0.336137
    85  C   -0.072076
    86  H    0.181809
    87  C    0.622124
    88  C   -0.448108
    89  H    0.154826
    90  H    0.180708
    91  H    0.167271
    92  O   -0.545632
    93  N   -0.607416
    94  H    0.357968
    95  C   -0.041499
    96  H    0.206934
    97  C    0.582868
    98  C   -0.276630
    99  H    0.166068
   100  H    0.154670
   101  O   -0.454791
   102  C   -0.302547
   103  H    0.179712
   104  H    0.188743
   105  C   -0.146544
   106  H    0.165026
   107  H    0.174354
   108  N   -0.622677
   109  H    0.383818
   110  N   -0.767855
   111  H    0.375271
   112  H    0.379241
   113  N   -0.772521
   114  H    0.365447
   115  H    0.402067
   116  C    0.805984
   117  O   -0.562382
   118  H    0.426787
 Sum of Mulliken charges =   1.00000

 Dipole moment (field-independent basis, Debye):
    X=             -7.6685    Y=             17.9386    Z=            -16.3075  Tot=             25.4270
 Quadrupole moment (field-independent basis, Debye-Ang):
   XX=           -148.2699   YY=           -211.2525   ZZ=           -165.6776
   XY=             58.4181   XZ=            181.9056   YZ=             38.0378

 Normal termination of Gaussian 16 at Sat Jul  2 15:35:26 2022.
