 Gaussian 16, Revision C.01,
 Gaussian 16:  ES64L-G16RevC.01  3-Jul-2019

 -------------------------------------------------------------------
 # B3LYP/6-31G* guess=read geom=check nosymm integral(ultrafinegrid)
 -------------------------------------------------------------------

 ------------------------------------------------------
 Candidate Structure: Conf:669 Charge calc in gas phase
 ------------------------------------------------------
 Structure from the checkpoint file:  "conf-669.chk"
 Charge =  1 Multiplicity = 1

                          Input orientation:
 ---------------------------------------------------------------------
 Center     Atomic      Atomic             Coordinates (Angstroms)
 Number     Number       Type             X           Y           Z
 ---------------------------------------------------------------------
      1          7           0       -7.336427   -6.016549   -6.463664
      2          1           0       -8.152636   -6.531515   -6.122967
      3          1           0       -7.001585   -6.427051   -7.353401
      4          1           0       -7.593256   -5.001923   -6.544630
      5          6           0       -6.181518   -6.015219   -5.498756
      6          1           0       -6.238671   -6.914966   -4.880847
      7          6           0       -6.367102   -4.702992   -4.696700
      8          6           0       -4.877548   -6.008285   -6.363154
      9          1           0       -4.755758   -4.995956   -6.765631
     10          8           0       -7.047292   -3.816260   -5.229001
     11          6           0       -3.639095   -6.415788   -5.577022
     12          1           0       -3.436087   -5.737659   -4.741814
     13          1           0       -3.746545   -7.431517   -5.173417
     14          1           0       -2.769474   -6.397121   -6.240395
     15          8           0       -5.105842   -6.838872   -7.505275
     16          1           0       -4.729117   -7.720328   -7.345693
     17          7           0       -5.756623   -4.643620   -3.516357
     18          1           0       -5.097826   -5.373437   -3.242651
     19          6           0       -5.543289   -3.423333   -2.725421
     20          1           0       -5.842319   -2.566729   -3.334881
     21          6           0       -4.013014   -3.423330   -2.480740
     22          6           0       -6.362078   -3.461531   -1.399579
     23          1           0       -6.014365   -4.352102   -0.856001
     24          8           0       -3.405796   -4.504808   -2.473189
     25          6           0       -7.876857   -3.649122   -1.651345
     26          1           0       -8.341704   -3.822911   -0.672402
     27          1           0       -8.034299   -4.573816   -2.221978
     28          6           0       -6.083392   -2.233761   -0.515678
     29          1           0       -6.276706   -1.291577   -1.041255
     30          1           0       -5.052378   -2.205958   -0.154696
     31          1           0       -6.737667   -2.256587    0.362021
     32          6           0       -8.599271   -2.489393   -2.349699
     33          1           0       -9.667309   -2.715326   -2.441421
     34          1           0       -8.216545   -2.314312   -3.360826
     35          1           0       -8.514974   -1.555875   -1.784091
     36          7           0       -3.434197   -2.231747   -2.301291
     37          1           0       -3.975231   -1.369454   -2.225537
     38          6           0       -2.038091   -2.048827   -1.917499
     39          1           0       -1.778787   -2.805617   -1.167786
     40          6           0       -1.985008   -0.640672   -1.278245
     41          6           0       -1.086623   -2.181491   -3.117906
     42          1           0       -0.044915   -2.050327   -2.808536
     43          1           0       -1.318192   -1.428069   -3.877727
     44          1           0       -1.189680   -3.177186   -3.557575
     45          8           0       -2.961349    0.109492   -1.350228
     46          7           0       -0.826961   -0.320429   -0.677033
     47          1           0       -0.032095   -0.953598   -0.659863
     48          6           0       -0.552485    0.978541   -0.072049
     49          1           0       -1.066308    1.746935   -0.658217
     50          6           0        0.976144    1.147634   -0.153295
     51          6           0       -1.078624    1.020616    1.386808
     52          1           0       -0.654136    0.167137    1.928185
     53          1           0       -2.163018    0.885084    1.331779
     54          8           0        1.709766    0.157870   -0.151714
     55          6           0       -0.781347    2.313877    2.166153
     56          1           0       -1.241621    2.220902    3.156825
     57          1           0        0.292397    2.452769    2.320830
     58          6           0       -1.410774    3.540284    1.501907
     59          7           0       -0.526943    4.530171    1.147457
     60          1           0        0.422675    4.555425    1.522796
     61          1           0       -0.936971    5.400576    0.830513
     62          8           0       -2.606583    3.598085    1.254301
     63          7           0        1.418156    2.425756   -0.224124
     64          1           0        0.740452    3.178921   -0.138347
     65          6           0        2.823956    2.792621   -0.117401
     66          1           0        3.398237    1.876341   -0.271633
     67          6           0        3.113131    3.368786    1.280726
     68          6           0        3.189156    3.837493   -1.208886
     69          1           0        2.491825    4.679513   -1.116166
     70          1           0        2.997512    3.366492   -2.180554
     71          8           0        2.325036    4.148476    1.837011
     72          6           0        4.612762    4.337645   -1.110292
     73          6           0        4.902556    5.570108   -0.512891
     74          1           0        4.085978    6.199116   -0.163561
     75          6           0        5.691567    3.554147   -1.549450
     76          1           0        5.499580    2.596169   -2.030267
     77          6           0        6.215096    6.008552   -0.342961
     78          1           0        6.419002    6.966906    0.126280
     79          6           0        7.006742    3.974649   -1.386500
     80          1           0        7.837617    3.365706   -1.728926
     81          8           0        8.580030    5.568542   -0.632487
     82          6           0        7.285637    5.208393   -0.775234
     83          7           0        4.284611    3.001458    1.826796
     84          1           0        4.948964    2.429726    1.310836
     85          6           0        4.842281    3.627029    3.016211
     86          1           0        4.660501    4.707088    2.959451
     87          6           0        6.356081    3.350407    2.968954
     88          6           0        4.212820    3.077301    4.309519
     89          1           0        4.631507    3.570284    5.193608
     90          1           0        3.135721    3.260070    4.289994
     91          1           0        4.391037    2.000463    4.393595
     92          8           0        6.823928    2.476244    2.242527
     93          7           0        7.116438    4.113257    3.792509
     94          1           0        6.686628    4.746009    4.457347
     95          6           0        8.527686    3.829452    4.005773
     96          1           0        8.673163    2.744982    3.941360
     97          6           0        8.865713    4.275644    5.421183
     98          6           0        9.463953    4.485349    2.961074
     99          1           0        9.180643    4.092598    1.979127
    100          1           0       10.482250    4.134480    3.170311
    101          8           0        8.127214    4.917207    6.139370
    102          6           0        9.425989    6.018611    2.936737
    103          1           0        9.568660    6.424338    3.949503
    104          1           0        8.446257    6.364047    2.589385
    105          6           0       10.517940    6.588680    2.018125
    106          1           0       10.403652    6.196535    1.005949
    107          1           0       11.506263    6.275252    2.376114
    108          7           0       10.531066    8.045877    1.936935
    109          1           0       10.759714    8.527213    2.797621
    110          7           0        8.934915    8.164224    0.236146
    111          1           0        8.506562    8.834299   -0.400419
    112          1           0        8.660676    6.504424   -0.286269
    113          7           0        9.796907   10.129663    1.281899
    114          1           0        9.330618   10.686086    0.576952
    115          1           0       10.725968   10.479849    1.487419
    116          6           0        9.710273    8.751190    1.091301
    117          8           0       10.104279    3.893488    5.785763
    118          1           0       10.246368    4.225846    6.692761
 ---------------------------------------------------------------------

 SCF Done:  E(RB3LYP) =  -2837.66426562     A.U. after    2 cycles

 Alpha  occ. eigenvalues --  -19.30365 -19.26085 -19.25902 -19.21207 -19.20414
 Alpha  occ. eigenvalues --  -19.18749 -19.17806 -19.17602 -19.17327 -19.17140
 Alpha  occ. eigenvalues --  -19.15000 -14.59238 -14.48976 -14.44584 -14.42559
 Alpha  occ. eigenvalues --  -14.41672 -14.41415 -14.40946 -14.40692 -14.40508
 Alpha  occ. eigenvalues --  -14.39137 -14.35112 -10.43180 -10.40262 -10.39589
 Alpha  occ. eigenvalues --  -10.38274 -10.38226 -10.35888 -10.34703 -10.34634
 Alpha  occ. eigenvalues --  -10.34180 -10.34102 -10.33565 -10.32739 -10.31376
 Alpha  occ. eigenvalues --  -10.30903 -10.29394 -10.29283 -10.28702 -10.28612
 Alpha  occ. eigenvalues --  -10.28527 -10.27273 -10.26497 -10.26336 -10.25745
 Alpha  occ. eigenvalues --  -10.25223 -10.24512 -10.24498 -10.24152 -10.23838
 Alpha  occ. eigenvalues --  -10.23761 -10.23244 -10.23193 -10.22267 -10.22170
 Alpha  occ. eigenvalues --  -10.22132 -10.21339 -10.21096  -1.19018  -1.17413
 Alpha  occ. eigenvalues --   -1.16933  -1.13256  -1.12787  -1.10738  -1.09597
 Alpha  occ. eigenvalues --   -1.09277  -1.08448  -1.07914  -1.06817  -1.06294
 Alpha  occ. eigenvalues --   -1.05531  -1.03651  -1.01168  -0.99131  -0.98257
 Alpha  occ. eigenvalues --   -0.98163  -0.97527  -0.94470  -0.93776  -0.93010
 Alpha  occ. eigenvalues --   -0.90225  -0.89924  -0.88342  -0.86269  -0.85442
 Alpha  occ. eigenvalues --   -0.85324  -0.84295  -0.83167  -0.81878  -0.81481
 Alpha  occ. eigenvalues --   -0.79299  -0.79183  -0.78051  -0.77474  -0.77218
 Alpha  occ. eigenvalues --   -0.75806  -0.73912  -0.73819  -0.72847  -0.72169
 Alpha  occ. eigenvalues --   -0.71902  -0.71509  -0.70895  -0.69786  -0.68966
 Alpha  occ. eigenvalues --   -0.67909  -0.67047  -0.66345  -0.66163  -0.65155
 Alpha  occ. eigenvalues --   -0.64699  -0.64681  -0.64301  -0.64179  -0.63937
 Alpha  occ. eigenvalues --   -0.63057  -0.62691  -0.62311  -0.61593  -0.61415
 Alpha  occ. eigenvalues --   -0.60908  -0.59798  -0.59558  -0.58903  -0.58187
 Alpha  occ. eigenvalues --   -0.57990  -0.57442  -0.57236  -0.57069  -0.56305
 Alpha  occ. eigenvalues --   -0.56282  -0.55561  -0.55046  -0.54785  -0.54416
 Alpha  occ. eigenvalues --   -0.53771  -0.53588  -0.53419  -0.52868  -0.52570
 Alpha  occ. eigenvalues --   -0.52369  -0.52171  -0.51840  -0.51738  -0.51421
 Alpha  occ. eigenvalues --   -0.51335  -0.50782  -0.50728  -0.50635  -0.50322
 Alpha  occ. eigenvalues --   -0.50022  -0.49804  -0.49705  -0.49245  -0.48914
 Alpha  occ. eigenvalues --   -0.48683  -0.48589  -0.48106  -0.47724  -0.47645
 Alpha  occ. eigenvalues --   -0.47530  -0.47438  -0.47085  -0.46938  -0.46438
 Alpha  occ. eigenvalues --   -0.46147  -0.45973  -0.45821  -0.45594  -0.45384
 Alpha  occ. eigenvalues --   -0.45347  -0.44878  -0.44660  -0.44478  -0.44364
 Alpha  occ. eigenvalues --   -0.43907  -0.43728  -0.43641  -0.43162  -0.42927
 Alpha  occ. eigenvalues --   -0.42683  -0.42608  -0.42346  -0.42124  -0.41878
 Alpha  occ. eigenvalues --   -0.41233  -0.40876  -0.40805  -0.40593  -0.40555
 Alpha  occ. eigenvalues --   -0.40275  -0.40083  -0.40037  -0.39691  -0.39679
 Alpha  occ. eigenvalues --   -0.39365  -0.38795  -0.38367  -0.38293  -0.37924
 Alpha  occ. eigenvalues --   -0.36581  -0.35191  -0.35166  -0.34590  -0.33951
 Alpha  occ. eigenvalues --   -0.33090  -0.32748  -0.32665  -0.32246  -0.31632
 Alpha  occ. eigenvalues --   -0.31245  -0.31185  -0.30997  -0.30835  -0.30276
 Alpha  occ. eigenvalues --   -0.30041  -0.28627  -0.28508  -0.28076  -0.23980
 Alpha virt. eigenvalues --   -0.12182  -0.10029  -0.07219  -0.05277  -0.05220
 Alpha virt. eigenvalues --   -0.04716  -0.04463  -0.04002  -0.03238  -0.03045
 Alpha virt. eigenvalues --   -0.02568  -0.02250  -0.01864  -0.01539  -0.01151

 Mulliken charges:
               1
     1  N   -0.746430
     2  H    0.414443
     3  H    0.426556
     4  H    0.427034
     5  C   -0.141609
     6  H    0.202043
     7  C    0.644969
     8  C    0.130713
     9  H    0.194082
    10  O   -0.530505
    11  C   -0.520449
    12  H    0.214927
    13  H    0.162599
    14  H    0.204659
    15  O   -0.631678
    16  H    0.424793
    17  N   -0.586547
    18  H    0.366015
    19  C   -0.090458
    20  H    0.192912
    21  C    0.631747
    22  C   -0.073533
    23  H    0.141376
    24  O   -0.561776
    25  C   -0.256538
    26  H    0.155110
    27  H    0.115525
    28  C   -0.478675
    29  H    0.165535
    30  H    0.167372
    31  H    0.169097
    32  C   -0.469937
    33  H    0.154813
    34  H    0.162935
    35  H    0.163493
    36  N   -0.608345
    37  H    0.372908
    38  C   -0.048617
    39  H    0.185748
    40  C    0.624256
    41  C   -0.450690
    42  H    0.169892
    43  H    0.165337
    44  H    0.172381
    45  O   -0.537516
    46  N   -0.623751
    47  H    0.357196
    48  C   -0.058316
    49  H    0.193752
    50  C    0.610248
    51  C   -0.258970
    52  H    0.148691
    53  H    0.190560
    54  O   -0.542699
    55  C   -0.380320
    56  H    0.179151
    57  H    0.164763
    58  C    0.565746
    59  N   -0.796322
    60  H    0.396388
    61  H    0.336551
    62  O   -0.499099
    63  N   -0.614950
    64  H    0.360957
    65  C   -0.072692
    66  H    0.185450
    67  C    0.651849
    68  C   -0.357000
    69  H    0.149589
    70  H    0.161474
    71  O   -0.575582
    72  C    0.151958
    73  C   -0.192121
    74  H    0.124813
    75  C   -0.201378
    76  H    0.122066
    77  C   -0.209929
    78  H    0.135176
    79  C   -0.155070
    80  H    0.137335
    81  O   -0.708899
    82  C    0.356621
    83  N   -0.594918
    84  H    0.370018
    85  C   -0.035079
    86  H    0.178131
    87  C    0.620742
    88  C   -0.451664
    89  H    0.153472
    90  H    0.184596
    91  H    0.165165
    92  O   -0.528854
    93  N   -0.617306
    94  H    0.354170
    95  C   -0.038647
    96  H    0.201244
    97  C    0.583224
    98  C   -0.281324
    99  H    0.199777
   100  H    0.156695
   101  O   -0.472076
   102  C   -0.276227
   103  H    0.128503
   104  H    0.167261
   105  C   -0.146861
   106  H    0.198715
   107  H    0.149461
   108  N   -0.597494
   109  H    0.326324
   110  N   -0.719672
   111  H    0.289337
   112  H    0.478191
   113  N   -0.762524
   114  H    0.333190
   115  H    0.335135
   116  C    0.665155
   117  O   -0.560503
   118  H    0.421444
 Sum of Mulliken charges =   1.00000

 Dipole moment (field-independent basis, Debye):
    X=            -11.1437    Y=            -14.0115    Z=            -16.1651  Tot=             24.1208
 Quadrupole moment (field-independent basis, Debye-Ang):
   XX=            -48.9798   YY=            -63.6679   ZZ=           -183.1535
   XY=            287.7109   XZ=            197.5659   YZ=            173.6546

 Normal termination of Gaussian 16 at Sat Jul  2 15:35:23 2022.
