 Gaussian 16, Revision C.01,
 Gaussian 16:  ES64L-G16RevC.01  3-Jul-2019

 -------------------------------------------------------------------
 # B3LYP/6-31G* guess=read geom=check nosymm integral(ultrafinegrid)
 -------------------------------------------------------------------

 ------------------------------------------------------
 Candidate Structure: Conf:727 Charge calc in gas phase
 ------------------------------------------------------
 Structure from the checkpoint file:  "conf-727.chk"
 Charge =  1 Multiplicity = 1

                          Input orientation:
 ---------------------------------------------------------------------
 Center     Atomic      Atomic             Coordinates (Angstroms)
 Number     Number       Type             X           Y           Z
 ---------------------------------------------------------------------
      1          7           0       -4.761992   -2.801267   -0.399340
      2          1           0       -5.541382   -2.907154    0.254126
      3          1           0       -5.107060   -2.913343   -1.387433
      4          1           0       -4.347629   -1.852676   -0.344750
      5          6           0       -3.619131   -3.753138   -0.117932
      6          1           0       -3.424166   -3.688802    0.958418
      7          6           0       -2.433682   -3.071820   -0.846314
      8          6           0       -3.986322   -5.177747   -0.514545
      9          1           0       -3.183816   -5.869129   -0.236605
     10          1           0       -4.884774   -5.505662    0.019341
     11          1           0       -4.169460   -5.260521   -1.590239
     12          8           0       -2.487006   -1.834615   -0.962903
     13          7           0       -1.462004   -3.852220   -1.314183
     14          1           0       -1.445563   -4.830867   -1.039388
     15          6           0       -0.234576   -3.339029   -1.967138
     16          1           0        0.074915   -2.447274   -1.412228
     17          6           0       -0.584163   -2.950310   -3.428672
     18          6           0        0.870965   -4.412392   -1.895200
     19          1           0        0.624329   -5.209823   -2.605103
     20          1           0        1.789797   -3.950531   -2.272199
     21          8           0       -0.350739   -3.683406   -4.378344
     22          6           0        1.053351   -4.939777   -0.500884
     23          6           0        1.801348   -4.371137    0.509272
     24          1           0        2.467640   -3.519754    0.473236
     25          6           0        0.349452   -6.039566    0.106511
     26          6           0        0.718373   -6.051530    1.489646
     27          6           0       -0.558607   -7.011673   -0.364794
     28          1           0       -0.803956   -7.077830   -1.424844
     29          7           0        1.613709   -5.032199    1.691484
     30          1           0        2.058177   -4.692621    2.570570
     31          6           0       -0.721858   -7.919388    1.894326
     32          1           0       -1.144663   -8.658623    2.568990
     33          6           0        0.187368   -6.988055    2.384737
     34          1           0        0.479162   -6.984051    3.431126
     35          6           0       -1.088937   -7.936759    0.532068
     36          1           0       -1.770688   -8.703882    0.173565
     37          7           0       -1.193217   -1.728229   -3.529246
     38          1           0       -1.495328   -1.306026   -2.654485
     39          6           0       -1.808255   -1.234447   -4.753971
     40          1           0       -1.418692   -1.850609   -5.570647
     41          6           0       -1.444139    0.243795   -5.058327
     42          6           0       -3.347122   -1.352894   -4.693832
     43          1           0       -3.700413   -0.792790   -3.817196
     44          1           0       -3.765065   -0.867419   -5.578717
     45          8           0       -2.029862    0.846715   -5.954059
     46          6           0       -3.824701   -2.821676   -4.596254
     47          1           0       -3.698204   -3.322534   -5.560183
     48          1           0       -3.239187   -3.362064   -3.848659
     49          6           0       -5.268789   -2.891030   -4.179250
     50          8           0       -5.680484   -2.981801   -3.022440
     51          8           0       -6.117197   -2.806447   -5.204160
     52          7           0       -0.497026    0.768632   -4.253799
     53          1           0       -0.010680    0.176990   -3.586060
     54          6           0       -0.028279    2.146262   -4.259506
     55          1           0        0.328863    2.409885   -5.264885
     56          6           0        1.158315    2.142277   -3.268473
     57          6           0       -1.170043    3.144016   -3.876469
     58          1           0       -2.000172    2.842264   -4.524436
     59          8           0        1.405840    1.139678   -2.591678
     60          6           0       -1.605936    3.003734   -2.411175
     61          1           0       -0.827497    3.354032   -1.723206
     62          1           0       -2.505441    3.602323   -2.227112
     63          1           0       -1.841235    1.962900   -2.160835
     64          6           0       -0.838895    4.603270   -4.223690
     65          1           0       -0.115693    5.041507   -3.527288
     66          1           0       -0.451243    4.702062   -5.245516
     67          1           0       -1.746430    5.213566   -4.160870
     68          7           0        1.880524    3.275428   -3.144895
     69          1           0        1.766416    4.051983   -3.783786
     70          6           0        2.927368    3.413241   -2.139905
     71          1           0        3.734265    2.696144   -2.351277
     72          6           0        2.339058    3.161450   -0.724542
     73          6           0        3.468496    4.862038   -2.211199
     74          1           0        2.693793    5.509634   -1.790310
     75          8           0        1.434292    3.879955   -0.300153
     76          6           0        4.769997    5.032596   -1.434202
     77          1           0        4.644613    4.751332   -0.383386
     78          1           0        5.564895    4.403250   -1.857578
     79          1           0        5.096179    6.075633   -1.479090
     80          8           0        3.599639    5.293602   -3.567952
     81          1           0        4.356711    4.827554   -3.960735
     82          7           0        2.910776    2.155835   -0.032536
     83          1           0        3.634887    1.583725   -0.454755
     84          6           0        2.449636    1.651386    1.258223
     85          1           0        2.500641    2.467204    1.992905
     86          6           0        3.492518    0.573061    1.653248
     87          6           0        0.960798    1.167799    1.193588
     88          1           0        0.476012    1.936022    0.585416
     89          8           0        4.487551    0.378570    0.943257
     90          6           0        0.796044   -0.185017    0.483988
     91          1           0        1.151792   -1.009797    1.111257
     92          1           0        1.323119   -0.189473   -0.475354
     93          1           0       -0.266582   -0.367138    0.279812
     94          6           0        0.243102    1.182201    2.556227
     95          1           0        0.475935    0.309487    3.176162
     96          1           0       -0.840797    1.161034    2.391325
     97          1           0        0.465668    2.095161    3.122373
     98          7           0        3.262822   -0.116244    2.795273
     99          1           0        2.314267   -0.125251    3.172532
    100          6           0        3.872858   -1.429124    3.015062
    101          1           0        4.317018   -1.758064    2.069846
    102          6           0        2.736309   -2.446548    3.384882
    103          6           0        4.970203   -1.423787    4.084574
    104          1           0        5.256097   -2.469592    4.246286
    105          1           0        4.555875   -1.047212    5.030642
    106          8           0        3.130202   -3.644160    3.452088
    107          6           0        6.190208   -0.586853    3.684150
    108          1           0        6.574585   -0.937789    2.717983
    109          1           0        5.889396    0.457480    3.535533
    110          6           0        7.306156   -0.659796    4.741311
    111          1           0        6.927205   -0.288278    5.704345
    112          1           0        7.600506   -1.708903    4.888804
    113          6           0        8.513714    0.157017    4.312872
    114          1           0        8.289449    1.221819    4.214205
    115          1           0        8.953722   -0.202642    3.379646
    116          7           0        9.631875    0.061430    5.364009
    117          1           0       10.465935    0.601753    5.104494
    118          1           0        9.302816    0.405818    6.274070
    119          1           0        9.917873   -0.916133    5.497617
    120          8           0        1.587207   -1.976756    3.536880
    121          1           0       -7.027470   -2.818071   -4.848946
 ---------------------------------------------------------------------

 SCF Done:  E(RB3LYP) =  -2843.61906072     A.U. after    1 cycles

 Alpha  occ. eigenvalues --  -19.29783 -19.25285 -19.23587 -19.21030 -19.18444
 Alpha  occ. eigenvalues --  -19.17582 -19.16300 -19.16087 -19.15565 -19.10729
 Alpha  occ. eigenvalues --  -19.10493 -14.63650 -14.55570 -14.46832 -14.42488
 Alpha  occ. eigenvalues --  -14.41565 -14.40363 -14.39798 -14.39278 -14.38690
 Alpha  occ. eigenvalues --  -10.42931 -10.40547 -10.40194 -10.37581 -10.35570
 Alpha  occ. eigenvalues --  -10.34458 -10.33761 -10.33040 -10.32996 -10.32050
 Alpha  occ. eigenvalues --  -10.30911 -10.29972 -10.29803 -10.29750 -10.28807
 Alpha  occ. eigenvalues --  -10.28649 -10.28564 -10.28478 -10.27548 -10.27231
 Alpha  occ. eigenvalues --  -10.27146 -10.25323 -10.25066 -10.25037 -10.24961
 Alpha  occ. eigenvalues --  -10.24052 -10.23930 -10.23775 -10.23405 -10.22847
 Alpha  occ. eigenvalues --  -10.22803 -10.22760 -10.22738 -10.22529 -10.22025
 Alpha  occ. eigenvalues --  -10.22017 -10.21341 -10.20858 -10.20156  -1.21173
 Alpha  occ. eigenvalues --   -1.17470  -1.15742  -1.11889  -1.10409  -1.09884
 Alpha  occ. eigenvalues --   -1.09831  -1.08365  -1.08060  -1.07893  -1.07035
 Alpha  occ. eigenvalues --   -1.03962  -1.03143  -1.00501  -0.99613  -0.97825
 Alpha  occ. eigenvalues --   -0.96835  -0.96375  -0.96062  -0.94740  -0.93274
 Alpha  occ. eigenvalues --   -0.89848  -0.88156  -0.87771  -0.85716  -0.85365
 Alpha  occ. eigenvalues --   -0.85113  -0.83830  -0.82660  -0.82072  -0.80280
 Alpha  occ. eigenvalues --   -0.79275  -0.78062  -0.77717  -0.77193  -0.76417
 Alpha  occ. eigenvalues --   -0.76105  -0.75723  -0.75608  -0.74069  -0.72674
 Alpha  occ. eigenvalues --   -0.72624  -0.71624  -0.71518  -0.70943  -0.70277
 Alpha  occ. eigenvalues --   -0.69724  -0.68363  -0.67697  -0.67519  -0.66647
 Alpha  occ. eigenvalues --   -0.65967  -0.65212  -0.65079  -0.64829  -0.64146
 Alpha  occ. eigenvalues --   -0.63593  -0.62702  -0.62644  -0.61536  -0.61420
 Alpha  occ. eigenvalues --   -0.60832  -0.60390  -0.59769  -0.59415  -0.59396
 Alpha  occ. eigenvalues --   -0.58855  -0.58192  -0.57904  -0.57534  -0.56982
 Alpha  occ. eigenvalues --   -0.56793  -0.55696  -0.55403  -0.55036  -0.54389
 Alpha  occ. eigenvalues --   -0.54078  -0.53838  -0.53749  -0.53301  -0.52667
 Alpha  occ. eigenvalues --   -0.52415  -0.51912  -0.51477  -0.51335  -0.51073
 Alpha  occ. eigenvalues --   -0.51054  -0.50959  -0.50605  -0.50453  -0.49856
 Alpha  occ. eigenvalues --   -0.49621  -0.49438  -0.49285  -0.49089  -0.48671
 Alpha  occ. eigenvalues --   -0.48479  -0.48071  -0.47949  -0.47542  -0.47340
 Alpha  occ. eigenvalues --   -0.47109  -0.46901  -0.46814  -0.46194  -0.46144
 Alpha  occ. eigenvalues --   -0.45959  -0.45727  -0.45531  -0.45299  -0.44948
 Alpha  occ. eigenvalues --   -0.44761  -0.44390  -0.44373  -0.43901  -0.43698
 Alpha  occ. eigenvalues --   -0.43594  -0.43473  -0.43114  -0.42741  -0.42634
 Alpha  occ. eigenvalues --   -0.42573  -0.42272  -0.42167  -0.42066  -0.41865
 Alpha  occ. eigenvalues --   -0.41645  -0.41437  -0.41349  -0.41031  -0.40929
 Alpha  occ. eigenvalues --   -0.40604  -0.39586  -0.39445  -0.38897  -0.38428
 Alpha  occ. eigenvalues --   -0.38248  -0.38191  -0.37928  -0.37830  -0.37760
 Alpha  occ. eigenvalues --   -0.37445  -0.37222  -0.37052  -0.36903  -0.36601
 Alpha  occ. eigenvalues --   -0.36416  -0.33982  -0.33447  -0.31877  -0.31796
 Alpha  occ. eigenvalues --   -0.31580  -0.31490  -0.30838  -0.30028  -0.29910
 Alpha  occ. eigenvalues --   -0.29275  -0.29128  -0.28589  -0.26437  -0.26074
 Alpha  occ. eigenvalues --   -0.25166  -0.24702  -0.23937
 Alpha virt. eigenvalues --   -0.14205  -0.10063  -0.09822  -0.07524  -0.07394
 Alpha virt. eigenvalues --   -0.06123  -0.05273  -0.04975  -0.04730  -0.03823
 Alpha virt. eigenvalues --   -0.02973  -0.02084  -0.01953  -0.01769  -0.01509

 Mulliken charges:
               1
     1  N   -0.768196
     2  H    0.400186
     3  H    0.447835
     4  H    0.417985
     5  C   -0.123956
     6  H    0.238833
     7  C    0.668075
     8  C   -0.493434
     9  H    0.221651
    10  H    0.179627
    11  H    0.188386
    12  O   -0.564152
    13  N   -0.614228
    14  H    0.376949
    15  C   -0.072330
    16  H    0.212608
    17  C    0.623721
    18  C   -0.400821
    19  H    0.182852
    20  H    0.177253
    21  O   -0.507651
    22  C    0.037807
    23  C    0.010875
    24  H    0.159499
    25  C    0.050379
    26  C    0.319760
    27  C   -0.266475
    28  H    0.124316
    29  N   -0.686231
    30  H    0.397306
    31  C   -0.160691
    32  H    0.127601
    33  C   -0.159632
    34  H    0.146042
    35  C   -0.148187
    36  H    0.121592
    37  N   -0.649021
    38  H    0.373008
    39  C   -0.062425
    40  H    0.210201
    41  C    0.622687
    42  C   -0.285955
    43  H    0.145004
    44  H    0.209983
    45  O   -0.535550
    46  C   -0.341218
    47  H    0.202767
    48  H    0.170878
    49  C    0.589004
    50  O   -0.523907
    51  O   -0.517332
    52  N   -0.641230
    53  H    0.369025
    54  C   -0.033009
    55  H    0.169946
    56  C    0.628164
    57  C   -0.079484
    58  H    0.174521
    59  O   -0.548675
    60  C   -0.478415
    61  H    0.189462
    62  H    0.144849
    63  H    0.131611
    64  C   -0.475807
    65  H    0.156225
    66  H    0.147578
    67  H    0.158739
    68  N   -0.621877
    69  H    0.356781
    70  C   -0.030200
    71  H    0.137600
    72  C    0.647429
    73  C    0.099648
    74  H    0.183706
    75  O   -0.550436
    76  C   -0.474600
    77  H    0.166795
    78  H    0.135866
    79  H    0.173202
    80  O   -0.625446
    81  H    0.392601
    82  N   -0.616483
    83  H    0.354343
    84  C   -0.034114
    85  H    0.165037
    86  C    0.576783
    87  C   -0.091399
    88  H    0.178872
    89  O   -0.561859
    90  C   -0.501708
    91  H    0.169554
    92  H    0.170162
    93  H    0.132754
    94  C   -0.491890
    95  H    0.194256
    96  H    0.137586
    97  H    0.139750
    98  N   -0.610513
    99  H    0.369993
   100  C   -0.069171
   101  H    0.160391
   102  C    0.594903
   103  C   -0.261785
   104  H    0.167215
   105  H    0.135549
   106  O   -0.625385
   107  C   -0.265997
   108  H    0.163712
   109  H    0.163807
   110  C   -0.291469
   111  H    0.162895
   112  H    0.165187
   113  C   -0.206091
   114  H    0.227145
   115  H    0.228540
   116  N   -0.731699
   117  H    0.426781
   118  H    0.425174
   119  H    0.425831
   120  O   -0.581719
   121  H    0.427215
 Sum of Mulliken charges =   1.00000

 Dipole moment (field-independent basis, Debye):
    X=             19.7622    Y=             -2.9959    Z=             13.9055  Tot=             24.3492
 Quadrupole moment (field-independent basis, Debye-Ang):
   XX=            120.5445   YY=           -339.7810   ZZ=           -253.7773
   XY=             86.9019   XZ=            201.8655   YZ=             18.9480

 Normal termination of Gaussian 16 at Thu Jun 30 12:41:49 2022.
