 Gaussian 16, Revision C.01,
 Gaussian 16:  ES64L-G16RevC.01  3-Jul-2019

 -------------------------------------------------------------------
 # B3LYP/6-31G* guess=read geom=check nosymm integral(ultrafinegrid)
 -------------------------------------------------------------------

 -----------------------------------------------------
 Candidate Structure: Conf:60 Charge calc in gas phase
 -----------------------------------------------------
 Structure from the checkpoint file:  "conf-60.chk"
 Charge =  1 Multiplicity = 1

                          Input orientation:
 ---------------------------------------------------------------------
 Center     Atomic      Atomic             Coordinates (Angstroms)
 Number     Number       Type             X           Y           Z
 ---------------------------------------------------------------------
      1          7           0       -3.394566    1.407617  -10.561377
      2          1           0       -4.337922    1.638113  -10.884195
      3          1           0       -2.795926    1.258739  -11.378198
      4          1           0       -3.021878    2.209673   -9.946378
      5          6           0       -3.358805    0.258605   -9.571363
      6          1           0       -4.359091   -0.178351   -9.527699
      7          6           0       -3.020272    0.992074   -8.237771
      8          6           0       -2.315193   -0.782522   -9.974903
      9          1           0       -2.273840   -1.577954   -9.225588
     10          1           0       -2.566881   -1.245960  -10.934407
     11          1           0       -1.316775   -0.335878  -10.037585
     12          8           0       -2.711325    2.190628   -8.320813
     13          7           0       -3.081353    0.266784   -7.130363
     14          1           0       -3.180802   -0.749105   -7.153945
     15          6           0       -2.725920    0.747069   -5.796767
     16          1           0       -2.052364    1.600593   -5.907856
     17          6           0       -2.024148   -0.449578   -5.120920
     18          6           0       -3.983483    1.157743   -4.971931
     19          1           0       -4.571701    0.250609   -4.786596
     20          1           0       -3.624564    1.499614   -3.992260
     21          8           0       -2.202145   -1.590300   -5.570128
     22          6           0       -4.849119    2.202287   -5.607631
     23          6           0       -6.111466    2.000427   -6.111224
     24          1           0       -6.706437    1.096578   -6.132264
     25          6           0       -4.557498    3.607058   -5.782539
     26          6           0       -5.692472    4.193759   -6.403456
     27          6           0       -3.461679    4.427999   -5.462069
     28          1           0       -2.579874    4.017155   -4.976715
     29          7           0       -6.615642    3.183552   -6.614973
     30          1           0       -7.577296    3.329867   -6.883081
     31          6           0       -4.663172    6.342375   -6.372930
     32          1           0       -4.685577    7.407304   -6.585061
     33          6           0       -5.761227    5.557821   -6.704877
     34          1           0       -6.642243    5.991458   -7.170594
     35          6           0       -3.524388    5.783169   -5.757623
     36          1           0       -2.686844    6.427129   -5.506072
     37          7           0       -1.290379   -0.158967   -4.041085
     38          1           0       -1.209765    0.790976   -3.677742
     39          6           0       -0.712972   -1.153269   -3.144545
     40          1           0       -1.472560   -1.915004   -2.938005
     41          6           0       -0.421568   -0.388051   -1.834636
     42          6           0        0.560695   -1.842215   -3.723325
     43          1           0        0.912653   -1.245007   -4.568699
     44          1           0        1.360916   -1.816437   -2.978648
     45          8           0       -0.540629    0.845476   -1.794606
     46          6           0        0.323114   -3.284967   -4.177386
     47          1           0       -0.535116   -3.338542   -4.858371
     48          1           0        1.185362   -3.667944   -4.736778
     49          6           0        0.069406   -4.231540   -3.025613
     50          8           0       -0.036955   -3.915644   -1.851820
     51          8           0       -0.038743   -5.506570   -3.433125
     52          7           0       -0.045510   -1.143336   -0.791851
     53          1           0        0.060123   -2.146173   -0.941131
     54          6           0        0.273124   -0.575479    0.528385
     55          1           0       -0.351738    0.319534    0.632394
     56          6           0        1.759359   -0.124900    0.521998
     57          6           0       -0.054350   -1.567063    1.662747
     58          1           0        0.683451   -2.378617    1.613021
     59          8           0        2.629554   -0.662247    1.209446
     60          6           0        0.088908   -0.882138    3.031123
     61          1           0       -0.613160   -0.043499    3.126606
     62          1           0       -0.137194   -1.593803    3.832352
     63          1           0        1.103116   -0.510677    3.189711
     64          6           0       -1.464784   -2.159867    1.510839
     65          1           0       -2.227197   -1.370302    1.506532
     66          1           0       -1.581757   -2.746439    0.594013
     67          1           0       -1.680828   -2.823116    2.355161
     68          7           0        2.022988    0.889513   -0.338615
     69          1           0        1.261245    1.253075   -0.906070
     70          6           0        3.392179    1.256157   -0.691386
     71          1           0        4.012622    0.371219   -0.498885
     72          6           0        3.892887    2.399148    0.217436
     73          6           0        3.483662    1.622556   -2.187314
     74          1           0        2.878599    2.516933   -2.363571
     75          8           0        4.007037    3.556138   -0.193954
     76          6           0        4.917189    1.881169   -2.645575
     77          1           0        5.355025    2.739275   -2.130237
     78          1           0        5.549196    1.000992   -2.456676
     79          1           0        4.923332    2.078999   -3.722126
     80          8           0        2.869313    0.592719   -2.979589
     81          1           0        3.484010   -0.159314   -2.982149
     82          7           0        4.189363    2.022268    1.482943
     83          1           0        4.056762    1.048103    1.740241
     84          6           0        4.678173    2.981916    2.483187
     85          1           0        4.266701    3.954020    2.189153
     86          6           0        6.225632    3.049942    2.368566
     87          6           0        4.206242    2.634164    3.907134
     88          1           0        4.715387    1.708239    4.205836
     89          8           0        6.976405    2.560508    3.208996
     90          6           0        4.622786    3.737874    4.893028
     91          1           0        4.161468    4.697680    4.624866
     92          1           0        5.707297    3.862956    4.915230
     93          1           0        4.290331    3.483948    5.905679
     94          6           0        2.686516    2.417587    3.962865
     95          1           0        2.148370    3.322337    3.651627
     96          1           0        2.377725    2.183999    4.987855
     97          1           0        2.356687    1.595404    3.320457
     98          7           0        6.667268    3.671573    1.244195
     99          1           0        5.999521    3.991326    0.545349
    100          6           0        8.080581    3.787319    0.928305
    101          1           0        8.618171    4.179117    1.796465
    102          6           0        8.256659    4.710349   -0.261446
    103          6           0        8.710085    2.411194    0.529495
    104          1           0        8.104349    2.004984   -0.291317
    105          1           0        8.556320    1.758054    1.392268
    106          8           0        9.447661    5.313686   -0.249961
    107          6           0       10.213363    2.443627    0.142354
    108          1           0       10.644331    3.415831    0.396392
    109          1           0       10.747393    1.709596    0.757539
    110          6           0       10.540792    2.093080   -1.327075
    111          1           0       11.635326    2.048927   -1.433493
    112          1           0       10.186969    1.071629   -1.526209
    113          6           0        9.981913    2.964241   -2.464582
    114          1           0        8.893512    3.049369   -2.392332
    115          1           0       10.201386    2.446130   -3.410863
    116          7           0       10.518671    4.349618   -2.489683
    117          1           0       10.246225    4.798721   -3.363171
    118          1           0        9.831970    5.254507   -1.190040
    119          1           0       11.538889    4.328328   -2.482758
    120          8           0        7.456906    4.764095   -1.181473
    121          1           0       -0.202398   -6.051312   -2.638935
 ---------------------------------------------------------------------

 SCF Done:  E(RB3LYP) =  -2843.66074251     A.U. after    1 cycles

 Alpha  occ. eigenvalues --  -19.28205 -19.27387 -19.23306 -19.22378 -19.21049
 Alpha  occ. eigenvalues --  -19.20572 -19.19365 -19.17897 -19.16360 -19.16357
 Alpha  occ. eigenvalues --  -19.14130 -14.60411 -14.49878 -14.45969 -14.45676
 Alpha  occ. eigenvalues --  -14.43720 -14.41535 -14.40443 -14.39023 -14.38141
 Alpha  occ. eigenvalues --  -10.44097 -10.41878 -10.41177 -10.39301 -10.37360
 Alpha  occ. eigenvalues --  -10.34748 -10.34723 -10.34588 -10.34100 -10.33434
 Alpha  occ. eigenvalues --  -10.32580 -10.31243 -10.30287 -10.29751 -10.29739
 Alpha  occ. eigenvalues --  -10.29522 -10.29481 -10.28614 -10.28405 -10.27937
 Alpha  occ. eigenvalues --  -10.26734 -10.26417 -10.26190 -10.26153 -10.26115
 Alpha  occ. eigenvalues --  -10.26061 -10.25897 -10.25538 -10.25119 -10.25102
 Alpha  occ. eigenvalues --  -10.23124 -10.23027 -10.22710 -10.22550 -10.22106
 Alpha  occ. eigenvalues --  -10.22075 -10.21780 -10.20821 -10.19849  -1.19914
 Alpha  occ. eigenvalues --   -1.19442  -1.14456  -1.13943  -1.12264  -1.11539
 Alpha  occ. eigenvalues --   -1.10336  -1.09628  -1.08287  -1.07890  -1.06602
 Alpha  occ. eigenvalues --   -1.05871  -1.05763  -1.03086  -1.02367  -1.00460
 Alpha  occ. eigenvalues --   -0.97980  -0.96614  -0.94692  -0.94482  -0.94072
 Alpha  occ. eigenvalues --   -0.91247  -0.90144  -0.88798  -0.86419  -0.85715
 Alpha  occ. eigenvalues --   -0.84196  -0.83248  -0.82768  -0.82434  -0.81789
 Alpha  occ. eigenvalues --   -0.80835  -0.79762  -0.79047  -0.77997  -0.76607
 Alpha  occ. eigenvalues --   -0.75751  -0.74796  -0.74555  -0.73859  -0.73520
 Alpha  occ. eigenvalues --   -0.73240  -0.72264  -0.71349  -0.71157  -0.69693
 Alpha  occ. eigenvalues --   -0.68875  -0.67559  -0.67436  -0.67226  -0.66921
 Alpha  occ. eigenvalues --   -0.66799  -0.66315  -0.64373  -0.64182  -0.64056
 Alpha  occ. eigenvalues --   -0.63944  -0.63362  -0.62344  -0.61524  -0.61423
 Alpha  occ. eigenvalues --   -0.61069  -0.60610  -0.59920  -0.59677  -0.59187
 Alpha  occ. eigenvalues --   -0.58658  -0.58316  -0.57520  -0.57114  -0.56830
 Alpha  occ. eigenvalues --   -0.56573  -0.56151  -0.56076  -0.55526  -0.55439
 Alpha  occ. eigenvalues --   -0.55017  -0.54980  -0.54729  -0.54461  -0.53883
 Alpha  occ. eigenvalues --   -0.53526  -0.53400  -0.52712  -0.52571  -0.52364
 Alpha  occ. eigenvalues --   -0.52098  -0.51393  -0.50860  -0.50646  -0.50393
 Alpha  occ. eigenvalues --   -0.50294  -0.50179  -0.49914  -0.49663  -0.49509
 Alpha  occ. eigenvalues --   -0.49400  -0.49167  -0.49080  -0.48644  -0.48467
 Alpha  occ. eigenvalues --   -0.48364  -0.48098  -0.47854  -0.47684  -0.47229
 Alpha  occ. eigenvalues --   -0.46638  -0.46551  -0.46303  -0.45706  -0.45614
 Alpha  occ. eigenvalues --   -0.45428  -0.45155  -0.45036  -0.44627  -0.44252
 Alpha  occ. eigenvalues --   -0.44041  -0.43676  -0.43402  -0.43174  -0.42914
 Alpha  occ. eigenvalues --   -0.42678  -0.42618  -0.42305  -0.42119  -0.42103
 Alpha  occ. eigenvalues --   -0.41881  -0.41590  -0.41112  -0.40892  -0.40780
 Alpha  occ. eigenvalues --   -0.40689  -0.40622  -0.39872  -0.39695  -0.39423
 Alpha  occ. eigenvalues --   -0.39030  -0.38972  -0.38562  -0.38442  -0.37566
 Alpha  occ. eigenvalues --   -0.37334  -0.37001  -0.36936  -0.36734  -0.36478
 Alpha  occ. eigenvalues --   -0.36355  -0.36023  -0.35663  -0.34810  -0.34765
 Alpha  occ. eigenvalues --   -0.34465  -0.33605  -0.32857  -0.32750  -0.31246
 Alpha  occ. eigenvalues --   -0.31056  -0.30631  -0.29843  -0.29742  -0.28994
 Alpha  occ. eigenvalues --   -0.28194  -0.27602  -0.26888
 Alpha virt. eigenvalues --   -0.12621  -0.11768  -0.08798  -0.08031  -0.07826
 Alpha virt. eigenvalues --   -0.06857  -0.06431  -0.05161  -0.04706  -0.04155
 Alpha virt. eigenvalues --   -0.02917  -0.02493  -0.02397  -0.01751  -0.01362

 Mulliken charges:
               1
     1  N   -0.758969
     2  H    0.416913
     3  H    0.413273
     4  H    0.440698
     5  C   -0.105132
     6  H    0.222410
     7  C    0.658668
     8  C   -0.484683
     9  H    0.219135
    10  H    0.195952
    11  H    0.197009
    12  O   -0.528416
    13  N   -0.590777
    14  H    0.366842
    15  C   -0.083136
    16  H    0.202180
    17  C    0.637975
    18  C   -0.366193
    19  H    0.161773
    20  H    0.182029
    21  O   -0.558164
    22  C    0.077321
    23  C   -0.023078
    24  H    0.152155
    25  C    0.100059
    26  C    0.298112
    27  C   -0.204404
    28  H    0.122058
    29  N   -0.688760
    30  H    0.336682
    31  C   -0.150139
    32  H    0.142155
    33  C   -0.165960
    34  H    0.134319
    35  C   -0.139014
    36  H    0.139910
    37  N   -0.624901
    38  H    0.370918
    39  C   -0.027535
    40  H    0.189378
    41  C    0.610482
    42  C   -0.274763
    43  H    0.172490
    44  H    0.173410
    45  O   -0.566388
    46  C   -0.378658
    47  H    0.218674
    48  H    0.189193
    49  C    0.595123
    50  O   -0.482364
    51  O   -0.549260
    52  N   -0.633989
    53  H    0.398692
    54  C   -0.053640
    55  H    0.182399
    56  C    0.627652
    57  C   -0.095443
    58  H    0.154325
    59  O   -0.543743
    60  C   -0.469723
    61  H    0.141117
    62  H    0.154000
    63  H    0.187212
    64  C   -0.452606
    65  H    0.143810
    66  H    0.142530
    67  H    0.157758
    68  N   -0.610312
    69  H    0.377392
    70  C   -0.074994
    71  H    0.161612
    72  C    0.641634
    73  C    0.116726
    74  H    0.166091
    75  O   -0.543959
    76  C   -0.492354
    77  H    0.214375
    78  H    0.127089
    79  H    0.156539
    80  O   -0.635960
    81  H    0.385254
    82  N   -0.620211
    83  H    0.363445
    84  C   -0.045931
    85  H    0.175022
    86  C    0.627700
    87  C   -0.090218
    88  H    0.149812
    89  O   -0.535597
    90  C   -0.460949
    91  H    0.136039
    92  H    0.181316
    93  H    0.145361
    94  C   -0.459939
    95  H    0.141997
    96  H    0.149291
    97  H    0.146560
    98  N   -0.645498
    99  H    0.377929
   100  C    0.006405
   101  H    0.180612
   102  C    0.573610
   103  C   -0.291934
   104  H    0.133522
   105  H    0.185848
   106  O   -0.602789
   107  C   -0.277690
   108  H    0.172699
   109  H    0.144243
   110  C   -0.274597
   111  H    0.132803
   112  H    0.140897
   113  C   -0.151358
   114  H    0.178193
   115  H    0.132205
   116  N   -0.764732
   117  H    0.329270
   118  H    0.449565
   119  H    0.321286
   120  O   -0.494855
   121  H    0.424579
 Sum of Mulliken charges =   1.00000

 Dipole moment (field-independent basis, Debye):
    X=            -13.3460    Y=             -1.9270    Z=            -45.5204  Tot=             47.4757
 Quadrupole moment (field-independent basis, Debye-Ang):
   XX=           -202.7858   YY=           -330.6472   ZZ=             79.8547
   XY=            -22.8429   XZ=            110.5092   YZ=            -38.4706

 Normal termination of Gaussian 16 at Thu Jun 30 12:42:50 2022.
