 Gaussian 16, Revision C.01,
 Gaussian 16:  ES64L-G16RevC.01  3-Jul-2019

 -------------------------------------------------------------------
 # B3LYP/6-31G* guess=read geom=check nosymm integral(ultrafinegrid)
 -------------------------------------------------------------------

 ------------------------------------------------------
 Candidate Structure: Conf:962 Charge calc in gas phase
 ------------------------------------------------------
 Structure from the checkpoint file:  "conf-962.chk"
 Charge =  1 Multiplicity = 1

                          Input orientation:
 ---------------------------------------------------------------------
 Center     Atomic      Atomic             Coordinates (Angstroms)
 Number     Number       Type             X           Y           Z
 ---------------------------------------------------------------------
      1          7           0       -5.799091   -6.339669   -5.670190
      2          1           0       -6.370693   -6.511109   -4.816178
      3          1           0       -5.851358   -7.154012   -6.287961
      4          1           0       -6.178285   -5.486071   -6.137446
      5          6           0       -4.381883   -5.949188   -5.305373
      6          1           0       -4.106166   -6.520667   -4.416846
      7          6           0       -4.536540   -4.435527   -5.009045
      8          6           0       -3.437341   -6.218973   -6.474402
      9          1           0       -2.423152   -5.915025   -6.199641
     10          1           0       -3.407275   -7.284502   -6.727639
     11          1           0       -3.734936   -5.642392   -7.356159
     12          8           0       -5.346577   -3.811929   -5.702790
     13          7           0       -3.807422   -3.954124   -4.003586
     14          1           0       -3.070316   -4.496338   -3.549458
     15          6           0       -3.886875   -2.595264   -3.478420
     16          1           0       -4.124204   -1.911531   -4.298155
     17          6           0       -2.488282   -2.321194   -2.880802
     18          6           0       -4.971104   -2.479122   -2.359061
     19          1           0       -4.637683   -3.084547   -1.507038
     20          1           0       -4.979046   -1.438403   -2.015574
     21          8           0       -1.767800   -3.276406   -2.574732
     22          6           0       -6.346989   -2.893614   -2.794854
     23          6           0       -7.316403   -2.073346   -3.317676
     24          1           0       -7.311875   -0.999322   -3.446498
     25          6           0       -6.883024   -4.232206   -2.852510
     26          6           0       -8.174795   -4.145001   -3.453814
     27          6           0       -6.407095   -5.498924   -2.467709
     28          1           0       -5.450404   -5.598594   -1.961378
     29          7           0       -8.408050   -2.816121   -3.715893
     30          1           0       -9.259861   -2.434065   -4.099217
     31          6           0       -8.454325   -6.515449   -3.342737
     32          1           0       -9.051663   -7.407646   -3.507040
     33          6           0       -8.964031   -5.272405   -3.707253
     34          1           0       -9.945268   -5.183582   -4.165176
     35          6           0       -7.187578   -6.629405   -2.720210
     36          1           0       -6.844299   -7.605807   -2.387323
     37          7           0       -2.179788   -1.032025   -2.688248
     38          1           0       -2.798596   -0.278663   -2.978641
     39          6           0       -0.956379   -0.561196   -2.038898
     40          1           0       -0.699726   -1.247109   -1.230548
     41          6           0       -1.314872    0.830016   -1.481947
     42          6           0        0.205625   -0.517895   -3.066037
     43          1           0        0.436946   -1.557685   -3.322773
     44          1           0       -0.179752   -0.040187   -3.974636
     45          8           0       -2.140595    1.535519   -2.066448
     46          6           0        1.488095    0.227788   -2.668496
     47          1           0        2.199085    0.185527   -3.498725
     48          1           0        1.281768    1.292354   -2.496205
     49          6           0        2.194182   -0.232461   -1.408514
     50          8           0        1.621610   -0.667961   -0.412430
     51          8           0        3.502080   -0.046435   -1.490068
     52          7           0       -0.677377    1.164817   -0.339377
     53          1           0        0.091032    0.551317   -0.065437
     54          6           0       -0.704581    2.514657    0.221612
     55          1           0       -1.033672    3.181092   -0.586866
     56          6           0        0.765423    2.898362    0.513416
     57          6           0       -1.714883    2.665362    1.391616
     58          1           0       -1.614165    3.696797    1.761264
     59          8           0        1.669323    2.472730   -0.216222
     60          6           0       -3.160858    2.522443    0.891245
     61          1           0       -3.352733    1.507347    0.528343
     62          1           0       -3.861705    2.726704    1.708249
     63          1           0       -3.376464    3.213254    0.070191
     64          6           0       -1.446501    1.693243    2.549510
     65          1           0       -1.551151    0.655532    2.213308
     66          1           0       -0.443485    1.808474    2.972473
     67          1           0       -2.166725    1.855874    3.358347
     68          7           0        1.026456    3.724132    1.548814
     69          1           0        0.320139    3.996380    2.222089
     70          6           0        2.383810    4.165763    1.870092
     71          1           0        2.923902    4.291547    0.926374
     72          6           0        3.108256    3.095682    2.729885
     73          6           0        2.300390    5.498819    2.643356
     74          1           0        3.317222    5.742779    2.980484
     75          8           0        3.316688    3.271518    3.933978
     76          6           0        1.759117    6.648057    1.803620
     77          1           0        2.410281    6.845011    0.945045
     78          1           0        0.752756    6.430114    1.431593
     79          1           0        1.705989    7.552116    2.416637
     80          8           0        1.439637    5.324181    3.766168
     81          1           0        1.918204    4.693607    4.340186
     82          7           0        3.472381    1.976597    2.058290
     83          1           0        3.197166    1.898356    1.080997
     84          6           0        4.140527    0.842409    2.696824
     85          1           0        4.509385    1.211227    3.658558
     86          6           0        5.312936    0.436268    1.796524
     87          6           0        3.195027   -0.365713    2.941267
     88          1           0        2.746741   -0.622376    1.972631
     89          8           0        5.136698    0.052061    0.629996
     90          6           0        3.975642   -1.586921    3.453606
     91          1           0        4.501505   -1.362181    4.390668
     92          1           0        4.711407   -1.942060    2.724640
     93          1           0        3.287368   -2.414941    3.654173
     94          6           0        2.077842    0.007350    3.923798
     95          1           0        2.482322    0.239565    4.916235
     96          1           0        1.374888   -0.826192    4.032270
     97          1           0        1.512709    0.879781    3.584305
     98          7           0        6.538071    0.513489    2.342317
     99          1           0        6.665800    0.779439    3.313435
    100          6           0        7.751421    0.088852    1.655612
    101          1           0        7.552310   -0.850655    1.131252
    102          6           0        8.820296   -0.096875    2.723593
    103          6           0        8.261980    1.139759    0.617525
    104          1           0        7.370027    1.535102    0.123441
    105          1           0        8.827655    0.601890   -0.150153
    106          8           0        9.943887   -0.609808    2.243773
    107          6           0        9.133986    2.289869    1.193084
    108          1           0        8.836028    3.226501    0.709847
    109          1           0        8.898437    2.432854    2.255707
    110          6           0       10.667253    2.094373    0.991676
    111          1           0       10.869877    1.079671    0.635024
    112          1           0       11.005969    2.769053    0.195378
    113          6           0       11.574668    2.352066    2.205853
    114          1           0       11.390846    3.356905    2.614204
    115          1           0       12.612893    2.337879    1.857726
    116          7           0       11.460810    1.312748    3.264867
    117          1           0       12.318646    1.276773    3.811893
    118          1           0       10.713344    1.539720    3.920824
    119          1           0       10.711244   -0.142050    2.739144
    120          8           0        8.676994    0.335640    3.859291
    121          1           0        3.948438   -0.164795   -0.607769
 ---------------------------------------------------------------------

 SCF Done:  E(RB3LYP) =  -2843.69600789     A.U. after    2 cycles

 Alpha  occ. eigenvalues --  -19.24747 -19.22704 -19.21972 -19.20735 -19.19053
 Alpha  occ. eigenvalues --  -19.18826 -19.18808 -19.18628 -19.18605 -19.18535
 Alpha  occ. eigenvalues --  -19.17835 -14.58377 -14.48197 -14.47919 -14.44518
 Alpha  occ. eigenvalues --  -14.43125 -14.42213 -14.42129 -14.41629 -14.39240
 Alpha  occ. eigenvalues --  -10.42037 -10.39575 -10.37925 -10.37064 -10.36810
 Alpha  occ. eigenvalues --  -10.35895 -10.35484 -10.35218 -10.34760 -10.33932
 Alpha  occ. eigenvalues --  -10.32488 -10.32355 -10.31684 -10.30328 -10.29875
 Alpha  occ. eigenvalues --  -10.29630 -10.29596 -10.29538 -10.29289 -10.29186
 Alpha  occ. eigenvalues --  -10.29186 -10.29133 -10.29040 -10.28913 -10.28726
 Alpha  occ. eigenvalues --  -10.28079 -10.26915 -10.26073 -10.26022 -10.25200
 Alpha  occ. eigenvalues --  -10.24263 -10.24123 -10.23634 -10.23374 -10.23213
 Alpha  occ. eigenvalues --  -10.23004 -10.22558 -10.22298 -10.22056  -1.17368
 Alpha  occ. eigenvalues --   -1.14463  -1.14375  -1.12851  -1.12247  -1.10952
 Alpha  occ. eigenvalues --   -1.10253  -1.10030  -1.09346  -1.07942  -1.06355
 Alpha  occ. eigenvalues --   -1.05776  -1.05612  -1.04759  -1.00962  -0.99211
 Alpha  occ. eigenvalues --   -0.98907  -0.98624  -0.97854  -0.94768  -0.94524
 Alpha  occ. eigenvalues --   -0.92138  -0.90270  -0.87671  -0.86629  -0.86001
 Alpha  occ. eigenvalues --   -0.85372  -0.84743  -0.84040  -0.82795  -0.82360
 Alpha  occ. eigenvalues --   -0.80751  -0.80373  -0.79788  -0.78279  -0.77155
 Alpha  occ. eigenvalues --   -0.76159  -0.75294  -0.74271  -0.73839  -0.73039
 Alpha  occ. eigenvalues --   -0.72681  -0.72465  -0.71991  -0.70928  -0.70138
 Alpha  occ. eigenvalues --   -0.69482  -0.68273  -0.67610  -0.66862  -0.66625
 Alpha  occ. eigenvalues --   -0.66333  -0.65698  -0.65040  -0.64726  -0.64458
 Alpha  occ. eigenvalues --   -0.64076  -0.63828  -0.63524  -0.62931  -0.62437
 Alpha  occ. eigenvalues --   -0.61810  -0.61668  -0.60855  -0.59626  -0.59189
 Alpha  occ. eigenvalues --   -0.58201  -0.57869  -0.57294  -0.56785  -0.56696
 Alpha  occ. eigenvalues --   -0.56467  -0.55765  -0.55535  -0.55085  -0.54921
 Alpha  occ. eigenvalues --   -0.54765  -0.54176  -0.53985  -0.53851  -0.53745
 Alpha  occ. eigenvalues --   -0.53416  -0.53249  -0.53219  -0.52649  -0.52409
 Alpha  occ. eigenvalues --   -0.52115  -0.52057  -0.51898  -0.51569  -0.51280
 Alpha  occ. eigenvalues --   -0.51105  -0.51074  -0.50522  -0.50463  -0.50193
 Alpha  occ. eigenvalues --   -0.49940  -0.49749  -0.49298  -0.49071  -0.48865
 Alpha  occ. eigenvalues --   -0.48565  -0.48312  -0.47818  -0.47628  -0.47471
 Alpha  occ. eigenvalues --   -0.47230  -0.47017  -0.46788  -0.46123  -0.46043
 Alpha  occ. eigenvalues --   -0.45951  -0.45259  -0.45164  -0.45121  -0.44861
 Alpha  occ. eigenvalues --   -0.44334  -0.44241  -0.44156  -0.43889  -0.43661
 Alpha  occ. eigenvalues --   -0.43542  -0.43465  -0.43215  -0.42964  -0.42783
 Alpha  occ. eigenvalues --   -0.42630  -0.42399  -0.42265  -0.41732  -0.41606
 Alpha  occ. eigenvalues --   -0.41419  -0.40768  -0.40567  -0.39678  -0.39615
 Alpha  occ. eigenvalues --   -0.39419  -0.39373  -0.38527  -0.38435  -0.38376
 Alpha  occ. eigenvalues --   -0.38176  -0.38029  -0.37834  -0.37640  -0.37431
 Alpha  occ. eigenvalues --   -0.36148  -0.35688  -0.35101  -0.34377  -0.34130
 Alpha  occ. eigenvalues --   -0.33416  -0.33021  -0.32738  -0.32650  -0.32459
 Alpha  occ. eigenvalues --   -0.32290  -0.32282  -0.31975  -0.31674  -0.31240
 Alpha  occ. eigenvalues --   -0.30426  -0.30263  -0.30013
 Alpha virt. eigenvalues --   -0.11886  -0.11322  -0.09036  -0.07983  -0.06938
 Alpha virt. eigenvalues --   -0.05763  -0.04946  -0.04622  -0.04447  -0.03857
 Alpha virt. eigenvalues --   -0.03798  -0.02727  -0.02701  -0.02396  -0.00900

 Mulliken charges:
               1
     1  N   -0.755180
     2  H    0.419224
     3  H    0.402074
     4  H    0.420467
     5  C   -0.108335
     6  H    0.204060
     7  C    0.666242
     8  C   -0.473391
     9  H    0.213621
    10  H    0.183967
    11  H    0.199143
    12  O   -0.538086
    13  N   -0.607021
    14  H    0.366088
    15  C   -0.061062
    16  H    0.189155
    17  C    0.636281
    18  C   -0.362856
    19  H    0.173088
    20  H    0.176103
    21  O   -0.545934
    22  C    0.086584
    23  C    0.026570
    24  H    0.177220
    25  C    0.074734
    26  C    0.325426
    27  C   -0.239186
    28  H    0.145441
    29  N   -0.682831
    30  H    0.347606
    31  C   -0.172582
    32  H    0.155225
    33  C   -0.163474
    34  H    0.155274
    35  C   -0.218465
    36  H    0.151025
    37  N   -0.620427
    38  H    0.355539
    39  C   -0.050572
    40  H    0.202776
    41  C    0.597157
    42  C   -0.264929
    43  H    0.173183
    44  H    0.152182
    45  O   -0.553108
    46  C   -0.384521
    47  H    0.179804
    48  H    0.210207
    49  C    0.630480
    50  O   -0.519758
    51  O   -0.583436
    52  N   -0.615752
    53  H    0.388179
    54  C   -0.042074
    55  H    0.199227
    56  C    0.606770
    57  C   -0.099210
    58  H    0.133934
    59  O   -0.548905
    60  C   -0.442982
    61  H    0.147669
    62  H    0.148565
    63  H    0.159845
    64  C   -0.469390
    65  H    0.155469
    66  H    0.156807
    67  H    0.159867
    68  N   -0.612359
    69  H    0.360363
    70  C   -0.074362
    71  H    0.182291
    72  C    0.627355
    73  C    0.112922
    74  H    0.146336
    75  O   -0.546015
    76  C   -0.449484
    77  H    0.148362
    78  H    0.147817
    79  H    0.173620
    80  O   -0.650223
    81  H    0.420944
    82  N   -0.629469
    83  H    0.377712
    84  C   -0.047691
    85  H    0.174220
    86  C    0.650734
    87  C   -0.089719
    88  H    0.166587
    89  O   -0.581070
    90  C   -0.466493
    91  H    0.146497
    92  H    0.158657
    93  H    0.155199
    94  C   -0.461010
    95  H    0.155646
    96  H    0.147086
    97  H    0.154535
    98  N   -0.606978
    99  H    0.362353
   100  C   -0.037188
   101  H    0.191220
   102  C    0.597241
   103  C   -0.268968
   104  H    0.172092
   105  H    0.162714
   106  O   -0.594650
   107  C   -0.296933
   108  H    0.149926
   109  H    0.145882
   110  C   -0.269718
   111  H    0.164679
   112  H    0.146055
   113  C   -0.147841
   114  H    0.145616
   115  H    0.155772
   116  N   -0.782620
   117  H    0.330370
   118  H    0.347937
   119  H    0.450148
   120  O   -0.502010
   121  H    0.457103
 Sum of Mulliken charges =   1.00000

 Dipole moment (field-independent basis, Debye):
    X=            -14.9576    Y=            -17.7054    Z=            -17.8866  Tot=             29.2770
 Quadrupole moment (field-independent basis, Debye-Ang):
   XX=            -70.0660   YY=           -190.7545   ZZ=           -236.9142
   XY=            159.5618   XZ=            144.2978   YZ=            126.4817

 Normal termination of Gaussian 16 at Thu Jun 30 12:42:07 2022.
