 Gaussian 16, Revision C.01,
 Gaussian 16:  ES64L-G16RevC.01  3-Jul-2019

 -------------------------------------------------------------------
 # B3LYP/6-31G* guess=read geom=check nosymm integral(ultrafinegrid)
 -------------------------------------------------------------------

 ------------------------------------------------------
 Candidate Structure: Conf:102 Charge calc in gas phase
 ------------------------------------------------------
 Structure from the checkpoint file:  "conf-102.chk"
 Charge =  1 Multiplicity = 1

                          Input orientation:
 ---------------------------------------------------------------------
 Center     Atomic      Atomic             Coordinates (Angstroms)
 Number     Number       Type             X           Y           Z
 ---------------------------------------------------------------------
      1          7           0       -6.876353   -5.051662   -7.186168
      2          1           0       -7.741817   -5.446607   -6.808921
      3          1           0       -6.600226   -5.596846   -8.007660
      4          1           0       -7.031060   -4.021138   -7.447590
      5          6           0       -5.767960   -4.922640   -6.156579
      6          1           0       -6.125309   -5.370359   -5.226038
      7          6           0       -5.637965   -3.376218   -6.001942
      8          6           0       -4.485949   -5.601476   -6.637452
      9          1           0       -3.694272   -5.469715   -5.894796
     10          1           0       -4.634348   -6.677788   -6.772401
     11          1           0       -4.134116   -5.162160   -7.577416
     12          8           0       -6.318923   -2.673570   -6.771462
     13          7           0       -4.810358   -2.947382   -5.066453
     14          1           0       -4.200765   -3.576680   -4.531677
     15          6           0       -4.457371   -1.545902   -4.817618
     16          1           0       -4.231330   -1.065961   -5.775951
     17          6           0       -3.162292   -1.652664   -3.971835
     18          6           0       -5.610171   -0.754614   -4.126929
     19          1           0       -6.547154   -1.112297   -4.570040
     20          1           0       -5.640284   -1.015976   -3.062966
     21          8           0       -2.732340   -2.773620   -3.665941
     22          6           0       -5.503740    0.730189   -4.314843
     23          6           0       -5.194150    1.672213   -3.359333
     24          1           0       -4.932256    1.544367   -2.319188
     25          6           0       -5.734338    1.452946   -5.545963
     26          6           0       -5.538156    2.831205   -5.259567
     27          6           0       -6.094691    1.073733   -6.852151
     28          1           0       -6.268892    0.029037   -7.097764
     29          7           0       -5.218672    2.927971   -3.918743
     30          1           0       -4.963517    3.775306   -3.434696
     31          6           0       -6.025357    3.419228   -7.516689
     32          1           0       -6.142442    4.165335   -8.297232
     33          6           0       -5.678201    3.824830   -6.233485
     34          1           0       -5.524401    4.874167   -5.997360
     35          6           0       -6.234353    2.058787   -7.822050
     36          1           0       -6.513146    1.780439   -8.834556
     37          7           0       -2.565820   -0.500350   -3.628267
     38          1           0       -3.045539    0.387223   -3.772152
     39          6           0       -1.394103   -0.453615   -2.755953
     40          1           0       -1.329654   -1.419465   -2.246430
     41          6           0       -1.621774    0.682438   -1.739126
     42          6           0       -0.087042   -0.194443   -3.540940
     43          1           0       -0.147633    0.786205   -4.024318
     44          1           0        0.737409   -0.142281   -2.819355
     45          8           0       -2.359143    1.631230   -2.013471
     46          6           0        0.205734   -1.278617   -4.588777
     47          1           0        0.224755   -2.275754   -4.142104
     48          1           0       -0.589266   -1.276303   -5.345936
     49          6           0        1.518989   -1.092548   -5.322097
     50          8           0        2.309014   -1.973391   -5.572178
     51          8           0        1.709502    0.194918   -5.706916
     52          7           0       -0.941457    0.551615   -0.582244
     53          1           0       -0.266289   -0.198550   -0.461917
     54          6           0       -0.811896    1.605315    0.422658
     55          1           0       -1.145882    2.542630   -0.034731
     56          6           0        0.687142    1.645265    0.768042
     57          6           0       -1.671536    1.309927    1.688269
     58          1           0       -1.310867    0.351916    2.088300
     59          8           0        1.342109    0.599853    0.777244
     60          6           0       -1.487548    2.382301    2.774057
     61          1           0       -1.769642    3.375711    2.397718
     62          1           0       -2.142074    2.162197    3.624404
     63          1           0       -0.460622    2.429523    3.146825
     64          6           0       -3.153629    1.157382    1.318321
     65          1           0       -3.553453    2.089401    0.900567
     66          1           0       -3.311146    0.362382    0.582948
     67          1           0       -3.739192    0.910350    2.210714
     68          7           0        1.206896    2.850417    1.069962
     69          1           0        0.677745    3.698563    0.914212
     70          6           0        2.582659    3.027008    1.504859
     71          1           0        3.264459    2.756992    0.687189
     72          6           0        2.860202    2.161038    2.758214
     73          6           0        2.783100    4.511790    1.879776
     74          1           0        2.252437    4.676993    2.828674
     75          8           0        2.076413    2.157435    3.702549
     76          6           0        4.255198    4.886028    2.028671
     77          1           0        4.750455    4.280693    2.794340
     78          1           0        4.781321    4.749285    1.077739
     79          1           0        4.351188    5.937531    2.323618
     80          8           0        2.156519    5.272782    0.837903
     81          1           0        2.181903    6.206485    1.098857
     82          7           0        4.035598    1.490754    2.741862
     83          1           0        4.664668    1.562805    1.950848
     84          6           0        4.563873    0.747950    3.879975
     85          1           0        3.997335    1.065757    4.761228
     86          6           0        6.042857    1.154506    3.987185
     87          6           0        4.414371   -0.791759    3.699039
     88          1           0        4.985186   -1.054355    2.796788
     89          8           0        6.724940    1.300255    2.971167
     90          6           0        5.008693   -1.563591    4.887768
     91          1           0        4.505912   -1.295283    5.826398
     92          1           0        6.080597   -1.383710    5.016296
     93          1           0        4.870828   -2.640224    4.741653
     94          6           0        2.945485   -1.181085    3.480868
     95          1           0        2.336966   -0.917211    4.354287
     96          1           0        2.867641   -2.264530    3.331689
     97          1           0        2.515002   -0.685847    2.606893
     98          7           0        6.529731    1.336323    5.237220
     99          1           0        5.965578    1.145040    6.058311
    100          6           0        7.937846    1.592729    5.496427
    101          1           0        8.530352    1.003356    4.783906
    102          6           0        8.213708    1.102805    6.923485
    103          6           0        8.291646    3.090211    5.295020
    104          1           0        7.680978    3.687949    5.983705
    105          1           0        7.965209    3.331808    4.277380
    106          8           0        9.507492    0.931706    7.263562
    107          6           0        9.778325    3.437136    5.451926
    108          1           0       10.080057    3.354117    6.504782
    109          1           0       10.399687    2.732559    4.881014
    110          6           0       10.115299    4.852106    4.963339
    111          1           0        9.803983    4.958050    3.913245
    112          1           0        9.536982    5.593114    5.532010
    113          6           0       11.605701    5.191993    5.084568
    114          1           0       11.913487    5.092610    6.133488
    115          1           0       11.751263    6.252667    4.814084
    116          7           0       12.421710    4.259799    4.295089
    117          1           0       13.409816    4.419146    4.483281
    118          1           0       10.091415    1.150538    6.517203
    119          1           0       12.291611    4.449142    3.301519
    120          8           0        7.333220    0.886260    7.722823
    121          1           0        2.564477    0.215133   -6.177759
 ---------------------------------------------------------------------

 SCF Done:  E(RB3LYP) =  -2843.64935455     A.U. after    1 cycles

 Alpha  occ. eigenvalues --  -19.27455 -19.25568 -19.24777 -19.22055 -19.21588
 Alpha  occ. eigenvalues --  -19.19733 -19.19251 -19.18919 -19.17981 -19.16672
 Alpha  occ. eigenvalues --  -19.16297 -14.60319 -14.49403 -14.45227 -14.44581
 Alpha  occ. eigenvalues --  -14.43187 -14.42209 -14.41265 -14.40978 -14.35361
 Alpha  occ. eigenvalues --  -10.43920 -10.41649 -10.39044 -10.38107 -10.37225
 Alpha  occ. eigenvalues --  -10.36468 -10.34916 -10.34393 -10.34156 -10.33828
 Alpha  occ. eigenvalues --  -10.33787 -10.31651 -10.30749 -10.29627 -10.29417
 Alpha  occ. eigenvalues --  -10.29390 -10.28865 -10.28864 -10.28325 -10.27859
 Alpha  occ. eigenvalues --  -10.27178 -10.26906 -10.25609 -10.25304 -10.25080
 Alpha  occ. eigenvalues --  -10.25048 -10.24889 -10.24863 -10.24542 -10.24267
 Alpha  occ. eigenvalues --  -10.24045 -10.23869 -10.23792 -10.23104 -10.22985
 Alpha  occ. eigenvalues --  -10.22723 -10.22141 -10.21677 -10.20478  -1.19714
 Alpha  occ. eigenvalues --   -1.16344  -1.15384  -1.14315  -1.13775  -1.11170
 Alpha  occ. eigenvalues --   -1.10063  -1.08885  -1.08786  -1.07892  -1.07315
 Alpha  occ. eigenvalues --   -1.07225  -1.06177  -1.04595  -1.01761  -0.99698
 Alpha  occ. eigenvalues --   -0.98538  -0.97836  -0.97336  -0.93741  -0.92040
 Alpha  occ. eigenvalues --   -0.90317  -0.89430  -0.87746  -0.86328  -0.85587
 Alpha  occ. eigenvalues --   -0.84710  -0.84574  -0.83496  -0.81874  -0.81108
 Alpha  occ. eigenvalues --   -0.80146  -0.79807  -0.78970  -0.78278  -0.76495
 Alpha  occ. eigenvalues --   -0.76227  -0.74750  -0.74502  -0.73469  -0.73124
 Alpha  occ. eigenvalues --   -0.73019  -0.72240  -0.71976  -0.70199  -0.68586
 Alpha  occ. eigenvalues --   -0.68059  -0.67879  -0.67169  -0.67124  -0.66672
 Alpha  occ. eigenvalues --   -0.66229  -0.65917  -0.65769  -0.65042  -0.63901
 Alpha  occ. eigenvalues --   -0.63764  -0.63307  -0.63218  -0.63202  -0.62788
 Alpha  occ. eigenvalues --   -0.61867  -0.61377  -0.60295  -0.60187  -0.59591
 Alpha  occ. eigenvalues --   -0.58908  -0.58242  -0.57554  -0.57001  -0.56170
 Alpha  occ. eigenvalues --   -0.55784  -0.54912  -0.54831  -0.54658  -0.54479
 Alpha  occ. eigenvalues --   -0.54327  -0.54306  -0.53977  -0.53490  -0.53403
 Alpha  occ. eigenvalues --   -0.53244  -0.52896  -0.52649  -0.52366  -0.52150
 Alpha  occ. eigenvalues --   -0.52005  -0.51553  -0.51415  -0.51204  -0.51019
 Alpha  occ. eigenvalues --   -0.50820  -0.50221  -0.49791  -0.49462  -0.49308
 Alpha  occ. eigenvalues --   -0.49265  -0.49088  -0.48867  -0.48597  -0.48351
 Alpha  occ. eigenvalues --   -0.48216  -0.47699  -0.47319  -0.47037  -0.46893
 Alpha  occ. eigenvalues --   -0.46809  -0.46690  -0.46247  -0.45996  -0.45509
 Alpha  occ. eigenvalues --   -0.45383  -0.45294  -0.44664  -0.44624  -0.44205
 Alpha  occ. eigenvalues --   -0.44174  -0.43953  -0.43737  -0.43591  -0.43581
 Alpha  occ. eigenvalues --   -0.43477  -0.43096  -0.42958  -0.42596  -0.42403
 Alpha  occ. eigenvalues --   -0.42242  -0.42037  -0.41680  -0.41673  -0.41322
 Alpha  occ. eigenvalues --   -0.40252  -0.40206  -0.39893  -0.39672  -0.39358
 Alpha  occ. eigenvalues --   -0.39321  -0.39078  -0.38791  -0.38620  -0.38089
 Alpha  occ. eigenvalues --   -0.37905  -0.37733  -0.37678  -0.37504  -0.37064
 Alpha  occ. eigenvalues --   -0.36459  -0.36284  -0.35292  -0.33995  -0.33967
 Alpha  occ. eigenvalues --   -0.33699  -0.33204  -0.32804  -0.32553  -0.32222
 Alpha  occ. eigenvalues --   -0.31498  -0.31133  -0.30632  -0.29886  -0.29286
 Alpha  occ. eigenvalues --   -0.28628  -0.27562  -0.27074
 Alpha virt. eigenvalues --   -0.12620  -0.11556  -0.07844  -0.07318  -0.06628
 Alpha virt. eigenvalues --   -0.05736  -0.04748  -0.04665  -0.04503  -0.03846
 Alpha virt. eigenvalues --   -0.03750  -0.03409  -0.01983  -0.01685  -0.01139

 Mulliken charges:
               1
     1  N   -0.759404
     2  H    0.417655
     3  H    0.414809
     4  H    0.437956
     5  C   -0.105760
     6  H    0.226501
     7  C    0.654522
     8  C   -0.485837
     9  H    0.224505
    10  H    0.196490
    11  H    0.196506
    12  O   -0.541834
    13  N   -0.615264
    14  H    0.378929
    15  C   -0.055986
    16  H    0.209338
    17  C    0.615975
    18  C   -0.358457
    19  H    0.177359
    20  H    0.164771
    21  O   -0.554404
    22  C    0.010000
    23  C    0.016544
    24  H    0.181487
    25  C    0.086819
    26  C    0.311544
    27  C   -0.228456
    28  H    0.136666
    29  N   -0.683103
    30  H    0.342447
    31  C   -0.148908
    32  H    0.138509
    33  C   -0.158409
    34  H    0.137605
    35  C   -0.139807
    36  H    0.127383
    37  N   -0.612926
    38  H    0.380238
    39  C   -0.078107
    40  H    0.187361
    41  C    0.622380
    42  C   -0.271974
    43  H    0.181680
    44  H    0.168777
    45  O   -0.548929
    46  C   -0.343804
    47  H    0.187838
    48  H    0.170395
    49  C    0.569146
    50  O   -0.451545
    51  O   -0.561744
    52  N   -0.602856
    53  H    0.355121
    54  C   -0.061770
    55  H    0.165615
    56  C    0.642273
    57  C   -0.066615
    58  H    0.146111
    59  O   -0.549800
    60  C   -0.485000
    61  H    0.128279
    62  H    0.153985
    63  H    0.202946
    64  C   -0.444269
    65  H    0.146017
    66  H    0.140265
    67  H    0.152436
    68  N   -0.611548
    69  H    0.353911
    70  C   -0.014344
    71  H    0.156598
    72  C    0.639326
    73  C    0.102143
    74  H    0.157899
    75  O   -0.534610
    76  C   -0.474206
    77  H    0.169710
    78  H    0.165437
    79  H    0.150520
    80  O   -0.642640
    81  H    0.405039
    82  N   -0.602248
    83  H    0.347097
    84  C   -0.052316
    85  H    0.172182
    86  C    0.622072
    87  C   -0.068837
    88  H    0.138744
    89  O   -0.552502
    90  C   -0.462906
    91  H    0.147980
    92  H    0.150754
    93  H    0.155329
    94  C   -0.469943
    95  H    0.149590
    96  H    0.137075
    97  H    0.190452
    98  N   -0.615204
    99  H    0.359399
   100  C   -0.077243
   101  H    0.179538
   102  C    0.607549
   103  C   -0.255113
   104  H    0.150750
   105  H    0.173681
   106  O   -0.558724
   107  C   -0.299943
   108  H    0.145893
   109  H    0.158954
   110  C   -0.258205
   111  H    0.132170
   112  H    0.138441
   113  C   -0.142984
   114  H    0.144120
   115  H    0.124020
   116  N   -0.718609
   117  H    0.305000
   118  H    0.427481
   119  H    0.296282
   120  O   -0.449605
   121  H    0.416377
 Sum of Mulliken charges =   1.00000

 Dipole moment (field-independent basis, Debye):
    X=            -17.5410    Y=             -8.9502    Z=            -23.9326  Tot=             30.9929
 Quadrupole moment (field-independent basis, Debye-Ang):
   XX=           -108.6452   YY=           -184.3870   ZZ=           -192.1337
   XY=            174.1955   XZ=            177.6868   YZ=            141.3303

 Normal termination of Gaussian 16 at Thu Jun 30 12:41:45 2022.
