 Gaussian 16, Revision C.01,
 Gaussian 16:  ES64L-G16RevC.01  3-Jul-2019

 -------------------------------------------------------------------
 # B3LYP/6-31G* guess=read geom=check nosymm integral(ultrafinegrid)
 -------------------------------------------------------------------

 ------------------------------------------------------
 Candidate Structure: Conf:205 Charge calc in gas phase
 ------------------------------------------------------
 Structure from the checkpoint file:  "conf-205.chk"
 Charge =  1 Multiplicity = 1

                          Input orientation:
 ---------------------------------------------------------------------
 Center     Atomic      Atomic             Coordinates (Angstroms)
 Number     Number       Type             X           Y           Z
 ---------------------------------------------------------------------
      1          7           0       -4.573939   -3.137193   -6.104113
      2          1           0       -4.655554   -3.931166   -6.745594
      3          1           0       -3.822079   -3.289957   -5.377005
      4          1           0       -4.304916   -2.287389   -6.616248
      5          6           0       -5.859656   -2.831487   -5.339595
      6          1           0       -6.564222   -2.417672   -6.065121
      7          6           0       -5.332724   -1.684355   -4.439950
      8          6           0       -6.395321   -4.100216   -4.694647
      9          1           0       -7.280193   -3.862914   -4.095882
     10          1           0       -6.707362   -4.825668   -5.453792
     11          1           0       -5.649485   -4.573657   -4.047513
     12          8           0       -4.849038   -0.716080   -5.015120
     13          7           0       -5.271751   -1.909395   -3.106933
     14          1           0       -5.626811   -2.792776   -2.752660
     15          6           0       -4.095446   -1.448518   -2.382087
     16          1           0       -3.971064   -0.378291   -2.569803
     17          6           0       -2.846424   -2.167080   -2.988059
     18          6           0       -4.306475   -1.668150   -0.856681
     19          1           0       -3.383416   -1.404034   -0.329044
     20          1           0       -5.057399   -0.936253   -0.540178
     21          8           0       -2.937911   -2.988571   -3.923775
     22          6           0       -4.754112   -3.051039   -0.468076
     23          6           0       -6.063839   -3.451797   -0.304073
     24          1           0       -6.974034   -2.870092   -0.374625
     25          6           0       -3.935150   -4.205179   -0.169164
     26          6           0       -4.818722   -5.270030    0.155626
     27          6           0       -2.547847   -4.433852   -0.103163
     28          1           0       -1.843990   -3.631075   -0.301711
     29          7           0       -6.108341   -4.783118    0.050107
     30          1           0       -6.941154   -5.280266    0.327990
     31          6           0       -2.988457   -6.739940    0.555951
     32          1           0       -2.598067   -7.713686    0.836878
     33          6           0       -4.362450   -6.543357    0.513820
     34          1           0       -5.054393   -7.343810    0.760976
     35          6           0       -2.090596   -5.693852    0.256777
     36          1           0       -1.022194   -5.878014    0.318871
     37          7           0       -1.678337   -1.810310   -2.457285
     38          1           0       -1.620065   -1.185205   -1.653110
     39          6           0       -0.368797   -2.332330   -2.847239
     40          1           0       -0.476609   -3.379784   -3.135324
     41          6           0        0.488771   -2.206764   -1.568685
     42          6           0        0.166784   -1.499005   -4.042190
     43          1           0       -0.566416   -1.613855   -4.849109
     44          1           0        0.154253   -0.443595   -3.748547
     45          8           0        0.146364   -1.403115   -0.690734
     46          6           0        1.579959   -1.809066   -4.582786
     47          1           0        1.746857   -1.201384   -5.475572
     48          1           0        2.349569   -1.506027   -3.859913
     49          6           0        1.809897   -3.260085   -4.927902
     50          8           0        1.733544   -4.193840   -4.141780
     51          8           0        2.125411   -3.454733   -6.219689
     52          7           0        1.567644   -3.002163   -1.483783
     53          1           0        1.798579   -3.589059   -2.286636
     54          6           0        2.503343   -2.917033   -0.350920
     55          1           0        1.907872   -2.602837    0.512297
     56          6           0        3.530438   -1.809697   -0.688219
     57          6           0        3.170356   -4.273314   -0.058612
     58          1           0        3.811123   -4.513681   -0.916895
     59          8           0        4.651399   -2.078011   -1.141375
     60          6           0        4.067444   -4.166901    1.184944
     61          1           0        3.480943   -3.895245    2.072260
     62          1           0        4.546019   -5.130877    1.388219
     63          1           0        4.856906   -3.424217    1.046338
     64          6           0        2.129531   -5.388640    0.122156
     65          1           0        1.464722   -5.171564    0.968578
     66          1           0        1.508268   -5.529253   -0.768704
     67          1           0        2.630833   -6.339856    0.331044
     68          7           0        3.082774   -0.552525   -0.504067
     69          1           0        2.119912   -0.370527   -0.222545
     70          6           0        3.886239    0.628880   -0.789899
     71          1           0        4.902467    0.446341   -0.420361
     72          6           0        3.204660    1.786482   -0.032246
     73          6           0        3.956678    0.957086   -2.314835
     74          1           0        2.991161    1.389967   -2.604599
     75          8           0        1.974650    1.806535    0.045270
     76          6           0        5.081650    1.945610   -2.631754
     77          1           0        4.971937    2.892131   -2.092271
     78          1           0        6.053815    1.509551   -2.368222
     79          1           0        5.086708    2.153830   -3.706195
     80          8           0        4.099178   -0.223066   -3.103805
     81          1           0        4.653955   -0.854425   -2.601121
     82          7           0        4.022249    2.718908    0.489099
     83          1           0        5.022784    2.708326    0.307922
     84          6           0        3.561714    3.992796    1.037801
     85          1           0        2.550727    4.170848    0.658861
     86          6           0        4.559520    5.044782    0.501221
     87          6           0        3.529131    4.004353    2.600563
     88          1           0        4.573228    4.071904    2.939917
     89          8           0        5.734417    4.689264    0.277888
     90          6           0        2.754063    5.219983    3.136546
     91          1           0        1.694229    5.152125    2.858604
     92          1           0        3.125274    6.179261    2.767041
     93          1           0        2.804667    5.240365    4.231103
     94          6           0        2.926883    2.709063    3.166137
     95          1           0        1.906511    2.555633    2.797480
     96          1           0        2.890190    2.762774    4.260299
     97          1           0        3.519253    1.830049    2.893902
     98          7           0        4.072411    6.272577    0.329855
     99          1           0        3.113829    6.535952    0.622951
    100          6           0        4.812816    7.525046    0.210555
    101          1           0        5.560105    7.577818    1.015904
    102          6           0        3.740757    8.678104    0.506890
    103          6           0        5.514014    7.774131   -1.126685
    104          1           0        5.532637    8.866144   -1.232233
    105          1           0        4.903881    7.365711   -1.944283
    106          8           0        4.136266    9.830462    0.266148
    107          6           0        6.942224    7.220700   -1.199926
    108          1           0        7.512304    7.610737   -0.344319
    109          1           0        6.931566    6.130381   -1.098512
    110          6           0        7.650525    7.652185   -2.495888
    111          1           0        7.131275    7.227443   -3.367308
    112          1           0        7.599338    8.747552   -2.585016
    113          6           0        9.100642    7.206080   -2.489874
    114          1           0        9.212445    6.119310   -2.501325
    115          1           0        9.659332    7.614967   -1.644566
    116          7           0        9.826195    7.717471   -3.748870
    117          1           0       10.815441    7.443773   -3.779575
    118          1           0        9.369674    7.359509   -4.595938
    119          1           0        9.777944    8.742572   -3.791812
    120          8           0        2.644463    8.249538    0.958426
    121          1           0        2.299847   -4.410234   -6.328319
 ---------------------------------------------------------------------

 SCF Done:  E(RB3LYP) =  -2843.58453544     A.U. after    1 cycles

 Alpha  occ. eigenvalues --  -19.28210 -19.24189 -19.23598 -19.22813 -19.19973
 Alpha  occ. eigenvalues --  -19.18581 -19.17427 -19.15442 -19.13334 -19.05468
 Alpha  occ. eigenvalues --  -19.04576 -14.61593 -14.58123 -14.47340 -14.46165
 Alpha  occ. eigenvalues --  -14.46081 -14.43469 -14.41075 -14.39453 -14.35439
 Alpha  occ. eigenvalues --  -10.41587 -10.40837 -10.40060 -10.39318 -10.37859
 Alpha  occ. eigenvalues --  -10.36887 -10.34439 -10.34257 -10.32853 -10.32518
 Alpha  occ. eigenvalues --  -10.32434 -10.30473 -10.30034 -10.29520 -10.29349
 Alpha  occ. eigenvalues --  -10.29293 -10.29254 -10.28964 -10.28468 -10.28180
 Alpha  occ. eigenvalues --  -10.27429 -10.27047 -10.26186 -10.26061 -10.25731
 Alpha  occ. eigenvalues --  -10.25491 -10.25294 -10.25027 -10.25011 -10.23592
 Alpha  occ. eigenvalues --  -10.23513 -10.23152 -10.22383 -10.22195 -10.21587
 Alpha  occ. eigenvalues --  -10.21158 -10.20010 -10.19256 -10.18357  -1.19238
 Alpha  occ. eigenvalues --   -1.17159  -1.15403  -1.14390  -1.12189  -1.11817
 Alpha  occ. eigenvalues --   -1.09946  -1.09387  -1.07383  -1.05969  -1.05771
 Alpha  occ. eigenvalues --   -1.04550  -1.04466  -1.02753  -1.00021  -0.98579
 Alpha  occ. eigenvalues --   -0.97287  -0.95796  -0.92464  -0.91988  -0.91129
 Alpha  occ. eigenvalues --   -0.90760  -0.89793  -0.89535  -0.88448  -0.86209
 Alpha  occ. eigenvalues --   -0.84993  -0.83291  -0.82121  -0.81918  -0.81305
 Alpha  occ. eigenvalues --   -0.80834  -0.80203  -0.79347  -0.77960  -0.76510
 Alpha  occ. eigenvalues --   -0.75813  -0.75391  -0.74080  -0.74046  -0.73692
 Alpha  occ. eigenvalues --   -0.73347  -0.72759  -0.72135  -0.71154  -0.70050
 Alpha  occ. eigenvalues --   -0.69681  -0.69621  -0.68744  -0.68033  -0.67324
 Alpha  occ. eigenvalues --   -0.66869  -0.66482  -0.65591  -0.65068  -0.64614
 Alpha  occ. eigenvalues --   -0.64317  -0.63799  -0.63026  -0.62470  -0.62271
 Alpha  occ. eigenvalues --   -0.61456  -0.61429  -0.60467  -0.59610  -0.58764
 Alpha  occ. eigenvalues --   -0.58463  -0.58401  -0.57974  -0.57618  -0.57338
 Alpha  occ. eigenvalues --   -0.56963  -0.56346  -0.55992  -0.55798  -0.55319
 Alpha  occ. eigenvalues --   -0.55025  -0.54694  -0.54570  -0.54138  -0.53412
 Alpha  occ. eigenvalues --   -0.53160  -0.52985  -0.52847  -0.51967  -0.51818
 Alpha  occ. eigenvalues --   -0.51788  -0.51584  -0.51397  -0.50881  -0.50563
 Alpha  occ. eigenvalues --   -0.50491  -0.49991  -0.49937  -0.49615  -0.49485
 Alpha  occ. eigenvalues --   -0.48967  -0.48787  -0.48643  -0.48181  -0.47925
 Alpha  occ. eigenvalues --   -0.47684  -0.47478  -0.47268  -0.47103  -0.46948
 Alpha  occ. eigenvalues --   -0.46437  -0.46115  -0.45776  -0.45552  -0.45180
 Alpha  occ. eigenvalues --   -0.45107  -0.44946  -0.44755  -0.44137  -0.43886
 Alpha  occ. eigenvalues --   -0.43505  -0.43397  -0.43018  -0.42805  -0.42513
 Alpha  occ. eigenvalues --   -0.42344  -0.41772  -0.41658  -0.41406  -0.41119
 Alpha  occ. eigenvalues --   -0.40856  -0.40663  -0.40572  -0.40308  -0.40029
 Alpha  occ. eigenvalues --   -0.39785  -0.39218  -0.39100  -0.39057  -0.38442
 Alpha  occ. eigenvalues --   -0.38097  -0.38000  -0.37669  -0.37241  -0.36744
 Alpha  occ. eigenvalues --   -0.36440  -0.36043  -0.35969  -0.35323  -0.35088
 Alpha  occ. eigenvalues --   -0.35063  -0.35051  -0.34693  -0.34412  -0.33842
 Alpha  occ. eigenvalues --   -0.32893  -0.31816  -0.31141  -0.30218  -0.29798
 Alpha  occ. eigenvalues --   -0.29450  -0.28705  -0.28271  -0.27174  -0.26295
 Alpha  occ. eigenvalues --   -0.20651  -0.20259  -0.19024
 Alpha virt. eigenvalues --   -0.12419  -0.12340  -0.09159  -0.08790  -0.08048
 Alpha virt. eigenvalues --   -0.07867  -0.06360  -0.05685  -0.05459  -0.04715
 Alpha virt. eigenvalues --   -0.03702  -0.03235  -0.02654  -0.02456  -0.02062

 Mulliken charges:
               1
     1  N   -0.754534
     2  H    0.401644
     3  H    0.454710
     4  H    0.418647
     5  C   -0.096792
     6  H    0.224028
     7  C    0.602180
     8  C   -0.500926
     9  H    0.207792
    10  H    0.187692
    11  H    0.201713
    12  O   -0.501021
    13  N   -0.576892
    14  H    0.351346
    15  C   -0.085895
    16  H    0.217157
    17  C    0.670639
    18  C   -0.379071
    19  H    0.188806
    20  H    0.184927
    21  O   -0.611013
    22  C    0.023948
    23  C   -0.015847
    24  H    0.165696
    25  C    0.083432
    26  C    0.305647
    27  C   -0.212288
    28  H    0.138371
    29  N   -0.681464
    30  H    0.340624
    31  C   -0.148446
    32  H    0.143200
    33  C   -0.160853
    34  H    0.138689
    35  C   -0.150910
    36  H    0.144283
    37  N   -0.606819
    38  H    0.380141
    39  C   -0.062578
    40  H    0.198019
    41  C    0.624624
    42  C   -0.271944
    43  H    0.155407
    44  H    0.180645
    45  O   -0.558805
    46  C   -0.391684
    47  H    0.185625
    48  H    0.243846
    49  C    0.596146
    50  O   -0.487058
    51  O   -0.545682
    52  N   -0.636672
    53  H    0.391014
    54  C   -0.045755
    55  H    0.179473
    56  C    0.638762
    57  C   -0.093320
    58  H    0.154111
    59  O   -0.571115
    60  C   -0.463044
    61  H    0.143564
    62  H    0.152878
    63  H    0.176595
    64  C   -0.458389
    65  H    0.148127
    66  H    0.144315
    67  H    0.156972
    68  N   -0.618265
    69  H    0.384403
    70  C   -0.076882
    71  H    0.162488
    72  C    0.607815
    73  C    0.161778
    74  H    0.140427
    75  O   -0.544829
    76  C   -0.471571
    77  H    0.165865
    78  H    0.141677
    79  H    0.151414
    80  O   -0.659038
    81  H    0.422096
    82  N   -0.606203
    83  H    0.347041
    84  C   -0.047341
    85  H    0.173685
    86  C    0.603989
    87  C   -0.075630
    88  H    0.131964
    89  O   -0.592685
    90  C   -0.467872
    91  H    0.146541
    92  H    0.186964
    93  H    0.141170
    94  C   -0.445126
    95  H    0.159299
    96  H    0.141276
    97  H    0.134567
    98  N   -0.609849
    99  H    0.367588
   100  C   -0.062672
   101  H    0.136809
   102  C    0.579230
   103  C   -0.262267
   104  H    0.174650
   105  H    0.122441
   106  O   -0.586499
   107  C   -0.281272
   108  H    0.140201
   109  H    0.188615
   110  C   -0.290168
   111  H    0.155654
   112  H    0.162424
   113  C   -0.206310
   114  H    0.224531
   115  H    0.224967
   116  N   -0.731271
   117  H    0.421241
   118  H    0.420820
   119  H    0.424015
   120  O   -0.606805
   121  H    0.418293
 Sum of Mulliken charges =   1.00000

 Dipole moment (field-independent basis, Debye):
    X=              7.2156    Y=            -12.9304    Z=            -33.9772  Tot=             37.0636
 Quadrupole moment (field-independent basis, Debye-Ang):
   XX=            115.7788   YY=           -289.4234   ZZ=           -172.7592
   XY=            286.9465   XZ=            -63.4515   YZ=            -57.3881

 Normal termination of Gaussian 16 at Thu Jun 30 12:41:50 2022.
