 Gaussian 16, Revision C.01,
 Gaussian 16:  ES64L-G16RevC.01  3-Jul-2019

 -------------------------------------------------------------------
 # B3LYP/6-31G* guess=read geom=check nosymm integral(ultrafinegrid)
 -------------------------------------------------------------------

 -----------------------------------------------------
 Candidate Structure: Conf:81 Charge calc in gas phase
 -----------------------------------------------------
 Structure from the checkpoint file:  "conf-81.chk"
 Charge =  1 Multiplicity = 1

                          Input orientation:
 ---------------------------------------------------------------------
 Center     Atomic      Atomic             Coordinates (Angstroms)
 Number     Number       Type             X           Y           Z
 ---------------------------------------------------------------------
      1          7           0       -8.286141   -3.992109   -3.701019
      2          1           0       -8.591601   -3.482790   -2.844651
      3          1           0       -8.826568   -4.856891   -3.794003
      4          1           0       -8.446374   -3.364903   -4.517540
      5          6           0       -6.788712   -4.220901   -3.690655
      6          1           0       -6.500509   -4.413556   -2.655168
      7          6           0       -6.249344   -2.865518   -4.211564
      8          6           0       -6.420944   -5.382848   -4.611469
      9          1           0       -5.336382   -5.524747   -4.604203
     10          1           0       -6.879310   -6.319251   -4.275227
     11          1           0       -6.727278   -5.175811   -5.641828
     12          8           0       -6.912920   -2.290590   -5.077082
     13          7           0       -5.119838   -2.420329   -3.652017
     14          1           0       -4.576765   -2.988676   -3.005229
     15          6           0       -4.529268   -1.111393   -3.911028
     16          1           0       -4.759490   -0.826583   -4.941385
     17          6           0       -3.017631   -1.291567   -3.687014
     18          6           0       -5.083620   -0.027674   -2.927403
     19          1           0       -4.750494   -0.290660   -1.915840
     20          1           0       -4.598825    0.924288   -3.174870
     21          8           0       -2.615339   -2.187880   -2.936845
     22          6           0       -6.576516    0.124322   -2.972021
     23          6           0       -7.280597    1.003714   -3.758603
     24          1           0       -6.917227    1.779827   -4.418767
     25          6           0       -7.561792   -0.677565   -2.286908
     26          6           0       -8.844629   -0.242665   -2.736198
     27          6           0       -7.500000   -1.720584   -1.344396
     28          1           0       -6.544879   -2.041883   -0.936671
     29          7           0       -8.634142    0.785420   -3.624672
     30          1           0       -9.355942    1.332378   -4.070691
     31          6           0       -9.941046   -1.888925   -1.396320
     32          1           0      -10.847587   -2.358401   -1.025738
     33          6           0      -10.035003   -0.839130   -2.305526
     34          1           0      -11.001509   -0.490893   -2.658725
     35          6           0       -8.683287   -2.322772   -0.911528
     36          1           0       -8.645456   -3.099521   -0.151941
     37          7           0       -2.202146   -0.416651   -4.307597
     38          1           0       -2.593006    0.314944   -4.887993
     39          6           0       -0.740160   -0.444398   -4.133638
     40          1           0       -0.473587   -1.496738   -3.995770
     41          6           0       -0.378776    0.346456   -2.851781
     42          6           0       -0.048983    0.117496   -5.379081
     43          1           0       -0.525706   -0.327003   -6.261112
     44          1           0       -0.206223    1.199268   -5.421468
     45          8           0       -0.108113    1.552268   -2.890324
     46          6           0        1.456944   -0.188014   -5.399328
     47          1           0        1.963038    0.289473   -4.549717
     48          1           0        1.647578   -1.263551   -5.330734
     49          6           0        2.175787    0.298942   -6.641973
     50          8           0        3.114249   -0.258379   -7.160539
     51          8           0        1.666495    1.467856   -7.107685
     52          7           0       -0.432133   -0.373323   -1.711027
     53          1           0       -0.685090   -1.352807   -1.772489
     54          6           0       -0.131901    0.191371   -0.386575
     55          1           0       -0.574904    1.194125   -0.358335
     56          6           0        1.407512    0.303209   -0.286688
     57          6           0       -0.726642   -0.664190    0.746802
     58          1           0       -0.222601   -1.639107    0.710684
     59          8           0        2.110158   -0.632063    0.094099
     60          6           0       -0.420070   -0.023308    2.109736
     61          1           0       -0.872818    0.973198    2.190414
     62          1           0       -0.830640   -0.638546    2.916751
     63          1           0        0.655442    0.069477    2.281823
     64          6           0       -2.240954   -0.867331    0.578135
     65          1           0       -2.768384    0.095620    0.596169
     66          1           0       -2.498538   -1.379603   -0.355321
     67          1           0       -2.628824   -1.470233    1.406268
     68          7           0        1.908708    1.486897   -0.716927
     69          1           0        1.252675    2.174660   -1.063977
     70          6           0        3.337084    1.684048   -0.972289
     71          1           0        3.755630    0.692230   -1.171535
     72          6           0        3.977533    2.276394    0.311419
     73          6           0        3.536131    2.565331   -2.223552
     74          1           0        3.220243    3.588827   -1.973501
     75          8           0        4.168541    3.496434    0.420725
     76          6           0        4.992808    2.571747   -2.674341
     77          1           0        5.662867    2.880551   -1.866649
     78          1           0        5.287245    1.567715   -2.997736
     79          1           0        5.118120    3.250652   -3.522581
     80          8           0        2.785126    2.069795   -3.329114
     81          1           0        1.830348    2.167169   -3.163964
     82          7           0        4.213607    1.335854    1.245060
     83          1           0        3.903354    0.403170    0.987635
     84          6           0        4.608401    1.474791    2.656457
     85          1           0        3.710795    1.705823    3.245230
     86          6           0        5.630158    2.600601    2.892605
     87          6           0        5.164549    0.093323    3.133739
     88          1           0        5.854929   -0.240877    2.346450
     89          8           0        6.537585    2.816604    2.054089
     90          6           0        5.957286    0.182998    4.448803
     91          1           0        5.392695    0.666356    5.253982
     92          1           0        6.887372    0.744448    4.318100
     93          1           0        6.225855   -0.826809    4.778137
     94          6           0        4.026937   -0.934963    3.271556
     95          1           0        3.349172   -0.644545    4.084214
     96          1           0        4.439155   -1.918455    3.522054
     97          1           0        3.428217   -1.059005    2.361054
     98          7           0        5.436778    3.222806    4.056727
     99          1           0        4.740799    2.860701    4.751776
    100          6           0        6.349864    4.022588    4.893005
    101          1           0        7.369534    3.635270    4.775993
    102          6           0        5.856883    3.773342    6.382887
    103          6           0        6.354772    5.531949    4.544563
    104          1           0        7.181063    5.998392    5.087651
    105          1           0        5.426133    6.005084    4.888098
    106          8           0        4.852515    3.000829    6.469099
    107          6           0        6.475558    5.594579    3.028236
    108          1           0        7.341986    4.979038    2.765422
    109          1           0        5.593378    5.040845    2.693650
    110          6           0        6.517825    6.846288    2.149087
    111          1           0        5.872601    7.651561    2.520694
    112          1           0        7.528456    7.261615    2.057218
    113          6           0        5.956044    6.421869    0.778170
    114          1           0        6.194638    7.110994   -0.036364
    115          1           0        4.870915    6.319199    0.844723
    116          7           0        6.433530    5.039202    0.340519
    117          1           0        5.722559    4.602379   -0.262058
    118          1           0        7.336009    5.072378   -0.139006
    119          1           0        6.508673    4.329552    1.128222
    120          8           0        6.498244    4.379293    7.248283
    121          1           0        2.218308    1.715845   -7.873931
 ---------------------------------------------------------------------

 SCF Done:  E(RB3LYP) =  -2843.59445986     A.U. after    1 cycles

 Alpha  occ. eigenvalues --  -19.27085 -19.26090 -19.25054 -19.22431 -19.21349
 Alpha  occ. eigenvalues --  -19.20080 -19.20052 -19.18842 -19.14964 -19.05992
 Alpha  occ. eigenvalues --  -19.04543 -14.60412 -14.50931 -14.50671 -14.49831
 Alpha  occ. eigenvalues --  -14.49387 -14.46595 -14.44512 -14.42246 -14.36684
 Alpha  occ. eigenvalues --  -10.44450 -10.42043 -10.41668 -10.39387 -10.38594
 Alpha  occ. eigenvalues --  -10.37132 -10.37069 -10.35868 -10.34481 -10.34307
 Alpha  occ. eigenvalues --  -10.34215 -10.33765 -10.32356 -10.32342 -10.31948
 Alpha  occ. eigenvalues --  -10.31889 -10.31466 -10.31452 -10.31285 -10.31016
 Alpha  occ. eigenvalues --  -10.30959 -10.30876 -10.30388 -10.30227 -10.28756
 Alpha  occ. eigenvalues --  -10.27876 -10.27752 -10.27518 -10.26080 -10.25275
 Alpha  occ. eigenvalues --  -10.24819 -10.24676 -10.23813 -10.23702 -10.21681
 Alpha  occ. eigenvalues --  -10.21634 -10.21611 -10.19923 -10.19602  -1.19705
 Alpha  occ. eigenvalues --   -1.16908  -1.16809  -1.14494  -1.14035  -1.11916
 Alpha  occ. eigenvalues --   -1.10004  -1.09890  -1.08787  -1.07752  -1.07479
 Alpha  occ. eigenvalues --   -1.05977  -1.05340  -1.05142  -1.02692  -1.00629
 Alpha  occ. eigenvalues --   -0.98889  -0.98473  -0.96370  -0.94396  -0.93581
 Alpha  occ. eigenvalues --   -0.92506  -0.90613  -0.90069  -0.88990  -0.88304
 Alpha  occ. eigenvalues --   -0.85915  -0.85891  -0.85571  -0.84465  -0.84098
 Alpha  occ. eigenvalues --   -0.82924  -0.81994  -0.80465  -0.79781  -0.78736
 Alpha  occ. eigenvalues --   -0.77729  -0.76357  -0.75282  -0.74652  -0.74422
 Alpha  occ. eigenvalues --   -0.73681  -0.73117  -0.72825  -0.72723  -0.71656
 Alpha  occ. eigenvalues --   -0.71503  -0.71378  -0.69538  -0.68752  -0.68509
 Alpha  occ. eigenvalues --   -0.67329  -0.67260  -0.67165  -0.66413  -0.66198
 Alpha  occ. eigenvalues --   -0.65926  -0.65619  -0.63982  -0.63896  -0.63519
 Alpha  occ. eigenvalues --   -0.63084  -0.62075  -0.61711  -0.60826  -0.60711
 Alpha  occ. eigenvalues --   -0.60134  -0.60015  -0.59585  -0.59182  -0.58992
 Alpha  occ. eigenvalues --   -0.58812  -0.58276  -0.58045  -0.57362  -0.57031
 Alpha  occ. eigenvalues --   -0.56694  -0.56113  -0.55812  -0.55516  -0.55306
 Alpha  occ. eigenvalues --   -0.55016  -0.54667  -0.54310  -0.54201  -0.54066
 Alpha  occ. eigenvalues --   -0.53831  -0.53642  -0.53176  -0.53098  -0.52778
 Alpha  occ. eigenvalues --   -0.52463  -0.52423  -0.52015  -0.51406  -0.50898
 Alpha  occ. eigenvalues --   -0.50728  -0.50430  -0.50024  -0.49863  -0.49435
 Alpha  occ. eigenvalues --   -0.49200  -0.48860  -0.48703  -0.48542  -0.48208
 Alpha  occ. eigenvalues --   -0.47890  -0.47453  -0.47164  -0.47071  -0.46889
 Alpha  occ. eigenvalues --   -0.46719  -0.46360  -0.46216  -0.46030  -0.46007
 Alpha  occ. eigenvalues --   -0.45637  -0.45573  -0.45335  -0.45257  -0.44968
 Alpha  occ. eigenvalues --   -0.44759  -0.44185  -0.43801  -0.43526  -0.43140
 Alpha  occ. eigenvalues --   -0.42287  -0.41942  -0.41842  -0.41716  -0.41529
 Alpha  occ. eigenvalues --   -0.41364  -0.41156  -0.40860  -0.40291  -0.39981
 Alpha  occ. eigenvalues --   -0.39846  -0.39549  -0.39479  -0.38893  -0.38115
 Alpha  occ. eigenvalues --   -0.37984  -0.37370  -0.37353  -0.36939  -0.36588
 Alpha  occ. eigenvalues --   -0.35922  -0.35758  -0.35564  -0.34984  -0.34896
 Alpha  occ. eigenvalues --   -0.34659  -0.34468  -0.33633  -0.33159  -0.33008
 Alpha  occ. eigenvalues --   -0.32293  -0.32090  -0.31079  -0.28948  -0.27849
 Alpha  occ. eigenvalues --   -0.21028  -0.20858  -0.18792
 Alpha virt. eigenvalues --   -0.13876  -0.13548  -0.11297  -0.10834  -0.09729
 Alpha virt. eigenvalues --   -0.08960  -0.06692  -0.06325  -0.05308  -0.05035
 Alpha virt. eigenvalues --   -0.04918  -0.04386  -0.03933  -0.02923  -0.02654

 Mulliken charges:
               1
     1  N   -0.753818
     2  H    0.420589
     3  H    0.406697
     4  H    0.422304
     5  C   -0.109946
     6  H    0.205088
     7  C    0.668139
     8  C   -0.473847
     9  H    0.212950
    10  H    0.189830
    11  H    0.202262
    12  O   -0.530627
    13  N   -0.607720
    14  H    0.365814
    15  C   -0.061195
    16  H    0.192759
    17  C    0.645548
    18  C   -0.368058
    19  H    0.180367
    20  H    0.170841
    21  O   -0.548114
    22  C    0.084883
    23  C    0.028913
    24  H    0.176535
    25  C    0.076163
    26  C    0.323754
    27  C   -0.240871
    28  H    0.142575
    29  N   -0.681077
    30  H    0.351548
    31  C   -0.173413
    32  H    0.161813
    33  C   -0.162096
    34  H    0.161243
    35  C   -0.216219
    36  H    0.156131
    37  N   -0.610575
    38  H    0.349642
    39  C   -0.053272
    40  H    0.185533
    41  C    0.639513
    42  C   -0.298923
    43  H    0.154897
    44  H    0.190787
    45  O   -0.557975
    46  C   -0.387446
    47  H    0.224327
    48  H    0.176191
    49  C    0.584583
    50  O   -0.450947
    51  O   -0.566509
    52  N   -0.602426
    53  H    0.365594
    54  C   -0.031884
    55  H    0.162503
    56  C    0.630184
    57  C   -0.107188
    58  H    0.162491
    59  O   -0.533666
    60  C   -0.465345
    61  H    0.147274
    62  H    0.163778
    63  H    0.179897
    64  C   -0.471006
    65  H    0.143840
    66  H    0.142793
    67  H    0.160409
    68  N   -0.605316
    69  H    0.345453
    70  C   -0.075973
    71  H    0.182703
    72  C    0.661610
    73  C    0.113390
    74  H    0.133773
    75  O   -0.591511
    76  C   -0.461304
    77  H    0.136768
    78  H    0.173562
    79  H    0.168381
    80  O   -0.651315
    81  H    0.426227
    82  N   -0.632163
    83  H    0.371244
    84  C   -0.006792
    85  H    0.165655
    86  C    0.629637
    87  C   -0.104018
    88  H    0.142932
    89  O   -0.622646
    90  C   -0.480750
    91  H    0.198382
    92  H    0.165321
    93  H    0.144171
    94  C   -0.483104
    95  H    0.157916
    96  H    0.157174
    97  H    0.156434
    98  N   -0.604281
    99  H    0.369851
   100  C   -0.078846
   101  H    0.150578
   102  C    0.592921
   103  C   -0.259846
   104  H    0.168039
   105  H    0.142381
   106  O   -0.620929
   107  C   -0.312637
   108  H    0.150966
   109  H    0.157515
   110  C   -0.263314
   111  H    0.170787
   112  H    0.156274
   113  C   -0.193327
   114  H    0.177217
   115  H    0.212986
   116  N   -0.790784
   117  H    0.417902
   118  H    0.383152
   119  H    0.466632
   120  O   -0.572571
   121  H    0.416676
 Sum of Mulliken charges =   1.00000

 Dipole moment (field-independent basis, Debye):
    X=            -38.4667    Y=            -10.2244    Z=            -34.6508  Tot=             52.7722
 Quadrupole moment (field-independent basis, Debye-Ang):
   XX=            -54.9044   YY=           -238.8006   ZZ=           -410.5569
   XY=            125.8098   XZ=             33.9195   YZ=            -34.7740

 Normal termination of Gaussian 16 at Thu Jun 30 12:41:31 2022.
