 Gaussian 16, Revision C.01,
 Gaussian 16:  ES64L-G16RevC.01  3-Jul-2019

 -------------------------------------------------------------------
 # B3LYP/6-31G* guess=read geom=check nosymm integral(ultrafinegrid)
 -------------------------------------------------------------------

 ------------------------------------------------------
 Candidate Structure: Conf:121 Charge calc in gas phase
 ------------------------------------------------------
 Structure from the checkpoint file:  "conf-121.chk"
 Charge =  1 Multiplicity = 1

                          Input orientation:
 ---------------------------------------------------------------------
 Center     Atomic      Atomic             Coordinates (Angstroms)
 Number     Number       Type             X           Y           Z
 ---------------------------------------------------------------------
      1          7           0       -7.474476   -5.002329   -5.800662
      2          1           0       -8.243622   -5.447229   -5.292603
      3          1           0       -7.359114   -5.476672   -6.700547
      4          1           0       -7.696716   -3.960348   -5.938316
      5          6           0       -6.189715   -4.917290   -4.997364
      6          1           0       -6.325716   -5.501337   -4.084193
      7          6           0       -6.109861   -3.395264   -4.671887
      8          6           0       -4.999820   -5.426556   -5.810856
      9          1           0       -4.077950   -5.315144   -5.233209
     10          1           0       -5.110571   -6.488437   -6.053442
     11          1           0       -4.880252   -4.852508   -6.736264
     12          8           0       -6.923558   -2.654361   -5.242459
     13          7           0       -5.165876   -3.020742   -3.818127
     14          1           0       -4.430648   -3.660760   -3.517625
     15          6           0       -4.867654   -1.633823   -3.467782
     16          1           0       -5.276986   -0.991923   -4.252012
     17          6           0       -3.328835   -1.562892   -3.414149
     18          6           0       -5.466663   -1.239631   -2.083178
     19          1           0       -4.947533   -1.824163   -1.314041
     20          1           0       -5.197942   -0.189792   -1.903786
     21          8           0       -2.676690   -2.601940   -3.253221
     22          6           0       -6.946786   -1.431946   -1.955345
     23          6           0       -7.566443   -2.358720   -1.151823
     24          1           0       -7.130366   -3.085704   -0.479100
     25          6           0       -7.998631   -0.676807   -2.597437
     26          6           0       -9.232959   -1.206522   -2.134335
     27          6           0       -8.022634    0.400709   -3.500800
     28          1           0       -7.099106    0.839673   -3.870386
     29          7           0       -8.937020   -2.247480   -1.271010
     30          1           0       -9.605580   -2.706561   -0.670704
     31          6           0      -10.458101    0.372073   -3.432222
     32          1           0      -11.399849    0.800116   -3.762896
     33          6           0      -10.469231   -0.694429   -2.541375
     34          1           0      -11.403296   -1.105799   -2.168158
     35          6           0       -9.246555    0.914548   -3.907642
     36          1           0       -9.275017    1.752118   -4.598368
     37          7           0       -2.780523   -0.339165   -3.518319
     38          1           0       -3.380437    0.474152   -3.582096
     39          6           0       -1.337056   -0.098604   -3.366228
     40          1           0       -0.832694   -0.966896   -3.800827
     41          6           0       -0.990023    0.002040   -1.864125
     42          6           0       -0.940409    1.171086   -4.123003
     43          1           0       -1.182187    1.041270   -5.182500
     44          1           0       -1.535581    2.012846   -3.750139
     45          8           0       -1.039588    1.076466   -1.269058
     46          6           0        0.546538    1.509074   -3.969064
     47          1           0        0.744740    1.956762   -2.989839
     48          1           0        1.181898    0.613520   -4.018130
     49          6           0        1.017123    2.471510   -5.036574
     50          8           0        0.370370    2.854100   -5.987078
     51          8           0        2.292248    2.869590   -4.811515
     52          7           0       -0.647607   -1.169359   -1.272390
     53          1           0       -0.582491   -2.003069   -1.843179
     54          6           0       -0.124189   -1.221041    0.098402
     55          1           0       -0.606937   -0.401476    0.639597
     56          6           0        1.394376   -0.948450   -0.011382
     57          6           0       -0.436147   -2.561767    0.785429
     58          1           0        0.127067   -3.338570    0.251224
     59          8           0        2.218059   -1.869646   -0.071072
     60          6           0        0.058729   -2.541810    2.239904
     61          1           0       -0.447502   -1.758704    2.818924
     62          1           0       -0.151118   -3.500786    2.725772
     63          1           0        1.137345   -2.371482    2.291230
     64          6           0       -1.935138   -2.893001    0.722988
     65          1           0       -2.528560   -2.125670    1.236949
     66          1           0       -2.299107   -2.967800   -0.307619
     67          1           0       -2.129101   -3.849972    1.220315
     68          7           0        1.729260    0.355561   -0.108579
     69          1           0        1.010192    1.072334   -0.186667
     70          6           0        3.101709    0.789746   -0.322665
     71          1           0        3.744481    0.185177    0.327696
     72          6           0        3.142821    2.276546    0.062259
     73          6           0        3.582030    0.616798   -1.806948
     74          1           0        3.199610    1.462424   -2.389080
     75          8           0        2.200345    3.008613   -0.232351
     76          6           0        5.111099    0.592509   -1.894151
     77          1           0        5.560877    1.507014   -1.489720
     78          1           0        5.512903   -0.266287   -1.340774
     79          1           0        5.412486    0.490535   -2.941008
     80          8           0        3.018391   -0.536243   -2.415424
     81          1           0        3.064402   -1.265601   -1.766917
     82          7           0        4.258584    2.694068    0.708011
     83          1           0        5.037234    2.058658    0.824640
     84          6           0        4.545660    4.097835    0.970486
     85          1           0        3.841377    4.680705    0.370213
     86          6           0        5.975879    4.405156    0.512897
     87          6           0        4.357416    4.502872    2.467644
     88          1           0        4.662515    5.555674    2.533789
     89          8           0        6.795071    3.436954    0.414649
     90          6           0        2.881243    4.401550    2.873247
     91          1           0        2.527343    3.364653    2.836678
     92          1           0        2.240307    4.997297    2.215259
     93          1           0        2.748587    4.765510    3.897971
     94          6           0        5.251841    3.687652    3.412790
     95          1           0        4.982286    2.623984    3.397676
     96          1           0        5.131208    4.043247    4.441252
     97          1           0        6.313490    3.773632    3.156551
     98          7           0        6.239434    5.680309    0.296499
     99          1           0        5.558289    6.390746    0.676505
    100          6           0        7.515914    6.404538    0.368937
    101          1           0        8.271989    5.795504    0.878850
    102          6           0        7.188634    7.643951    1.350801
    103          6           0        8.036069    6.962196   -0.969107
    104          1           0        8.549431    7.894756   -0.713166
    105          1           0        7.172769    7.229460   -1.592206
    106          8           0        8.171112    8.324837    1.653674
    107          6           0        9.019514    6.107659   -1.788708
    108          1           0        9.350864    6.701997   -2.648007
    109          1           0        9.935250    5.961513   -1.191971
    110          6           0        8.479855    4.744613   -2.296958
    111          1           0        7.431436    4.615196   -2.009404
    112          1           0        8.502980    4.706187   -3.391867
    113          6           0        9.273511    3.534374   -1.806444
    114          1           0       10.317654    3.572067   -2.132016
    115          1           0        8.832044    2.596921   -2.154860
    116          7           0        9.260020    3.472402   -0.301558
    117          1           0        9.752715    4.276171    0.097170
    118          1           0        8.203351    3.513927    0.059046
    119          1           0        9.709103    2.624427    0.052382
    120          8           0        5.962097    7.739060    1.641672
    121          1           0        2.518476    3.485320   -5.534228
 ---------------------------------------------------------------------

 SCF Done:  E(RB3LYP) =  -2843.61046629     A.U. after    3 cycles

 Alpha  occ. eigenvalues --  -19.27824 -19.25028 -19.23324 -19.20186 -19.19451
 Alpha  occ. eigenvalues --  -19.19259 -19.19123 -19.17980 -19.17298 -19.09176
 Alpha  occ. eigenvalues --  -19.07795 -14.60832 -14.51229 -14.50430 -14.47415
 Alpha  occ. eigenvalues --  -14.46345 -14.43911 -14.41873 -14.41865 -14.40071
 Alpha  occ. eigenvalues --  -10.44565 -10.42244 -10.40254 -10.37657 -10.36417
 Alpha  occ. eigenvalues --  -10.35494 -10.35198 -10.35033 -10.34827 -10.34663
 Alpha  occ. eigenvalues --  -10.33058 -10.32249 -10.30673 -10.30106 -10.29872
 Alpha  occ. eigenvalues --  -10.29823 -10.29581 -10.29181 -10.28256 -10.27151
 Alpha  occ. eigenvalues --  -10.26832 -10.26664 -10.26571 -10.26529 -10.26500
 Alpha  occ. eigenvalues --  -10.26374 -10.25915 -10.25913 -10.25862 -10.25532
 Alpha  occ. eigenvalues --  -10.25135 -10.24947 -10.24265 -10.23473 -10.23446
 Alpha  occ. eigenvalues --  -10.23152 -10.22272 -10.21480 -10.20778  -1.20344
 Alpha  occ. eigenvalues --   -1.15892  -1.15238  -1.14533  -1.11325  -1.10473
 Alpha  occ. eigenvalues --   -1.09988  -1.09006  -1.07157  -1.06912  -1.06494
 Alpha  occ. eigenvalues --   -1.06277  -1.06163  -1.03442  -1.02251  -1.00131
 Alpha  occ. eigenvalues --   -0.98261  -0.98032  -0.97178  -0.94456  -0.93476
 Alpha  occ. eigenvalues --   -0.91666  -0.90474  -0.88241  -0.87048  -0.86823
 Alpha  occ. eigenvalues --   -0.85877  -0.85205  -0.82918  -0.82450  -0.81618
 Alpha  occ. eigenvalues --   -0.81430  -0.81174  -0.80049  -0.78562  -0.77464
 Alpha  occ. eigenvalues --   -0.76999  -0.75739  -0.74987  -0.74642  -0.73854
 Alpha  occ. eigenvalues --   -0.73807  -0.72637  -0.72162  -0.71505  -0.70149
 Alpha  occ. eigenvalues --   -0.70102  -0.69968  -0.67732  -0.67291  -0.67076
 Alpha  occ. eigenvalues --   -0.66431  -0.66226  -0.65583  -0.65076  -0.64663
 Alpha  occ. eigenvalues --   -0.64504  -0.64422  -0.64233  -0.64122  -0.63433
 Alpha  occ. eigenvalues --   -0.62147  -0.61876  -0.61314  -0.60846  -0.60400
 Alpha  occ. eigenvalues --   -0.59794  -0.58865  -0.58509  -0.57876  -0.57539
 Alpha  occ. eigenvalues --   -0.57070  -0.56929  -0.56454  -0.56336  -0.56016
 Alpha  occ. eigenvalues --   -0.55294  -0.54982  -0.54563  -0.54241  -0.54088
 Alpha  occ. eigenvalues --   -0.53366  -0.53353  -0.53212  -0.52866  -0.52722
 Alpha  occ. eigenvalues --   -0.52427  -0.52241  -0.51355  -0.51269  -0.51158
 Alpha  occ. eigenvalues --   -0.51040  -0.50734  -0.50496  -0.50422  -0.50299
 Alpha  occ. eigenvalues --   -0.49748  -0.49601  -0.49242  -0.48945  -0.48557
 Alpha  occ. eigenvalues --   -0.48382  -0.48309  -0.47965  -0.47790  -0.47479
 Alpha  occ. eigenvalues --   -0.47272  -0.46657  -0.46450  -0.46044  -0.46014
 Alpha  occ. eigenvalues --   -0.45926  -0.45754  -0.45266  -0.44819  -0.44456
 Alpha  occ. eigenvalues --   -0.44283  -0.44193  -0.44114  -0.43674  -0.43445
 Alpha  occ. eigenvalues --   -0.43337  -0.43049  -0.42566  -0.42512  -0.42365
 Alpha  occ. eigenvalues --   -0.42144  -0.42072  -0.41462  -0.41410  -0.41301
 Alpha  occ. eigenvalues --   -0.41032  -0.40562  -0.40239  -0.39968  -0.39706
 Alpha  occ. eigenvalues --   -0.39352  -0.39326  -0.38901  -0.38445  -0.38293
 Alpha  occ. eigenvalues --   -0.37745  -0.37708  -0.37499  -0.37340  -0.37240
 Alpha  occ. eigenvalues --   -0.37135  -0.36101  -0.35226  -0.34578  -0.34288
 Alpha  occ. eigenvalues --   -0.33163  -0.32598  -0.32366  -0.32200  -0.31909
 Alpha  occ. eigenvalues --   -0.30932  -0.30566  -0.30148  -0.30140  -0.28592
 Alpha  occ. eigenvalues --   -0.24066  -0.23958  -0.21877
 Alpha virt. eigenvalues --   -0.13061  -0.12084  -0.09491  -0.08678  -0.07181
 Alpha virt. eigenvalues --   -0.06688  -0.05565  -0.05124  -0.04878  -0.04450
 Alpha virt. eigenvalues --   -0.04219  -0.04057  -0.03480  -0.02965  -0.02297

 Mulliken charges:
               1
     1  N   -0.757966
     2  H    0.418076
     3  H    0.414860
     4  H    0.440488
     5  C   -0.106487
     6  H    0.223362
     7  C    0.657773
     8  C   -0.485202
     9  H    0.220397
    10  H    0.197338
    11  H    0.198777
    12  O   -0.526464
    13  N   -0.588191
    14  H    0.367684
    15  C   -0.086976
    16  H    0.200640
    17  C    0.648421
    18  C   -0.369031
    19  H    0.170258
    20  H    0.176267
    21  O   -0.556263
    22  C    0.076587
    23  C   -0.019714
    24  H    0.155121
    25  C    0.099086
    26  C    0.298962
    27  C   -0.201648
    28  H    0.113508
    29  N   -0.688036
    30  H    0.338172
    31  C   -0.150456
    32  H    0.143661
    33  C   -0.164991
    34  H    0.136407
    35  C   -0.138402
    36  H    0.139534
    37  N   -0.604145
    38  H    0.350776
    39  C   -0.063340
    40  H    0.179036
    41  C    0.639356
    42  C   -0.280163
    43  H    0.173676
    44  H    0.170704
    45  O   -0.529501
    46  C   -0.398504
    47  H    0.222237
    48  H    0.207214
    49  C    0.581659
    50  O   -0.462338
    51  O   -0.564258
    52  N   -0.603753
    53  H    0.351011
    54  C   -0.044084
    55  H    0.178797
    56  C    0.637132
    57  C   -0.090833
    58  H    0.149692
    59  O   -0.569865
    60  C   -0.461399
    61  H    0.144979
    62  H    0.151631
    63  H    0.175498
    64  C   -0.459874
    65  H    0.145764
    66  H    0.139515
    67  H    0.149211
    68  N   -0.612972
    69  H    0.381273
    70  C   -0.070025
    71  H    0.160489
    72  C    0.607750
    73  C    0.148060
    74  H    0.162253
    75  O   -0.529952
    76  C   -0.478179
    77  H    0.143703
    78  H    0.144326
    79  H    0.163575
    80  O   -0.654698
    81  H    0.415725
    82  N   -0.599921
    83  H    0.345522
    84  C   -0.070310
    85  H    0.197032
    86  C    0.630382
    87  C   -0.095518
    88  H    0.189207
    89  O   -0.655793
    90  C   -0.446648
    91  H    0.141210
    92  H    0.161780
    93  H    0.153753
    94  C   -0.459650
    95  H    0.134323
    96  H    0.163751
    97  H    0.144850
    98  N   -0.569870
    99  H    0.383004
   100  C   -0.102638
   101  H    0.100307
   102  C    0.595825
   103  C   -0.263006
   104  H    0.194933
   105  H    0.147455
   106  O   -0.556135
   107  C   -0.300212
   108  H    0.164191
   109  H    0.121475
   110  C   -0.280217
   111  H    0.184663
   112  H    0.170196
   113  C   -0.190992
   114  H    0.190969
   115  H    0.192302
   116  N   -0.772169
   117  H    0.395493
   118  H    0.464421
   119  H    0.386420
   120  O   -0.597110
   121  H    0.414009
 Sum of Mulliken charges =   1.00000

 Dipole moment (field-independent basis, Debye):
    X=            -20.9668    Y=            -29.7636    Z=            -25.3758  Tot=             44.3781
 Quadrupole moment (field-independent basis, Debye-Ang):
   XX=             19.6876   YY=           -356.9033   ZZ=           -233.7758
   XY=            117.8396   XZ=             90.7959   YZ=             59.5020

 Normal termination of Gaussian 16 at Thu Jun 30 12:42:46 2022.
