 Gaussian 16, Revision C.01,
 Gaussian 16:  ES64L-G16RevC.01  3-Jul-2019

 -------------------------------------------------------------------
 # B3LYP/6-31G* guess=read geom=check nosymm integral(ultrafinegrid)
 -------------------------------------------------------------------

 ------------------------------------------------------
 Candidate Structure: Conf:304 Charge calc in gas phase
 ------------------------------------------------------
 Structure from the checkpoint file:  "conf-304.chk"
 Charge =  1 Multiplicity = 1

                          Input orientation:
 ---------------------------------------------------------------------
 Center     Atomic      Atomic             Coordinates (Angstroms)
 Number     Number       Type             X           Y           Z
 ---------------------------------------------------------------------
      1          7           0       -7.242681   -6.675277   -2.178462
      2          1           0       -7.948031   -6.738555   -1.439269
      3          1           0       -7.100511   -7.609698   -2.572697
      4          1           0       -7.574221   -5.991782   -2.934094
      5          6           0       -5.950908   -6.015150   -1.729091
      6          1           0       -6.028684   -5.831467   -0.654655
      7          6           0       -5.973534   -4.669083   -2.515092
      8          6           0       -4.742597   -6.894077   -2.050912
      9          1           0       -3.823238   -6.389161   -1.742077
     10          1           0       -4.791030   -7.845917   -1.512129
     11          1           0       -4.669189   -7.088123   -3.126614
     12          8           0       -6.883423   -4.514842   -3.348723
     13          7           0       -5.015009   -3.802870   -2.232165
     14          1           0       -4.248246   -4.011543   -1.585699
     15          6           0       -4.814113   -2.519782   -2.909181
     16          1           0       -4.889329   -2.673896   -3.990514
     17          6           0       -3.374316   -2.121094   -2.519042
     18          6           0       -5.865461   -1.449273   -2.475295
     19          1           0       -6.830912   -1.964390   -2.412063
     20          1           0       -5.619271   -1.099790   -1.466387
     21          8           0       -2.747175   -2.796922   -1.697195
     22          6           0       -5.983007   -0.294549   -3.427109
     23          6           0       -5.549065    0.999069   -3.223607
     24          1           0       -5.006325    1.417483   -2.385995
     25          6           0       -6.629148   -0.317058   -4.719893
     26          6           0       -6.549345    1.000288   -5.245847
     27          6           0       -7.273370   -1.315071   -5.474155
     28          1           0       -7.359549   -2.329524   -5.092201
     29          7           0       -5.880638    1.772639   -4.313814
     30          1           0       -5.711457    2.764323   -4.389641
     31          6           0       -7.711846    0.334653   -7.215685
     32          1           0       -8.140771    0.565346   -8.186360
     33          6           0       -7.085187    1.341799   -6.491859
     34          1           0       -7.018584    2.354759   -6.879087
     35          6           0       -7.806036   -0.979354   -6.712148
     36          1           0       -8.308292   -1.738293   -7.305220
     37          7           0       -2.881094   -1.018233   -3.119270
     38          1           0       -3.548759   -0.411831   -3.590231
     39          6           0       -1.633689   -0.413038   -2.661306
     40          1           0       -0.933257   -1.229995   -2.464812
     41          6           0       -1.878974    0.412139   -1.379869
     42          6           0       -1.080421    0.514183   -3.763297
     43          1           0       -0.917095   -0.072961   -4.671697
     44          1           0       -1.842075    1.271131   -3.988205
     45          8           0       -2.813141    1.209089   -1.318455
     46          6           0        0.224130    1.214327   -3.343502
     47          1           0        0.084589    1.815167   -2.442827
     48          1           0        0.997705    0.465607   -3.121228
     49          6           0        0.800371    2.148134   -4.384140
     50          8           0        1.229174    3.264490   -4.150986
     51          8           0        0.826266    1.612337   -5.615372
     52          7           0       -0.956425    0.243628   -0.402441
     53          1           0       -0.198061   -0.415796   -0.534721
     54          6           0       -0.769295    1.185528    0.704500
     55          1           0       -1.487411    1.995686    0.545951
     56          6           0        0.680915    1.671464    0.546096
     57          6           0       -1.009927    0.541373    2.090223
     58          1           0       -0.264089   -0.257365    2.200935
     59          8           0        1.601499    0.845921    0.535087
     60          6           0       -0.786006    1.570059    3.209011
     61          1           0       -1.490163    2.407709    3.122584
     62          1           0       -0.944134    1.105979    4.187857
     63          1           0        0.230245    1.977793    3.199077
     64          6           0       -2.412103   -0.075831    2.173185
     65          1           0       -3.188781    0.689899    2.055158
     66          1           0       -2.564629   -0.835167    1.399306
     67          1           0       -2.556757   -0.552358    3.148908
     68          7           0        0.874221    2.998246    0.371036
     69          1           0        0.076039    3.580447    0.142309
     70          6           0        2.172198    3.527957   -0.058930
     71          1           0        2.645043    2.765709   -0.690927
     72          6           0        3.099640    3.773798    1.161107
     73          6           0        1.943462    4.822004   -0.880992
     74          1           0        1.748612    5.627154   -0.165210
     75          8           0        3.292169    4.921301    1.613933
     76          6           0        3.167572    5.162034   -1.730930
     77          1           0        4.084449    5.174191   -1.131932
     78          1           0        3.306841    4.413030   -2.519068
     79          1           0        3.034568    6.135716   -2.213700
     80          8           0        0.763174    4.726050   -1.666773
     81          1           0        0.967341    4.241217   -2.492561
     82          7           0        3.625941    2.670271    1.688131
     83          1           0        3.391718    1.797932    1.223470
     84          6           0        4.657347    2.631922    2.732639
     85          1           0        4.329600    3.271885    3.559968
     86          6           0        5.975937    3.209591    2.125593
     87          6           0        4.793628    1.165414    3.238338
     88          1           0        5.191829    0.579968    2.395285
     89          8           0        6.147639    3.170734    0.900172
     90          6           0        5.760042    1.030967    4.424208
     91          1           0        5.370091    1.560459    5.303103
     92          1           0        6.763755    1.420311    4.245477
     93          1           0        5.850480   -0.026822    4.695639
     94          6           0        3.427222    0.577678    3.642423
     95          1           0        2.968372    1.183120    4.435059
     96          1           0        3.568867   -0.432239    4.042926
     97          1           0        2.717173    0.504357    2.813303
     98          7           0        6.817258    3.784210    3.007903
     99          1           0        6.755154    3.536350    4.019523
    100          6           0        8.261520    3.974553    2.778930
    101          1           0        8.571577    3.351938    1.933387
    102          6           0        8.965067    3.429969    4.110348
    103          6           0        8.764027    5.415872    2.556777
    104          1           0        9.835723    5.330972    2.761387
    105          1           0        8.359207    6.068109    3.345995
    106          8           0       10.201990    3.440509    4.092736
    107          6           0        8.582912    6.080607    1.171437
    108          1           0        9.474535    6.675594    0.939787
    109          1           0        8.515173    5.309679    0.392824
    110          6           0        7.371636    7.029116    1.045905
    111          1           0        7.462128    7.837988    1.785704
    112          1           0        7.367962    7.496791    0.049799
    113          6           0        6.095026    6.248131    1.268135
    114          1           0        6.053203    5.816386    2.268134
    115          1           0        6.000265    5.417772    0.566215
    116          7           0        4.821748    7.063330    1.131797
    117          1           0        4.026206    6.383267    1.253983
    118          1           0        4.762809    7.792860    1.848048
    119          1           0        4.753325    7.517053    0.216652
    120          8           0        8.150189    3.084033    5.017325
    121          1           0        1.235147    2.270516   -6.210723
 ---------------------------------------------------------------------

 SCF Done:  E(RB3LYP) =  -2843.60329732     A.U. after    3 cycles

 Alpha  occ. eigenvalues --  -19.29613 -19.28572 -19.24369 -19.23793 -19.21506
 Alpha  occ. eigenvalues --  -19.21054 -19.20775 -19.20067 -19.13759 -19.05633
 Alpha  occ. eigenvalues --  -19.04417 -14.61405 -14.52983 -14.50767 -14.46971
 Alpha  occ. eigenvalues --  -14.46231 -14.45603 -14.45083 -14.42429 -14.35792
 Alpha  occ. eigenvalues --  -10.45119 -10.42742 -10.42483 -10.40526 -10.38219
 Alpha  occ. eigenvalues --  -10.37581 -10.36589 -10.35731 -10.35188 -10.33902
 Alpha  occ. eigenvalues --  -10.31846 -10.31727 -10.31090 -10.30687 -10.30277
 Alpha  occ. eigenvalues --  -10.30274 -10.30152 -10.30065 -10.29807 -10.29793
 Alpha  occ. eigenvalues --  -10.27455 -10.27180 -10.27068 -10.26473 -10.26445
 Alpha  occ. eigenvalues --  -10.26239 -10.25871 -10.25705 -10.25579 -10.25184
 Alpha  occ. eigenvalues --  -10.24626 -10.24484 -10.23569 -10.23369 -10.21893
 Alpha  occ. eigenvalues --  -10.21475 -10.20822 -10.19108 -10.18757  -1.20846
 Alpha  occ. eigenvalues --   -1.20705  -1.15806  -1.15107  -1.13151  -1.12407
 Alpha  occ. eigenvalues --   -1.11566  -1.11016  -1.09125  -1.07483  -1.07431
 Alpha  occ. eigenvalues --   -1.06108  -1.05108  -1.03720  -1.01859  -1.01035
 Alpha  occ. eigenvalues --   -0.98841  -0.98562  -0.94876  -0.92532  -0.91833
 Alpha  occ. eigenvalues --   -0.91335  -0.89960  -0.89719  -0.88399  -0.86284
 Alpha  occ. eigenvalues --   -0.85825  -0.85489  -0.83946  -0.83694  -0.82556
 Alpha  occ. eigenvalues --   -0.81199  -0.80451  -0.80149  -0.78190  -0.77823
 Alpha  occ. eigenvalues --   -0.77612  -0.75634  -0.75539  -0.75172  -0.74310
 Alpha  occ. eigenvalues --   -0.73888  -0.72807  -0.72236  -0.71173  -0.70734
 Alpha  occ. eigenvalues --   -0.69941  -0.69724  -0.69293  -0.68225  -0.68070
 Alpha  occ. eigenvalues --   -0.67476  -0.67296  -0.67132  -0.66842  -0.66432
 Alpha  occ. eigenvalues --   -0.65540  -0.64905  -0.64475  -0.63455  -0.63091
 Alpha  occ. eigenvalues --   -0.61740  -0.61621  -0.60933  -0.60879  -0.60705
 Alpha  occ. eigenvalues --   -0.60298  -0.58979  -0.58778  -0.58518  -0.58361
 Alpha  occ. eigenvalues --   -0.57454  -0.57326  -0.57253  -0.56910  -0.56622
 Alpha  occ. eigenvalues --   -0.56292  -0.56001  -0.55738  -0.55470  -0.55188
 Alpha  occ. eigenvalues --   -0.54839  -0.54755  -0.54271  -0.53793  -0.53323
 Alpha  occ. eigenvalues --   -0.53191  -0.53080  -0.52634  -0.52232  -0.51932
 Alpha  occ. eigenvalues --   -0.51752  -0.51245  -0.51071  -0.50848  -0.50611
 Alpha  occ. eigenvalues --   -0.50151  -0.49949  -0.49337  -0.49198  -0.48859
 Alpha  occ. eigenvalues --   -0.48510  -0.48432  -0.48209  -0.47904  -0.47563
 Alpha  occ. eigenvalues --   -0.47553  -0.47201  -0.47034  -0.46845  -0.46453
 Alpha  occ. eigenvalues --   -0.46225  -0.46120  -0.45902  -0.45835  -0.45367
 Alpha  occ. eigenvalues --   -0.45228  -0.45130  -0.45068  -0.44747  -0.44293
 Alpha  occ. eigenvalues --   -0.43337  -0.43187  -0.42964  -0.42807  -0.41859
 Alpha  occ. eigenvalues --   -0.41809  -0.41723  -0.41326  -0.41239  -0.41113
 Alpha  occ. eigenvalues --   -0.41074  -0.40741  -0.40671  -0.40533  -0.39990
 Alpha  occ. eigenvalues --   -0.39820  -0.39204  -0.38197  -0.37845  -0.37462
 Alpha  occ. eigenvalues --   -0.37237  -0.37181  -0.36520  -0.36324  -0.36186
 Alpha  occ. eigenvalues --   -0.35959  -0.35508  -0.35349  -0.34813  -0.34625
 Alpha  occ. eigenvalues --   -0.34568  -0.34336  -0.33580  -0.32869  -0.32535
 Alpha  occ. eigenvalues --   -0.32259  -0.30105  -0.28567  -0.27915  -0.27109
 Alpha  occ. eigenvalues --   -0.20669  -0.20482  -0.18549
 Alpha virt. eigenvalues --   -0.13759  -0.12535  -0.09455  -0.09304  -0.08990
 Alpha virt. eigenvalues --   -0.08415  -0.07614  -0.06745  -0.05919  -0.05623
 Alpha virt. eigenvalues --   -0.05158  -0.05137  -0.02893  -0.02697  -0.02192

 Mulliken charges:
               1
     1  N   -0.758340
     2  H    0.419709
     3  H    0.416735
     4  H    0.438280
     5  C   -0.106550
     6  H    0.227786
     7  C    0.656019
     8  C   -0.485098
     9  H    0.221795
    10  H    0.199235
    11  H    0.197801
    12  O   -0.539789
    13  N   -0.614642
    14  H    0.377228
    15  C   -0.060545
    16  H    0.208833
    17  C    0.624039
    18  C   -0.359062
    19  H    0.180584
    20  H    0.174912
    21  O   -0.545833
    22  C   -0.000358
    23  C   -0.019196
    24  H    0.210412
    25  C    0.092240
    26  C    0.309228
    27  C   -0.225025
    28  H    0.136470
    29  N   -0.685401
    30  H    0.341154
    31  C   -0.147977
    32  H    0.143211
    33  C   -0.159002
    34  H    0.140073
    35  C   -0.138595
    36  H    0.132837
    37  N   -0.608427
    38  H    0.364156
    39  C   -0.059185
    40  H    0.176448
    41  C    0.618251
    42  C   -0.291110
    43  H    0.190315
    44  H    0.169635
    45  O   -0.534918
    46  C   -0.377684
    47  H    0.189071
    48  H    0.195697
    49  C    0.597997
    50  O   -0.475537
    51  O   -0.542680
    52  N   -0.591851
    53  H    0.351443
    54  C   -0.045439
    55  H    0.173553
    56  C    0.622445
    57  C   -0.080496
    58  H    0.153141
    59  O   -0.553696
    60  C   -0.466265
    61  H    0.145309
    62  H    0.164582
    63  H    0.168502
    64  C   -0.452218
    65  H    0.151040
    66  H    0.148246
    67  H    0.154885
    68  N   -0.597535
    69  H    0.358265
    70  C   -0.086566
    71  H    0.176049
    72  C    0.673342
    73  C    0.124122
    74  H    0.146793
    75  O   -0.610749
    76  C   -0.498294
    77  H    0.154343
    78  H    0.173040
    79  H    0.163070
    80  O   -0.676764
    81  H    0.435642
    82  N   -0.589246
    83  H    0.377724
    84  C   -0.028632
    85  H    0.160888
    86  C    0.598827
    87  C   -0.116547
    88  H    0.140838
    89  O   -0.573932
    90  C   -0.469361
    91  H    0.144472
    92  H    0.213615
    93  H    0.140359
    94  C   -0.466159
    95  H    0.141797
    96  H    0.151884
    97  H    0.150319
    98  N   -0.619040
    99  H    0.362598
   100  C   -0.072191
   101  H    0.151371
   102  C    0.582147
   103  C   -0.287781
   104  H    0.195515
   105  H    0.118252
   106  O   -0.568886
   107  C   -0.264976
   108  H    0.147223
   109  H    0.157144
   110  C   -0.279709
   111  H    0.143849
   112  H    0.129948
   113  C   -0.223037
   114  H    0.232934
   115  H    0.236693
   116  N   -0.763855
   117  H    0.450662
   118  H    0.394628
   119  H    0.386915
   120  O   -0.609502
   121  H    0.429117
 Sum of Mulliken charges =   1.00000

 Dipole moment (field-independent basis, Debye):
    X=            -39.9182    Y=            -13.6826    Z=            -21.8815  Tot=             47.5339
 Quadrupole moment (field-independent basis, Debye-Ang):
   XX=           -356.4652   YY=            -61.1978   ZZ=           -340.7178
   XY=            167.9578   XZ=            -49.0909   YZ=             10.8854

 Normal termination of Gaussian 16 at Thu Jun 30 12:42:40 2022.
