 Gaussian 16, Revision C.01,
 Gaussian 16:  ES64L-G16RevC.01  3-Jul-2019

 -------------------------------------------------------------------
 # B3LYP/6-31G* guess=read geom=check nosymm integral(ultrafinegrid)
 -------------------------------------------------------------------

 ------------------------------------------------------
 Candidate Structure: Conf:879 Charge calc in gas phase
 ------------------------------------------------------
 Structure from the checkpoint file:  "conf-879.chk"
 Charge =  1 Multiplicity = 1

                          Input orientation:
 ---------------------------------------------------------------------
 Center     Atomic      Atomic             Coordinates (Angstroms)
 Number     Number       Type             X           Y           Z
 ---------------------------------------------------------------------
      1          7           0       -5.574341   -1.767857   -7.594109
      2          1           0       -5.932004   -0.859881   -7.245455
      3          1           0       -6.176502   -2.145204   -8.330278
      4          1           0       -4.625630   -1.544482   -8.000103
      5          6           0       -5.489538   -2.667991   -6.383590
      6          1           0       -6.512447   -3.002227   -6.177458
      7          6           0       -5.057447   -1.694019   -5.254920
      8          6           0       -4.577792   -3.862658   -6.650295
      9          1           0       -4.621861   -4.566587   -5.814019
     10          1           0       -4.904800   -4.413453   -7.538127
     11          1           0       -3.536832   -3.555610   -6.791086
     12          8           0       -5.236169   -0.486376   -5.442280
     13          7           0       -4.525411   -2.215584   -4.136449
     14          1           0       -4.234628   -3.185796   -4.131189
     15          6           0       -3.842468   -1.338838   -3.162477
     16          1           0       -4.435147   -0.425549   -3.087242
     17          6           0       -2.444005   -1.068699   -3.751480
     18          6           0       -3.706239   -1.993148   -1.774376
     19          1           0       -4.702692   -2.274143   -1.415192
     20          1           0       -3.117007   -2.911922   -1.879091
     21          8           0       -1.663234   -1.999412   -3.927290
     22          6           0       -3.038256   -1.034833   -0.827811
     23          6           0       -1.681636   -0.828944   -0.698545
     24          1           0       -0.859808   -1.358359   -1.162245
     25          6           0       -3.681950   -0.059388    0.017264
     26          6           0       -2.647507    0.700579    0.631998
     27          6           0       -5.022042    0.246399    0.318940
     28          1           0       -5.836066   -0.323343   -0.123662
     29          7           0       -1.440343    0.204466    0.178878
     30          1           0       -0.528602    0.638837    0.302942
     31          6           0       -4.252808    2.022207    1.801142
     32          1           0       -4.498302    2.819350    2.496764
     33          6           0       -2.919748    1.741941    1.528191
     34          1           0       -2.117849    2.299145    2.004537
     35          6           0       -5.294194    1.281319    1.203177
     36          1           0       -6.324567    1.522628    1.447879
     37          7           0       -2.170596    0.220396   -4.099690
     38          1           0       -2.921791    0.898312   -4.053663
     39          6           0       -0.950451    0.585542   -4.813182
     40          1           0       -0.286262   -0.279914   -4.703051
     41          6           0       -0.205992    1.778863   -4.176137
     42          6           0       -1.215693    0.825489   -6.312451
     43          1           0       -2.021551    1.563184   -6.419704
     44          1           0       -0.321118    1.262106   -6.760744
     45          8           0        0.633365    2.396643   -4.821961
     46          6           0       -1.599273   -0.493928   -7.015282
     47          1           0       -0.706274   -1.124319   -7.119072
     48          1           0       -2.320349   -1.055049   -6.419455
     49          6           0       -2.197419   -0.327283   -8.387505
     50          8           0       -3.257244   -0.825009   -8.765595
     51          8           0       -1.449963    0.413912   -9.201351
     52          7           0       -0.521734    2.055472   -2.880409
     53          1           0       -1.105593    1.403042   -2.368912
     54          6           0        0.213740    3.062050   -2.111602
     55          1           0        0.650752    3.736939   -2.853057
     56          6           0        1.338155    2.334666   -1.352369
     57          6           0       -0.705051    3.865489   -1.166190
     58          1           0       -1.158904    3.155851   -0.462195
     59          8           0        1.102399    1.587325   -0.387076
     60          6           0        0.115930    4.883826   -0.359371
     61          1           0        0.608129    5.608171   -1.020764
     62          1           0       -0.536877    5.446189    0.315858
     63          1           0        0.886140    4.401330    0.251778
     64          6           0       -1.827290    4.564591   -1.945357
     65          1           0       -1.420042    5.296271   -2.654359
     66          1           0       -2.438201    3.852780   -2.509498
     67          1           0       -2.488907    5.099467   -1.256286
     68          7           0        2.581948    2.524647   -1.827072
     69          1           0        2.753576    3.158150   -2.601197
     70          6           0        3.753749    1.793885   -1.348027
     71          1           0        3.425884    0.792066   -1.049631
     72          6           0        4.362743    2.484645   -0.104688
     73          6           0        4.783028    1.708542   -2.494745
     74          1           0        5.691396    1.250102   -2.080334
     75          8           0        5.465128    3.066688   -0.167926
     76          6           0        4.294920    0.882067   -3.677879
     77          1           0        4.101735   -0.152623   -3.373809
     78          1           0        3.378792    1.299525   -4.109136
     79          1           0        5.063562    0.877860   -4.455727
     80          8           0        5.059967    3.025879   -2.963073
     81          1           0        5.488778    3.471073   -2.208208
     82          7           0        3.610767    2.418261    0.998928
     83          1           0        2.748931    1.882149    0.933303
     84          6           0        4.051511    2.874161    2.317356
     85          1           0        4.408700    3.904980    2.213577
     86          6           0        5.221125    1.970100    2.783387
     87          6           0        2.839523    2.870104    3.296115
     88          1           0        2.016551    3.324637    2.722594
     89          8           0        5.266042    0.795717    2.439366
     90          6           0        2.405737    1.453702    3.709174
     91          1           0        3.158687    0.975989    4.343621
     92          1           0        2.237582    0.791584    2.851519
     93          1           0        1.472389    1.506772    4.279645
     94          6           0        3.091665    3.758906    4.523714
     95          1           0        3.934099    3.419756    5.136322
     96          1           0        2.199147    3.770566    5.158887
     97          1           0        3.298299    4.794555    4.227344
     98          7           0        6.191041    2.607115    3.526452
     99          1           0        5.890896    3.401070    4.180906
    100          6           0        7.066334    1.836997    4.450584
    101          1           0        6.651280    0.831667    4.570963
    102          6           0        6.990362    2.626860    5.821248
    103          6           0        8.520195    1.737525    3.967155
    104          1           0        9.055015    1.145327    4.713573
    105          1           0        8.973178    2.737171    4.031192
    106          8           0        6.228270    3.650548    5.767166
    107          6           0        8.677103    1.141252    2.543862
    108          1           0        9.158517    0.158244    2.596892
    109          1           0        7.685609    0.944842    2.120071
    110          6           0        9.493932    1.988764    1.543782
    111          1           0       10.563613    1.938211    1.784175
    112          1           0        9.387626    1.561134    0.537941
    113          6           0        9.159100    3.483161    1.493442
    114          1           0        9.608943    3.959858    0.618125
    115          1           0        9.519402    4.002062    2.383983
    116          7           0        7.678114    3.750271    1.444707
    117          1           0        7.487636    4.755356    1.414168
    118          1           0        7.173892    3.333941    0.644105
    119          1           0        7.163764    3.357026    2.306679
    120          8           0        7.683567    2.186237    6.740013
    121          1           0       -1.892924    0.466068  -10.071152
 ---------------------------------------------------------------------

 SCF Done:  E(RB3LYP) =  -2843.63839879     A.U. after    3 cycles

 Alpha  occ. eigenvalues --  -19.33029 -19.28656 -19.27575 -19.23142 -19.22006
 Alpha  occ. eigenvalues --  -19.21712 -19.21633 -19.21341 -19.17406 -19.08668
 Alpha  occ. eigenvalues --  -19.07017 -14.59228 -14.51025 -14.50707 -14.48177
 Alpha  occ. eigenvalues --  -14.46027 -14.46018 -14.44556 -14.44173 -14.38875
 Alpha  occ. eigenvalues --  -10.46332 -10.44747 -10.41798 -10.40420 -10.38894
 Alpha  occ. eigenvalues --  -10.38681 -10.37966 -10.35377 -10.34580 -10.34491
 Alpha  occ. eigenvalues --  -10.33920 -10.32396 -10.32364 -10.32195 -10.31914
 Alpha  occ. eigenvalues --  -10.31883 -10.30777 -10.29826 -10.29602 -10.29424
 Alpha  occ. eigenvalues --  -10.28874 -10.27951 -10.26328 -10.26200 -10.26006
 Alpha  occ. eigenvalues --  -10.25830 -10.25738 -10.25702 -10.25635 -10.25429
 Alpha  occ. eigenvalues --  -10.25379 -10.25151 -10.24899 -10.24862 -10.23281
 Alpha  occ. eigenvalues --  -10.23219 -10.22659 -10.21635 -10.21328  -1.24499
 Alpha  occ. eigenvalues --   -1.19949  -1.15400  -1.15282  -1.13827  -1.13669
 Alpha  occ. eigenvalues --   -1.13155  -1.12546  -1.09325  -1.08770  -1.07166
 Alpha  occ. eigenvalues --   -1.05928  -1.04914  -1.04615  -1.02273  -1.01851
 Alpha  occ. eigenvalues --   -1.01450  -1.00492  -0.95435  -0.94115  -0.92361
 Alpha  occ. eigenvalues --   -0.92191  -0.90881  -0.90029  -0.89334  -0.87015
 Alpha  occ. eigenvalues --   -0.86258  -0.85949  -0.85309  -0.84397  -0.81973
 Alpha  occ. eigenvalues --   -0.80931  -0.80339  -0.80246  -0.79243  -0.79149
 Alpha  occ. eigenvalues --   -0.77103  -0.76439  -0.76299  -0.75576  -0.74461
 Alpha  occ. eigenvalues --   -0.74245  -0.73732  -0.73148  -0.72750  -0.71364
 Alpha  occ. eigenvalues --   -0.70462  -0.70015  -0.69271  -0.69074  -0.68258
 Alpha  occ. eigenvalues --   -0.67480  -0.67224  -0.66494  -0.66176  -0.66040
 Alpha  occ. eigenvalues --   -0.65162  -0.64898  -0.64287  -0.63984  -0.63403
 Alpha  occ. eigenvalues --   -0.63022  -0.62659  -0.62403  -0.61646  -0.61517
 Alpha  occ. eigenvalues --   -0.61157  -0.60626  -0.60034  -0.59690  -0.59387
 Alpha  occ. eigenvalues --   -0.58903  -0.58667  -0.58477  -0.58281  -0.57310
 Alpha  occ. eigenvalues --   -0.57009  -0.56383  -0.55870  -0.55632  -0.55467
 Alpha  occ. eigenvalues --   -0.55062  -0.54967  -0.54814  -0.54193  -0.53644
 Alpha  occ. eigenvalues --   -0.53528  -0.53154  -0.53017  -0.52864  -0.52525
 Alpha  occ. eigenvalues --   -0.52114  -0.51941  -0.51888  -0.51584  -0.51294
 Alpha  occ. eigenvalues --   -0.51049  -0.50563  -0.50109  -0.50029  -0.49848
 Alpha  occ. eigenvalues --   -0.49253  -0.49012  -0.48919  -0.48709  -0.48551
 Alpha  occ. eigenvalues --   -0.48386  -0.48041  -0.47914  -0.47779  -0.47628
 Alpha  occ. eigenvalues --   -0.47340  -0.47123  -0.46988  -0.46373  -0.46174
 Alpha  occ. eigenvalues --   -0.46076  -0.45835  -0.45741  -0.45529  -0.45269
 Alpha  occ. eigenvalues --   -0.45148  -0.44488  -0.44175  -0.43768  -0.43159
 Alpha  occ. eigenvalues --   -0.42528  -0.42394  -0.42324  -0.42128  -0.42091
 Alpha  occ. eigenvalues --   -0.41950  -0.41869  -0.41387  -0.41221  -0.41119
 Alpha  occ. eigenvalues --   -0.40871  -0.40511  -0.40092  -0.39540  -0.39239
 Alpha  occ. eigenvalues --   -0.38733  -0.38636  -0.38419  -0.38003  -0.37768
 Alpha  occ. eigenvalues --   -0.37364  -0.37131  -0.36693  -0.36388  -0.35468
 Alpha  occ. eigenvalues --   -0.35113  -0.34835  -0.34643  -0.34504  -0.33998
 Alpha  occ. eigenvalues --   -0.33247  -0.31763  -0.30380  -0.29299  -0.27643
 Alpha  occ. eigenvalues --   -0.23687  -0.23447  -0.21029
 Alpha virt. eigenvalues --   -0.14227  -0.13131  -0.09945  -0.09324  -0.08935
 Alpha virt. eigenvalues --   -0.08291  -0.07688  -0.06362  -0.05784  -0.04847
 Alpha virt. eigenvalues --   -0.04659  -0.04298  -0.04020  -0.03185  -0.02862

 Mulliken charges:
               1
     1  N   -0.764608
     2  H    0.420213
     3  H    0.405965
     4  H    0.446928
     5  C   -0.124331
     6  H    0.232911
     7  C    0.659730
     8  C   -0.485631
     9  H    0.202275
    10  H    0.196406
    11  H    0.203169
    12  O   -0.536618
    13  N   -0.598574
    14  H    0.358982
    15  C   -0.057241
    16  H    0.188899
    17  C    0.637079
    18  C   -0.372871
    19  H    0.171956
    20  H    0.174516
    21  O   -0.538108
    22  C    0.033512
    23  C   -0.027738
    24  H    0.170536
    25  C    0.081196
    26  C    0.297541
    27  C   -0.212808
    28  H    0.118685
    29  N   -0.697581
    30  H    0.379504
    31  C   -0.151164
    32  H    0.141099
    33  C   -0.167033
    34  H    0.141260
    35  C   -0.137845
    36  H    0.135634
    37  N   -0.624460
    38  H    0.350748
    39  C   -0.079529
    40  H    0.218913
    41  C    0.621094
    42  C   -0.270053
    43  H    0.155162
    44  H    0.218130
    45  O   -0.519910
    46  C   -0.359082
    47  H    0.211008
    48  H    0.161874
    49  C    0.604288
    50  O   -0.524123
    51  O   -0.514233
    52  N   -0.624768
    53  H    0.363460
    54  C   -0.041303
    55  H    0.178517
    56  C    0.646321
    57  C   -0.099902
    58  H    0.148701
    59  O   -0.581954
    60  C   -0.471344
    61  H    0.150868
    62  H    0.167318
    63  H    0.161300
    64  C   -0.442802
    65  H    0.152579
    66  H    0.134253
    67  H    0.165233
    68  N   -0.588049
    69  H    0.367450
    70  C   -0.089297
    71  H    0.191853
    72  C    0.669461
    73  C    0.107785
    74  H    0.147471
    75  O   -0.610855
    76  C   -0.463119
    77  H    0.147654
    78  H    0.164673
    79  H    0.175903
    80  O   -0.642090
    81  H    0.410656
    82  N   -0.607199
    83  H    0.383054
    84  C   -0.025895
    85  H    0.145895
    86  C    0.614185
    87  C   -0.120691
    88  H    0.131747
    89  O   -0.512343
    90  C   -0.457220
    91  H    0.182135
    92  H    0.140640
    93  H    0.152988
    94  C   -0.474730
    95  H    0.215697
    96  H    0.149976
    97  H    0.138651
    98  N   -0.721949
    99  H    0.380005
   100  C   -0.071237
   101  H    0.167790
   102  C    0.592285
   103  C   -0.293206
   104  H    0.191633
   105  H    0.125758
   106  O   -0.619215
   107  C   -0.303378
   108  H    0.161070
   109  H    0.168023
   110  C   -0.281652
   111  H    0.174090
   112  H    0.149641
   113  C   -0.184368
   114  H    0.185198
   115  H    0.206467
   116  N   -0.793045
   117  H    0.384824
   118  H    0.422018
   119  H    0.449270
   120  O   -0.553622
   121  H    0.435064
 Sum of Mulliken charges =   1.00000

 Dipole moment (field-independent basis, Debye):
    X=            -18.8331    Y=             -3.0983    Z=            -41.5516  Tot=             45.7255
 Quadrupole moment (field-independent basis, Debye-Ang):
   XX=           -195.6951   YY=           -293.0254   ZZ=           -220.1952
   XY=             69.3391   XZ=             60.7809   YZ=             32.8174

 Normal termination of Gaussian 16 at Thu Jun 30 12:43:16 2022.
