 Gaussian 16, Revision C.01,
 Gaussian 16:  ES64L-G16RevC.01  3-Jul-2019

 -------------------------------------------------------------------
 # B3LYP/6-31G* guess=read geom=check nosymm integral(ultrafinegrid)
 -------------------------------------------------------------------

 ------------------------------------------------------
 Candidate Structure: Conf:123 Charge calc in gas phase
 ------------------------------------------------------
 Structure from the checkpoint file:  "conf-123.chk"
 Charge =  1 Multiplicity = 1

                          Input orientation:
 ---------------------------------------------------------------------
 Center     Atomic      Atomic             Coordinates (Angstroms)
 Number     Number       Type             X           Y           Z
 ---------------------------------------------------------------------
      1          7           0       -5.551051   -1.863688   -9.487542
      2          1           0       -6.357591   -2.480994   -9.612191
      3          1           0       -5.134580   -1.679575  -10.404270
      4          1           0       -5.868891   -0.949534   -9.014498
      5          6           0       -4.552079   -2.372524   -8.465210
      6          1           0       -4.853036   -3.381864   -8.175196
      7          6           0       -4.761381   -1.375706   -7.284738
      8          6           0       -3.131457   -2.357237   -9.029002
      9          1           0       -2.422162   -2.680233   -8.261832
     10          1           0       -3.033990   -3.041555   -9.878081
     11          1           0       -2.842118   -1.347538   -9.340651
     12          8           0       -5.492316   -0.396592   -7.500320
     13          7           0       -4.128290   -1.658081   -6.155701
     14          1           0       -3.409570   -2.383078   -6.107933
     15          6           0       -4.100110   -0.800428   -4.972627
     16          1           0       -4.335102    0.221076   -5.282883
     17          6           0       -2.652843   -0.921059   -4.446364
     18          6           0       -5.106853   -1.276455   -3.883072
     19          1           0       -4.770836   -2.256664   -3.523388
     20          1           0       -5.009580   -0.585862   -3.035043
     21          8           0       -1.956651   -1.880216   -4.799063
     22          6           0       -6.534187   -1.361717   -4.330429
     23          6           0       -7.253605   -2.519568   -4.502225
     24          1           0       -6.951766   -3.546308   -4.340993
     25          6           0       -7.434142   -0.271492   -4.630749
     26          6           0       -8.684603   -0.847918   -4.980671
     27          6           0       -7.314082    1.129557   -4.622505
     28          1           0       -6.376270    1.607275   -4.349835
     29          7           0       -8.537249   -2.222903   -4.916371
     30          1           0       -9.296348   -2.886311   -4.956083
     31          6           0       -9.649605    1.307942   -5.294487
     32          1           0      -10.497686    1.940132   -5.540850
     33          6           0       -9.800397   -0.073455   -5.314485
     34          1           0      -10.752146   -0.531748   -5.569942
     35          6           0       -8.418526    1.903891   -4.951860
     36          1           0       -8.338093    2.986909   -4.940444
     37          7           0       -2.261218    0.024300   -3.581325
     38          1           0       -2.854958    0.808983   -3.320287
     39          6           0       -0.969578    0.025195   -2.902186
     40          1           0       -0.723209   -1.003383   -2.616743
     41          6           0       -1.174524    0.925819   -1.666806
     42          6           0        0.135604    0.589226   -3.833499
     43          1           0        0.048427    0.073039   -4.793743
     44          1           0       -0.075987    1.651473   -4.006878
     45          8           0       -2.009053    1.830850   -1.709393
     46          6           0        1.570114    0.408596   -3.298102
     47          1           0        1.705017    0.834471   -2.302957
     48          1           0        1.808292   -0.661755   -3.246109
     49          6           0        2.593251    1.079140   -4.191256
     50          8           0        3.314018    1.998086   -3.872845
     51          8           0        2.613742    0.534036   -5.434158
     52          7           0       -0.386752    0.662301   -0.602378
     53          1           0        0.344656   -0.037455   -0.679062
     54          6           0       -0.174273    1.606454    0.500077
     55          1           0       -0.766204    2.498241    0.274281
     56          6           0        1.336652    1.903484    0.451403
     57          6           0       -0.614805    1.015731    1.863076
     58          1           0       -0.006377    0.115501    2.028645
     59          8           0        2.130378    0.966411    0.293577
     60          6           0       -0.336363    2.002893    3.005956
     61          1           0       -0.887832    2.941462    2.862657
     62          1           0       -0.659208    1.576577    3.961373
     63          1           0        0.727518    2.243028    3.095812
     64          6           0       -2.095370    0.613660    1.833514
     65          1           0       -2.737782    1.485802    1.660742
     66          1           0       -2.300664   -0.117653    1.045714
     67          1           0       -2.385432    0.167657    2.791034
     68          7           0        1.724423    3.190203    0.520597
     69          1           0        1.065021    3.944399    0.680737
     70          6           0        3.105456    3.608932    0.281268
     71          1           0        3.554400    2.873361   -0.393842
     72          6           0        3.905887    3.641127    1.604625
     73          6           0        3.087983    5.008503   -0.370617
     74          1           0        4.132885    5.342143   -0.442602
     75          8           0        4.167032    4.708366    2.172023
     76          6           0        2.460584    5.013580   -1.758611
     77          1           0        2.971282    4.312363   -2.426904
     78          1           0        1.401976    4.735391   -1.709913
     79          1           0        2.521968    6.020383   -2.182026
     80          8           0        2.341993    5.893673    0.459712
     81          1           0        2.863200    5.938643    1.287379
     82          7           0        4.275066    2.430325    2.071419
     83          1           0        4.039994    1.592840    1.542486
     84          6           0        5.124666    2.234747    3.244353
     85          1           0        5.623843    3.188922    3.442233
     86          6           0        6.134844    1.145258    2.847135
     87          6           0        4.311115    1.812097    4.501060
     88          1           0        3.751719    0.910405    4.215091
     89          8           0        5.757530    0.134968    2.254015
     90          6           0        5.226888    1.454707    5.682312
     91          1           0        5.863434    2.303744    5.963855
     92          1           0        5.877103    0.602522    5.462734
     93          1           0        4.624038    1.194355    6.559129
     94          6           0        3.316873    2.907781    4.909249
     95          1           0        3.841341    3.816716    5.226531
     96          1           0        2.698658    2.565279    5.747009
     97          1           0        2.650124    3.184918    4.087892
     98          7           0        7.422427    1.371175    3.195491
     99          1           0        7.698816    2.218230    3.678989
    100          6           0        8.486751    0.406113    2.969875
    101          1           0        8.089583   -0.600670    3.118969
    102          6           0        9.597698    0.670989    3.973607
    103          6           0        9.062274    0.514403    1.518208
    104          1           0        9.076506    1.578084    1.249682
    105          1           0        8.328133    0.034977    0.863076
    106          8           0       10.311987   -0.422103    4.217280
    107          6           0       10.467765   -0.091184    1.296477
    108          1           0       10.573414   -0.996427    1.902028
    109          1           0       10.542856   -0.412678    0.250995
    110          6           0       11.633561    0.896840    1.591988
    111          1           0       11.948423    1.353508    0.646073
    112          1           0       11.278256    1.730551    2.210033
    113          6           0       12.883072    0.299299    2.271068
    114          1           0       13.780459    0.829082    1.921155
    115          1           0       13.004664   -0.752884    1.990065
    116          7           0       12.793648    0.355359    3.754317
    117          1           0       13.596479   -0.112825    4.172986
    118          1           0       12.831152    1.327666    4.061853
    119          1           0       11.299572   -0.156575    4.308496
    120          8           0        9.846403    1.789340    4.396971
    121          1           0        3.294172    1.024250   -5.934038
 ---------------------------------------------------------------------

 SCF Done:  E(RB3LYP) =  -2843.66313361     A.U. after    3 cycles

 Alpha  occ. eigenvalues --  -19.27133 -19.26007 -19.21906 -19.20348 -19.19913
 Alpha  occ. eigenvalues --  -19.19798 -19.18352 -19.17832 -19.16885 -19.16642
 Alpha  occ. eigenvalues --  -19.15254 -14.60154 -14.49535 -14.45790 -14.45597
 Alpha  occ. eigenvalues --  -14.43883 -14.42840 -14.40382 -14.40011 -14.39379
 Alpha  occ. eigenvalues --  -10.43811 -10.41577 -10.38974 -10.38567 -10.36997
 Alpha  occ. eigenvalues --  -10.35398 -10.34711 -10.34502 -10.34228 -10.33584
 Alpha  occ. eigenvalues --  -10.32550 -10.32331 -10.30087 -10.29981 -10.29322
 Alpha  occ. eigenvalues --  -10.29302 -10.28339 -10.28196 -10.27631 -10.27206
 Alpha  occ. eigenvalues --  -10.27037 -10.26987 -10.26620 -10.26530 -10.26014
 Alpha  occ. eigenvalues --  -10.25906 -10.25778 -10.25653 -10.25408 -10.24990
 Alpha  occ. eigenvalues --  -10.23487 -10.23163 -10.23026 -10.22883 -10.22841
 Alpha  occ. eigenvalues --  -10.22377 -10.21629 -10.21247 -10.21014  -1.19635
 Alpha  occ. eigenvalues --   -1.16799  -1.14176  -1.13652  -1.12125  -1.11794
 Alpha  occ. eigenvalues --   -1.10229  -1.08475  -1.07752  -1.07194  -1.06307
 Alpha  occ. eigenvalues --   -1.05589  -1.05367  -1.03684  -1.02120  -1.00279
 Alpha  occ. eigenvalues --   -0.98757  -0.96688  -0.96371  -0.94821  -0.93768
 Alpha  occ. eigenvalues --   -0.91091  -0.89839  -0.88307  -0.86598  -0.85408
 Alpha  occ. eigenvalues --   -0.84814  -0.83680  -0.82219  -0.81977  -0.81385
 Alpha  occ. eigenvalues --   -0.80684  -0.79545  -0.79414  -0.77872  -0.76489
 Alpha  occ. eigenvalues --   -0.76262  -0.74499  -0.74358  -0.74000  -0.73306
 Alpha  occ. eigenvalues --   -0.72773  -0.72596  -0.71975  -0.70728  -0.69545
 Alpha  occ. eigenvalues --   -0.68414  -0.67310  -0.66945  -0.66813  -0.66616
 Alpha  occ. eigenvalues --   -0.66454  -0.65690  -0.64943  -0.64149  -0.63902
 Alpha  occ. eigenvalues --   -0.63871  -0.63377  -0.63174  -0.62913  -0.61607
 Alpha  occ. eigenvalues --   -0.61418  -0.61264  -0.60804  -0.59660  -0.58926
 Alpha  occ. eigenvalues --   -0.58121  -0.57431  -0.57091  -0.56426  -0.56080
 Alpha  occ. eigenvalues --   -0.55907  -0.55485  -0.55363  -0.55050  -0.54684
 Alpha  occ. eigenvalues --   -0.54560  -0.54483  -0.54316  -0.53921  -0.53307
 Alpha  occ. eigenvalues --   -0.53141  -0.52820  -0.52531  -0.52373  -0.52102
 Alpha  occ. eigenvalues --   -0.51951  -0.51596  -0.51290  -0.50752  -0.50570
 Alpha  occ. eigenvalues --   -0.50417  -0.50394  -0.49866  -0.49758  -0.49661
 Alpha  occ. eigenvalues --   -0.49428  -0.49353  -0.48722  -0.48668  -0.48471
 Alpha  occ. eigenvalues --   -0.48001  -0.47611  -0.47504  -0.47195  -0.46912
 Alpha  occ. eigenvalues --   -0.46596  -0.46221  -0.46046  -0.45551  -0.45429
 Alpha  occ. eigenvalues --   -0.45412  -0.45379  -0.45252  -0.44782  -0.44334
 Alpha  occ. eigenvalues --   -0.44217  -0.43725  -0.43538  -0.43205  -0.43127
 Alpha  occ. eigenvalues --   -0.42744  -0.42484  -0.42331  -0.42220  -0.41855
 Alpha  occ. eigenvalues --   -0.41799  -0.41647  -0.41096  -0.40864  -0.40743
 Alpha  occ. eigenvalues --   -0.40565  -0.40476  -0.40130  -0.39877  -0.39677
 Alpha  occ. eigenvalues --   -0.39451  -0.39049  -0.38323  -0.38145  -0.37682
 Alpha  occ. eigenvalues --   -0.37563  -0.37399  -0.37234  -0.37076  -0.36756
 Alpha  occ. eigenvalues --   -0.36420  -0.35510  -0.34576  -0.34426  -0.33973
 Alpha  occ. eigenvalues --   -0.33458  -0.33401  -0.33142  -0.31769  -0.31622
 Alpha  occ. eigenvalues --   -0.31300  -0.30819  -0.30328  -0.29588  -0.29217
 Alpha  occ. eigenvalues --   -0.28853  -0.28379  -0.28020
 Alpha virt. eigenvalues --   -0.12347  -0.11513  -0.08607  -0.07775  -0.06608
 Alpha virt. eigenvalues --   -0.06160  -0.05445  -0.04831  -0.04538  -0.04294
 Alpha virt. eigenvalues --   -0.03056  -0.02711  -0.02273  -0.01440  -0.01080

 Mulliken charges:
               1
     1  N   -0.759138
     2  H    0.416359
     3  H    0.413185
     4  H    0.440007
     5  C   -0.105386
     6  H    0.222574
     7  C    0.656591
     8  C   -0.485531
     9  H    0.222555
    10  H    0.195438
    11  H    0.196486
    12  O   -0.529323
    13  N   -0.589698
    14  H    0.368783
    15  C   -0.082634
    16  H    0.198847
    17  C    0.642121
    18  C   -0.363942
    19  H    0.162654
    20  H    0.178810
    21  O   -0.554157
    22  C    0.077439
    23  C   -0.021398
    24  H    0.152769
    25  C    0.099532
    26  C    0.299504
    27  C   -0.204488
    28  H    0.119978
    29  N   -0.688832
    30  H    0.336459
    31  C   -0.150264
    32  H    0.141392
    33  C   -0.165411
    34  H    0.134188
    35  C   -0.138831
    36  H    0.138043
    37  N   -0.621108
    38  H    0.364013
    39  C   -0.045949
    40  H    0.178256
    41  C    0.614180
    42  C   -0.276453
    43  H    0.185199
    44  H    0.167591
    45  O   -0.535264
    46  C   -0.369659
    47  H    0.198850
    48  H    0.180239
    49  C    0.569151
    50  O   -0.447387
    51  O   -0.562280
    52  N   -0.604081
    53  H    0.354377
    54  C   -0.056050
    55  H    0.177759
    56  C    0.635589
    57  C   -0.076965
    58  H    0.147539
    59  O   -0.562547
    60  C   -0.477445
    61  H    0.147186
    62  H    0.162438
    63  H    0.170957
    64  C   -0.446126
    65  H    0.153942
    66  H    0.145434
    67  H    0.155288
    68  N   -0.594057
    69  H    0.353311
    70  C   -0.084590
    71  H    0.189566
    72  C    0.637436
    73  C    0.113181
    74  H    0.144844
    75  O   -0.553224
    76  C   -0.464838
    77  H    0.172795
    78  H    0.137238
    79  H    0.165297
    80  O   -0.653584
    81  H    0.421432
    82  N   -0.617235
    83  H    0.373302
    84  C   -0.046109
    85  H    0.167379
    86  C    0.617682
    87  C   -0.069111
    88  H    0.141758
    89  O   -0.546814
    90  C   -0.463299
    91  H    0.146021
    92  H    0.160940
    93  H    0.152673
    94  C   -0.454743
    95  H    0.156601
    96  H    0.143489
    97  H    0.156425
    98  N   -0.614816
    99  H    0.349070
   100  C   -0.005323
   101  H    0.186956
   102  C    0.572048
   103  C   -0.280666
   104  H    0.147006
   105  H    0.170401
   106  O   -0.602292
   107  C   -0.283466
   108  H    0.168440
   109  H    0.140969
   110  C   -0.289147
   111  H    0.147294
   112  H    0.162873
   113  C   -0.141839
   114  H    0.144213
   115  H    0.160939
   116  N   -0.773321
   117  H    0.329849
   118  H    0.338476
   119  H    0.454917
   120  O   -0.502983
   121  H    0.415282
 Sum of Mulliken charges =   1.00000

 Dipole moment (field-independent basis, Debye):
    X=            -14.0670    Y=            -10.8332    Z=            -34.6394  Tot=             38.9246
 Quadrupole moment (field-independent basis, Debye-Ang):
   XX=            -64.9827   YY=           -336.6513   ZZ=             -5.4391
   XY=             63.8990   XZ=            202.6133   YZ=             84.0839

 Normal termination of Gaussian 16 at Thu Jun 30 12:42:31 2022.
