 Gaussian 16, Revision C.01,
 Gaussian 16:  ES64L-G16RevC.01  3-Jul-2019

 -------------------------------------------------------------------
 # B3LYP/6-31G* guess=read geom=check nosymm integral(ultrafinegrid)
 -------------------------------------------------------------------

 ------------------------------------------------------
 Candidate Structure: Conf:448 Charge calc in gas phase
 ------------------------------------------------------
 Structure from the checkpoint file:  "conf-448.chk"
 Charge =  1 Multiplicity = 1

                          Input orientation:
 ---------------------------------------------------------------------
 Center     Atomic      Atomic             Coordinates (Angstroms)
 Number     Number       Type             X           Y           Z
 ---------------------------------------------------------------------
      1          7           0       -4.106359   -2.392450   -7.228775
      2          1           0       -4.037540   -2.767430   -8.177778
      3          1           0       -3.380405   -2.849455   -6.603540
      4          1           0       -3.884077   -1.384096   -7.204164
      5          6           0       -5.493238   -2.533105   -6.640495
      6          1           0       -6.188819   -2.142927   -7.391767
      7          6           0       -5.434440   -1.563919   -5.432340
      8          6           0       -5.791785   -3.992292   -6.311013
      9          1           0       -6.836653   -4.101714   -6.003612
     10          1           0       -5.652631   -4.629440   -7.190961
     11          1           0       -5.146768   -4.343305   -5.500387
     12          8           0       -4.596102   -0.655793   -5.465987
     13          7           0       -6.252396   -1.790532   -4.395834
     14          1           0       -6.881968   -2.583105   -4.426413
     15          6           0       -5.870326   -1.304640   -3.066296
     16          1           0       -5.847800   -0.211410   -3.089188
     17          6           0       -4.461637   -1.880623   -2.779496
     18          6           0       -6.877530   -1.801077   -1.992671
     19          1           0       -6.653781   -2.853326   -1.777435
     20          1           0       -6.670044   -1.246822   -1.070959
     21          8           0       -4.158861   -2.999290   -3.207789
     22          6           0       -8.317609   -1.666217   -2.394053
     23          6           0       -9.143275   -0.580003   -2.228660
     24          1           0       -8.951956    0.365787   -1.739581
     25          6           0       -9.089069   -2.660449   -3.101030
     26          6           0      -10.373902   -2.101079   -3.344334
     27          6           0       -8.824316   -3.971717   -3.544911
     28          1           0       -7.872984   -4.453555   -3.323866
     29          7           0      -10.372272   -0.833284   -2.799914
     30          1           0      -11.164071   -0.208761   -2.770708
     31          6           0      -11.081035   -4.087230   -4.460618
     32          1           0      -11.840877   -4.658410   -4.985503
     33          6           0      -11.377299   -2.801974   -4.021112
     34          1           0      -12.355253   -2.361851   -4.195279
     35          6           0       -9.818972   -4.669210   -4.222302
     36          1           0       -9.632703   -5.686979   -4.553428
     37          7           0       -3.616064   -1.115376   -2.068780
     38          1           0       -3.886323   -0.230008   -1.646798
     39          6           0       -2.295095   -1.588565   -1.680899
     40          1           0       -2.349410   -2.671586   -1.539082
     41          6           0       -1.957687   -0.875140   -0.354759
     42          6           0       -1.205661   -1.259520   -2.736091
     43          1           0       -1.031935   -0.176857   -2.722099
     44          1           0       -0.269316   -1.736074   -2.427426
     45          8           0       -2.546339    0.162018   -0.046780
     46          6           0       -1.536717   -1.638932   -4.188861
     47          1           0       -2.433108   -1.118688   -4.536166
     48          1           0       -0.713833   -1.289375   -4.829929
     49          6           0       -1.708775   -3.102522   -4.518894
     50          8           0       -2.261375   -3.532585   -5.530742
     51          8           0       -1.111691   -3.927627   -3.660010
     52          7           0       -0.989646   -1.457788    0.379406
     53          1           0       -0.470953   -2.252688    0.016982
     54          6           0       -0.370867   -0.848180    1.555448
     55          1           0       -0.636628    0.213715    1.554417
     56          6           0        1.144142   -1.048433    1.347979
     57          6           0       -0.861762   -1.500897    2.883735
     58          1           0       -0.496253   -2.537852    2.878819
     59          8           0        1.551388   -2.058483    0.772579
     60          6           0       -0.287245   -0.784115    4.116073
     61          1           0       -0.616546    0.262729    4.150496
     62          1           0       -0.648465   -1.267682    5.029775
     63          1           0        0.805471   -0.790556    4.152940
     64          6           0       -2.395684   -1.527102    2.952932
     65          1           0       -2.811083   -0.513874    2.906061
     66          1           0       -2.830640   -2.108463    2.134708
     67          1           0       -2.718439   -1.982941    3.895327
     68          7           0        1.956632   -0.059101    1.798773
     69          1           0        1.594231    0.611291    2.476718
     70          6           0        3.400027   -0.239058    1.930607
     71          1           0        3.621543   -1.312090    1.918151
     72          6           0        3.780257    0.375123    3.296916
     73          6           0        4.176259    0.453836    0.776899
     74          1           0        5.247312    0.353310    0.986661
     75          8           0        2.958558    1.033902    3.937441
     76          6           0        3.880268   -0.154263   -0.593691
     77          1           0        4.115682   -1.223038   -0.619409
     78          1           0        2.820558   -0.042534   -0.849545
     79          1           0        4.475964    0.361763   -1.352870
     80          8           0        3.938198    1.855399    0.794202
     81          1           0        2.987951    1.982905    0.634948
     82          7           0        5.037088    0.119427    3.713106
     83          1           0        5.706162   -0.329949    3.094686
     84          6           0        5.669223    0.781259    4.852150
     85          1           0        5.048845    1.643150    5.118906
     86          6           0        7.051949    1.221215    4.331735
     87          6           0        5.794096   -0.165122    6.082446
     88          1           0        6.450118   -0.991991    5.775059
     89          8           0        7.657060    0.511856    3.524046
     90          6           0        6.438137    0.544172    7.283872
     91          1           0        5.836535    1.405805    7.602904
     92          1           0        7.450400    0.899005    7.069799
     93          1           0        6.501044   -0.141806    8.135292
     94          6           0        4.427605   -0.746307    6.472468
     95          1           0        3.724766    0.047594    6.750524
     96          1           0        4.536908   -1.419403    7.330237
     97          1           0        3.981676   -1.317234    5.652968
     98          7           0        7.536347    2.386553    4.808517
     99          1           0        7.005446    2.951985    5.461820
    100          6           0        8.855472    2.900570    4.469837
    101          1           0        9.551992    2.063096    4.388969
    102          6           0        9.304750    3.833754    5.583443
    103          6           0        8.836072    3.680605    3.113300
    104          1           0        7.888472    4.231169    3.063744
    105          1           0        8.799346    2.922175    2.325087
    106          8           0       10.627736    3.913129    5.654432
    107          6           0       10.012115    4.655913    2.874923
    108          1           0       10.929231    4.228611    3.291632
    109          1           0       10.176866    4.737361    1.794192
    110          6           0        9.772686    6.084268    3.444997
    111          1           0        9.396310    6.721154    2.635632
    112          1           0        8.971086    6.066331    4.193693
    113          6           0       10.995688    6.784005    4.073077
    114          1           0       10.931930    7.866971    3.896208
    115          1           0       11.920199    6.437631    3.597773
    116          7           0       11.112744    6.503253    5.528991
    117          1           0       11.973292    6.906954    5.897167
    118          1           0       10.344219    6.954081    6.026414
    119          1           0       10.892416    4.884014    5.864078
    120          8           0        8.516178    4.498642    6.237961
    121          1           0       -1.266299   -4.842344   -3.966451
 ---------------------------------------------------------------------

 SCF Done:  E(RB3LYP) =  -2843.68258360     A.U. after    2 cycles

 Alpha  occ. eigenvalues --  -19.30559 -19.25648 -19.24753 -19.21148 -19.20130
 Alpha  occ. eigenvalues --  -19.19738 -19.19670 -19.18759 -19.17347 -19.17154
 Alpha  occ. eigenvalues --  -19.16124 -14.56688 -14.47692 -14.46099 -14.45388
 Alpha  occ. eigenvalues --  -14.43684 -14.42427 -14.41108 -14.40638 -14.39602
 Alpha  occ. eigenvalues --  -10.43777 -10.41759 -10.38945 -10.38318 -10.36961
 Alpha  occ. eigenvalues --  -10.35690 -10.34985 -10.34431 -10.33879 -10.33319
 Alpha  occ. eigenvalues --  -10.32296 -10.31263 -10.30234 -10.30101 -10.29915
 Alpha  occ. eigenvalues --  -10.29910 -10.29684 -10.29269 -10.28985 -10.28959
 Alpha  occ. eigenvalues --  -10.27876 -10.27395 -10.26910 -10.26785 -10.26776
 Alpha  occ. eigenvalues --  -10.26749 -10.26710 -10.26187 -10.26132 -10.25865
 Alpha  occ. eigenvalues --  -10.23948 -10.23057 -10.23050 -10.23046 -10.23002
 Alpha  occ. eigenvalues --  -10.22898 -10.22530 -10.21607 -10.21260  -1.21863
 Alpha  occ. eigenvalues --   -1.17192  -1.13232  -1.12571  -1.12373  -1.11685
 Alpha  occ. eigenvalues --   -1.10988  -1.10597  -1.09248  -1.07963  -1.07218
 Alpha  occ. eigenvalues --   -1.06020  -1.04455  -1.03952  -1.01712  -1.00209
 Alpha  occ. eigenvalues --   -0.98726  -0.97716  -0.96976  -0.95023  -0.91951
 Alpha  occ. eigenvalues --   -0.91421  -0.89891  -0.88913  -0.86980  -0.85369
 Alpha  occ. eigenvalues --   -0.85205  -0.83967  -0.82828  -0.82666  -0.81503
 Alpha  occ. eigenvalues --   -0.80140  -0.79709  -0.78934  -0.78415  -0.77034
 Alpha  occ. eigenvalues --   -0.76012  -0.74990  -0.74150  -0.73851  -0.73027
 Alpha  occ. eigenvalues --   -0.72283  -0.71857  -0.71397  -0.70431  -0.70101
 Alpha  occ. eigenvalues --   -0.68810  -0.68229  -0.67409  -0.67163  -0.67103
 Alpha  occ. eigenvalues --   -0.66344  -0.65560  -0.65332  -0.64532  -0.64128
 Alpha  occ. eigenvalues --   -0.63638  -0.63293  -0.63151  -0.62855  -0.62148
 Alpha  occ. eigenvalues --   -0.61776  -0.61413  -0.61014  -0.60061  -0.59401
 Alpha  occ. eigenvalues --   -0.59184  -0.58561  -0.57969  -0.57333  -0.56553
 Alpha  occ. eigenvalues --   -0.56110  -0.56032  -0.55760  -0.55411  -0.55185
 Alpha  occ. eigenvalues --   -0.54935  -0.54861  -0.53979  -0.53637  -0.53130
 Alpha  occ. eigenvalues --   -0.52701  -0.52511  -0.52325  -0.52143  -0.51935
 Alpha  occ. eigenvalues --   -0.51672  -0.51460  -0.51262  -0.51107  -0.50937
 Alpha  occ. eigenvalues --   -0.50799  -0.50677  -0.50452  -0.50030  -0.49908
 Alpha  occ. eigenvalues --   -0.49877  -0.49714  -0.49493  -0.49182  -0.49149
 Alpha  occ. eigenvalues --   -0.48735  -0.48353  -0.48060  -0.47829  -0.47445
 Alpha  occ. eigenvalues --   -0.47184  -0.47162  -0.46740  -0.46297  -0.46021
 Alpha  occ. eigenvalues --   -0.45824  -0.45703  -0.45578  -0.45411  -0.45174
 Alpha  occ. eigenvalues --   -0.44883  -0.44635  -0.44228  -0.43857  -0.43679
 Alpha  occ. eigenvalues --   -0.43643  -0.43397  -0.43258  -0.42870  -0.42598
 Alpha  occ. eigenvalues --   -0.42321  -0.42151  -0.41901  -0.41573  -0.41531
 Alpha  occ. eigenvalues --   -0.41287  -0.40812  -0.40328  -0.40112  -0.39613
 Alpha  occ. eigenvalues --   -0.39469  -0.39164  -0.38921  -0.38670  -0.38059
 Alpha  occ. eigenvalues --   -0.37985  -0.37870  -0.37868  -0.37547  -0.37329
 Alpha  occ. eigenvalues --   -0.37122  -0.35762  -0.35395  -0.34971  -0.34174
 Alpha  occ. eigenvalues --   -0.33694  -0.33658  -0.33102  -0.32390  -0.31878
 Alpha  occ. eigenvalues --   -0.31821  -0.31618  -0.31000  -0.30540  -0.30292
 Alpha  occ. eigenvalues --   -0.29562  -0.29152  -0.28433
 Alpha virt. eigenvalues --   -0.11733  -0.10086  -0.09442  -0.07493  -0.06862
 Alpha virt. eigenvalues --   -0.05883  -0.05664  -0.04599  -0.03401  -0.03039
 Alpha virt. eigenvalues --   -0.02677  -0.02325  -0.01982  -0.01532  -0.01022

 Mulliken charges:
               1
     1  N   -0.767302
     2  H    0.398064
     3  H    0.454396
     4  H    0.412309
     5  C   -0.121282
     6  H    0.221130
     7  C    0.667837
     8  C   -0.495267
     9  H    0.199162
    10  H    0.177773
    11  H    0.221789
    12  O   -0.540086
    13  N   -0.597357
    14  H    0.366443
    15  C   -0.026146
    16  H    0.182389
    17  C    0.630386
    18  C   -0.414247
    19  H    0.182456
    20  H    0.180334
    21  O   -0.566133
    22  C    0.073000
    23  C    0.009823
    24  H    0.167236
    25  C    0.067358
    26  C    0.318296
    27  C   -0.253260
    28  H    0.134542
    29  N   -0.686456
    30  H    0.343063
    31  C   -0.151951
    32  H    0.145507
    33  C   -0.155064
    34  H    0.145109
    35  C   -0.142448
    36  H    0.136734
    37  N   -0.606654
    38  H    0.361019
    39  C   -0.062014
    40  H    0.191251
    41  C    0.619573
    42  C   -0.268272
    43  H    0.168897
    44  H    0.179012
    45  O   -0.538898
    46  C   -0.403573
    47  H    0.211946
    48  H    0.195102
    49  C    0.671054
    50  O   -0.541777
    51  O   -0.536578
    52  N   -0.609055
    53  H    0.354734
    54  C   -0.055320
    55  H    0.175726
    56  C    0.612804
    57  C   -0.075504
    58  H    0.141789
    59  O   -0.542580
    60  C   -0.472585
    61  H    0.151156
    62  H    0.159623
    63  H    0.167015
    64  C   -0.445405
    65  H    0.159663
    66  H    0.141345
    67  H    0.153443
    68  N   -0.626018
    69  H    0.365702
    70  C   -0.091954
    71  H    0.183555
    72  C    0.645167
    73  C    0.132102
    74  H    0.155913
    75  O   -0.546907
    76  C   -0.453791
    77  H    0.159089
    78  H    0.137183
    79  H    0.162317
    80  O   -0.617071
    81  H    0.390508
    82  N   -0.610913
    83  H    0.354003
    84  C   -0.052104
    85  H    0.171447
    86  C    0.623855
    87  C   -0.070836
    88  H    0.141570
    89  O   -0.552048
    90  C   -0.464845
    91  H    0.145530
    92  H    0.159295
    93  H    0.156496
    94  C   -0.444753
    95  H    0.156900
    96  H    0.147389
    97  H    0.146275
    98  N   -0.612498
    99  H    0.350819
   100  C   -0.008780
   101  H    0.189434
   102  C    0.573232
   103  C   -0.280694
   104  H    0.149836
   105  H    0.171279
   106  O   -0.601461
   107  C   -0.283906
   108  H    0.168935
   109  H    0.143258
   110  C   -0.289415
   111  H    0.148113
   112  H    0.162008
   113  C   -0.142442
   114  H    0.144755
   115  H    0.162491
   116  N   -0.773849
   117  H    0.330854
   118  H    0.338196
   119  H    0.455810
   120  O   -0.503555
   121  H    0.429449
 Sum of Mulliken charges =   1.00000

 Dipole moment (field-independent basis, Debye):
    X=            -15.2886    Y=             -4.4726    Z=            -20.1349  Tot=             25.6741
 Quadrupole moment (field-independent basis, Debye-Ang):
   XX=            -87.8666   YY=           -267.9399   ZZ=           -168.2283
   XY=            107.9721   XZ=            151.8276   YZ=             84.6425

 Normal termination of Gaussian 16 at Thu Jun 30 12:42:02 2022.
