 Gaussian 16, Revision C.01,
 Gaussian 16:  ES64L-G16RevC.01  3-Jul-2019

 -------------------------------------------------------------------
 # B3LYP/6-31G* guess=read geom=check nosymm integral(ultrafinegrid)
 -------------------------------------------------------------------

 ------------------------------------------------------
 Candidate Structure: Conf:578 Charge calc in gas phase
 ------------------------------------------------------
 Structure from the checkpoint file:  "conf-578.chk"
 Charge =  1 Multiplicity = 1

                          Input orientation:
 ---------------------------------------------------------------------
 Center     Atomic      Atomic             Coordinates (Angstroms)
 Number     Number       Type             X           Y           Z
 ---------------------------------------------------------------------
      1          7           0       -6.951632   -3.390163   -8.549690
      2          1           0       -7.647155   -4.129711   -8.421811
      3          1           0       -6.758513   -3.293155   -9.550413
      4          1           0       -7.321555   -2.466061   -8.141373
      5          6           0       -5.697142   -3.584027   -7.716975
      6          1           0       -5.785082   -4.543768   -7.201965
      7          6           0       -5.793060   -2.407747   -6.697424
      8          6           0       -4.442676   -3.539375   -8.588572
      9          1           0       -3.551934   -3.648740   -7.963880
     10          1           0       -4.436933   -4.356961   -9.316746
     11          1           0       -4.360863   -2.582230   -9.115362
     12          8           0       -6.722414   -1.595153   -6.861830
     13          7           0       -4.874532   -2.374500   -5.750251
     14          1           0       -4.073910   -3.017696   -5.724080
     15          6           0       -4.705235   -1.301789   -4.765481
     16          1           0       -4.763146   -0.338435   -5.283368
     17          6           0       -3.263287   -1.528328   -4.243099
     18          6           0       -5.796812   -1.334099   -3.652454
     19          1           0       -6.741843   -1.596847   -4.142418
     20          1           0       -5.567305   -2.140677   -2.946795
     21          8           0       -2.612152   -2.497330   -4.661442
     22          6           0       -5.948743   -0.021122   -2.942700
     23          6           0       -5.559995    0.286526   -1.658567
     24          1           0       -5.063893   -0.326556   -0.919724
     25          6           0       -6.544611    1.177595   -3.488916
     26          6           0       -6.475367    2.172972   -2.476909
     27          6           0       -7.132690    1.502384   -4.725157
     28          1           0       -7.212704    0.757681   -5.513330
     29          7           0       -5.883272    1.591980   -1.372057
     30          1           0       -5.607308    2.077062   -0.531869
     31          6           0       -7.526687    3.764830   -3.904579
     32          1           0       -7.912439    4.763368   -4.088404
     33          6           0       -6.959913    3.470428   -2.670266
     34          1           0       -6.898021    4.220083   -1.886259
     35          6           0       -7.615109    2.790596   -4.920021
     36          1           0       -8.071715    3.055737   -5.869539
     37          7           0       -2.800094   -0.646951   -3.350253
     38          1           0       -3.390055    0.094769   -2.976656
     39          6           0       -1.461709   -0.740095   -2.772773
     40          1           0       -1.219342   -1.801190   -2.647835
     41          6           0       -1.543424   -0.039428   -1.402017
     42          6           0       -0.423520   -0.087273   -3.718315
     43          1           0       -0.619779   -0.465943   -4.725323
     44          1           0       -0.598669    0.994156   -3.749523
     45          8           0       -2.411407    0.809459   -1.187011
     46          6           0        1.039156   -0.380098   -3.372098
     47          1           0        1.360144    0.060337   -2.421975
     48          1           0        1.209878   -1.461890   -3.270488
     49          6           0        1.972031    0.112786   -4.461652
     50          8           0        1.631460    0.538123   -5.543806
     51          8           0        3.266494    0.008883   -4.085562
     52          7           0       -0.618250   -0.423391   -0.497473
     53          1           0        0.142644   -1.037354   -0.772332
     54          6           0       -0.365321    0.275749    0.761479
     55          1           0       -0.943286    1.205310    0.742186
     56          6           0        1.148279    0.554958    0.771744
     57          6           0       -0.797312   -0.580178    1.988917
     58          1           0       -0.222008   -1.515041    1.932032
     59          8           0        1.925223   -0.250401    0.249252
     60          6           0       -0.461440    0.105907    3.322533
     61          1           0       -0.958796    1.083097    3.399293
     62          1           0       -0.825347   -0.507007    4.154373
     63          1           0        0.614053    0.249661    3.458125
     64          6           0       -2.292078   -0.921573    1.910549
     65          1           0       -2.905446   -0.013114    1.957313
     66          1           0       -2.540875   -1.451351    0.985599
     67          1           0       -2.576926   -1.562297    2.752255
     68          7           0        1.550371    1.687223    1.378428
     69          1           0        0.881985    2.384137    1.680842
     70          6           0        2.952425    2.032441    1.543824
     71          1           0        3.401859    2.220188    0.559597
     72          6           0        3.695419    0.884254    2.269037
     73          6           0        3.045482    3.307853    2.410872
     74          1           0        2.827318    3.010255    3.446982
     75          8           0        3.201376    0.337706    3.250555
     76          6           0        4.418378    3.970437    2.327848
     77          1           0        5.223755    3.284388    2.608901
     78          1           0        4.604217    4.324540    1.308066
     79          1           0        4.465528    4.833638    3.002160
     80          8           0        2.015705    4.188068    1.938270
     81          1           0        1.998349    4.961819    2.522598
     82          7           0        4.916342    0.590374    1.765029
     83          1           0        5.333950    1.187491    1.059284
     84          6           0        5.857983   -0.299635    2.423199
     85          1           0        5.530797   -0.408299    3.463276
     86          6           0        7.229188    0.402820    2.376211
     87          6           0        5.911047   -1.716207    1.775330
     88          1           0        6.678832   -2.274651    2.330510
     89          8           0        7.433155    1.353923    1.617470
     90          6           0        4.572373   -2.448498    1.944034
     91          1           0        3.772407   -1.937127    1.398544
     92          1           0        4.274776   -2.506701    2.996454
     93          1           0        4.652321   -3.469960    1.553636
     94          6           0        6.332160   -1.663099    0.299645
     95          1           0        5.583512   -1.130051   -0.297724
     96          1           0        6.417835   -2.677468   -0.105194
     97          1           0        7.297434   -1.163941    0.160388
     98          7           0        8.177324   -0.110519    3.190349
     99          1           0        7.976609   -0.882956    3.816177
    100          6           0        9.551355    0.367059    3.217175
    101          1           0        9.859028    0.619426    2.199853
    102          6           0       10.434261   -0.747773    3.756018
    103          6           0        9.703980    1.633823    4.123412
    104          1           0        9.045660    1.498202    4.990659
    105          1           0        9.297609    2.471470    3.547907
    106          8           0       11.684900   -0.637289    3.324934
    107          6           0       11.136724    1.952962    4.609848
    108          1           0       11.852027    1.707828    3.818913
    109          1           0       11.213740    3.035251    4.766264
    110          6           0       11.527375    1.235455    5.934641
    111          1           0       11.351817    1.926843    6.767392
    112          1           0       10.858200    0.386026    6.119543
    113          6           0       12.980564    0.727851    6.035052
    114          1           0       13.324825    0.799527    7.076399
    115          1           0       13.647573    1.356929    5.435089
    116          7           0       13.120204   -0.667280    5.538570
    117          1           0       14.101203   -0.944275    5.539685
    118          1           0       12.637676   -1.304831    6.172634
    119          1           0       12.323966   -0.889374    4.089662
    120          8           0       10.033827   -1.562377    4.573610
    121          1           0        3.799644    0.327468   -4.838555
 ---------------------------------------------------------------------

 SCF Done:  E(RB3LYP) =  -2843.66456293     A.U. after    2 cycles

 Alpha  occ. eigenvalues --  -19.27051 -19.24925 -19.21318 -19.21194 -19.20143
 Alpha  occ. eigenvalues --  -19.19468 -19.18987 -19.17697 -19.17162 -19.16142
 Alpha  occ. eigenvalues --  -19.15907 -14.59921 -14.48934 -14.44453 -14.44198
 Alpha  occ. eigenvalues --  -14.42942 -14.41884 -14.40411 -14.40213 -14.39614
 Alpha  occ. eigenvalues --  -10.43493 -10.41272 -10.38262 -10.37736 -10.36186
 Alpha  occ. eigenvalues --  -10.34989 -10.34622 -10.33809 -10.33796 -10.33334
 Alpha  occ. eigenvalues --  -10.33195 -10.31226 -10.30337 -10.29350 -10.28926
 Alpha  occ. eigenvalues --  -10.28635 -10.28427 -10.27948 -10.27389 -10.27314
 Alpha  occ. eigenvalues --  -10.26782 -10.26379 -10.26092 -10.25253 -10.25156
 Alpha  occ. eigenvalues --  -10.24712 -10.24670 -10.24498 -10.24182 -10.23903
 Alpha  occ. eigenvalues --  -10.23570 -10.23231 -10.23110 -10.23058 -10.22898
 Alpha  occ. eigenvalues --  -10.22555 -10.21968 -10.20957 -10.20323  -1.19311
 Alpha  occ. eigenvalues --   -1.15912  -1.13817  -1.13133  -1.12379  -1.10918
 Alpha  occ. eigenvalues --   -1.09721  -1.08448  -1.08198  -1.07353  -1.06939
 Alpha  occ. eigenvalues --   -1.05709  -1.04233  -1.03954  -1.01106  -0.99434
 Alpha  occ. eigenvalues --   -0.98194  -0.97008  -0.96704  -0.95033  -0.93346
 Alpha  occ. eigenvalues --   -0.89929  -0.88948  -0.87269  -0.85888  -0.84989
 Alpha  occ. eigenvalues --   -0.84300  -0.83955  -0.82995  -0.81459  -0.80564
 Alpha  occ. eigenvalues --   -0.79623  -0.79437  -0.78569  -0.77898  -0.76143
 Alpha  occ. eigenvalues --   -0.75826  -0.74660  -0.74141  -0.73380  -0.73047
 Alpha  occ. eigenvalues --   -0.72675  -0.72157  -0.71687  -0.69885  -0.68246
 Alpha  occ. eigenvalues --   -0.67707  -0.67446  -0.67120  -0.66353  -0.65688
 Alpha  occ. eigenvalues --   -0.65407  -0.64911  -0.64580  -0.64418  -0.63545
 Alpha  occ. eigenvalues --   -0.63472  -0.63157  -0.62883  -0.62805  -0.61409
 Alpha  occ. eigenvalues --   -0.61035  -0.60504  -0.59869  -0.59166  -0.59011
 Alpha  occ. eigenvalues --   -0.58121  -0.57313  -0.56651  -0.56207  -0.55728
 Alpha  occ. eigenvalues --   -0.55627  -0.55496  -0.54769  -0.54488  -0.54227
 Alpha  occ. eigenvalues --   -0.54094  -0.53786  -0.53718  -0.53367  -0.53169
 Alpha  occ. eigenvalues --   -0.52849  -0.52274  -0.52092  -0.51838  -0.51813
 Alpha  occ. eigenvalues --   -0.51597  -0.51422  -0.51188  -0.50824  -0.50640
 Alpha  occ. eigenvalues --   -0.50349  -0.49582  -0.49494  -0.49360  -0.49038
 Alpha  occ. eigenvalues --   -0.48924  -0.48634  -0.48418  -0.48157  -0.47745
 Alpha  occ. eigenvalues --   -0.47697  -0.47367  -0.46993  -0.46762  -0.46512
 Alpha  occ. eigenvalues --   -0.46279  -0.45870  -0.45680  -0.45505  -0.45454
 Alpha  occ. eigenvalues --   -0.45241  -0.44654  -0.44551  -0.44318  -0.44238
 Alpha  occ. eigenvalues --   -0.44014  -0.43753  -0.43693  -0.43486  -0.43221
 Alpha  occ. eigenvalues --   -0.42939  -0.42129  -0.42071  -0.41670  -0.41614
 Alpha  occ. eigenvalues --   -0.41406  -0.41308  -0.41270  -0.41033  -0.40777
 Alpha  occ. eigenvalues --   -0.40080  -0.39895  -0.39544  -0.39271  -0.39028
 Alpha  occ. eigenvalues --   -0.38892  -0.38713  -0.38443  -0.38105  -0.37833
 Alpha  occ. eigenvalues --   -0.37601  -0.37309  -0.37242  -0.36945  -0.36829
 Alpha  occ. eigenvalues --   -0.35785  -0.34474  -0.33681  -0.33572  -0.33536
 Alpha  occ. eigenvalues --   -0.33211  -0.33094  -0.32563  -0.31887  -0.31860
 Alpha  occ. eigenvalues --   -0.31136  -0.31001  -0.30344  -0.29831  -0.29347
 Alpha  occ. eigenvalues --   -0.28843  -0.28261  -0.26707
 Alpha virt. eigenvalues --   -0.12217  -0.11204  -0.07333  -0.06773  -0.06261
 Alpha virt. eigenvalues --   -0.05045  -0.04423  -0.04332  -0.03628  -0.03387
 Alpha virt. eigenvalues --   -0.03168  -0.02645  -0.01587  -0.01274  -0.00767

 Mulliken charges:
               1
     1  N   -0.759910
     2  H    0.416661
     3  H    0.414076
     4  H    0.437972
     5  C   -0.105340
     6  H    0.225565
     7  C    0.654767
     8  C   -0.485612
     9  H    0.224794
    10  H    0.194913
    11  H    0.196901
    12  O   -0.543495
    13  N   -0.614298
    14  H    0.378338
    15  C   -0.056539
    16  H    0.209636
    17  C    0.623350
    18  C   -0.356892
    19  H    0.176003
    20  H    0.162671
    21  O   -0.560118
    22  C    0.015882
    23  C    0.017701
    24  H    0.169312
    25  C    0.086604
    26  C    0.312209
    27  C   -0.227032
    28  H    0.135984
    29  N   -0.679017
    30  H    0.342676
    31  C   -0.148784
    32  H    0.137664
    33  C   -0.157911
    34  H    0.136904
    35  C   -0.139428
    36  H    0.126947
    37  N   -0.626606
    38  H    0.385585
    39  C   -0.060274
    40  H    0.177178
    41  C    0.615408
    42  C   -0.255530
    43  H    0.182955
    44  H    0.168814
    45  O   -0.546873
    46  C   -0.389965
    47  H    0.203837
    48  H    0.182996
    49  C    0.583234
    50  O   -0.460887
    51  O   -0.560828
    52  N   -0.604524
    53  H    0.356369
    54  C   -0.069909
    55  H    0.168779
    56  C    0.649949
    57  C   -0.066335
    58  H    0.145607
    59  O   -0.554852
    60  C   -0.485695
    61  H    0.127787
    62  H    0.153184
    63  H    0.204310
    64  C   -0.444536
    65  H    0.142663
    66  H    0.141611
    67  H    0.153556
    68  N   -0.611617
    69  H    0.354993
    70  C   -0.016002
    71  H    0.159024
    72  C    0.637478
    73  C    0.104485
    74  H    0.155151
    75  O   -0.536212
    76  C   -0.479232
    77  H    0.176683
    78  H    0.166002
    79  H    0.149033
    80  O   -0.643694
    81  H    0.404982
    82  N   -0.594640
    83  H    0.350477
    84  C   -0.071584
    85  H    0.176764
    86  C    0.630078
    87  C   -0.068649
    88  H    0.129303
    89  O   -0.555330
    90  C   -0.460411
    91  H    0.182103
    92  H    0.150759
    93  H    0.136743
    94  C   -0.465661
    95  H    0.157933
    96  H    0.147660
    97  H    0.156502
    98  N   -0.619092
    99  H    0.349956
   100  C   -0.003886
   101  H    0.187180
   102  C    0.572791
   103  C   -0.280971
   104  H    0.146038
   105  H    0.170102
   106  O   -0.602173
   107  C   -0.283640
   108  H    0.168933
   109  H    0.143486
   110  C   -0.289555
   111  H    0.148781
   112  H    0.161726
   113  C   -0.142588
   114  H    0.145496
   115  H    0.162576
   116  N   -0.773942
   117  H    0.330703
   118  H    0.338230
   119  H    0.455543
   120  O   -0.503968
   121  H    0.414988
 Sum of Mulliken charges =   1.00000

 Dipole moment (field-independent basis, Debye):
    X=            -13.5363    Y=             -9.3628    Z=            -21.5785  Tot=             27.1390
 Quadrupole moment (field-independent basis, Debye-Ang):
   XX=            -53.0657   YY=           -272.2538   ZZ=            -54.9280
   XY=             95.1962   XZ=            262.0214   YZ=            133.9776

 Normal termination of Gaussian 16 at Thu Jun 30 12:42:00 2022.
