 Gaussian 16, Revision C.01,
 Gaussian 16:  ES64L-G16RevC.01  3-Jul-2019

 -------------------------------------------------------------------
 # B3LYP/6-31G* guess=read geom=check nosymm integral(ultrafinegrid)
 -------------------------------------------------------------------

 ------------------------------------------------------
 Candidate Structure: Conf:231 Charge calc in gas phase
 ------------------------------------------------------
 Structure from the checkpoint file:  "conf-231.chk"
 Charge =  1 Multiplicity = 1

                          Input orientation:
 ---------------------------------------------------------------------
 Center     Atomic      Atomic             Coordinates (Angstroms)
 Number     Number       Type             X           Y           Z
 ---------------------------------------------------------------------
      1          7           0       -8.716797   -1.325309   -5.854503
      2          1           0       -9.459270   -1.167300   -5.167962
      3          1           0       -9.105033   -1.859086   -6.637254
      4          1           0       -8.329102   -0.382123   -6.191137
      5          6           0       -7.468122   -1.955255   -5.263619
      6          1           0       -7.679390   -2.194905   -4.218620
      7          6           0       -6.434204   -0.791956   -5.357979
      8          6           0       -7.058881   -3.204462   -6.043075
      9          1           0       -6.143036   -3.623748   -5.617645
     10          1           0       -7.831960   -3.977662   -5.986261
     11          1           0       -6.857812   -2.967289   -7.093580
     12          8           0       -6.795534    0.236871   -5.957992
     13          7           0       -5.257447   -1.001303   -4.795373
     14          1           0       -4.987818   -1.898612   -4.378014
     15          6           0       -4.124002   -0.074414   -4.832449
     16          1           0       -3.988840    0.279750   -5.859690
     17          6           0       -2.925079   -0.952229   -4.401482
     18          6           0       -4.334398    1.157559   -3.895915
     19          1           0       -5.381743    1.461911   -4.004975
     20          1           0       -4.198715    0.839648   -2.856018
     21          8           0       -3.116905   -2.119084   -4.040257
     22          6           0       -3.444802    2.322336   -4.220463
     23          6           0       -2.352645    2.763456   -3.502307
     24          1           0       -1.897201    2.345686   -2.613946
     25          6           0       -3.600385    3.228133   -5.335696
     26          6           0       -2.564531    4.195393   -5.231361
     27          6           0       -4.515206    3.320412   -6.400707
     28          1           0       -5.324030    2.600376   -6.500073
     29          7           0       -1.824170    3.881061   -4.107464
     30          1           0       -1.023854    4.393803   -3.769026
     31          6           0       -3.332981    5.298411   -7.198408
     32          1           0       -3.248782    6.094249   -7.932669
     33          6           0       -2.417543    5.235522   -6.154821
     34          1           0       -1.620993    5.968307   -6.059981
     35          6           0       -4.371588    4.352077   -7.319598
     36          1           0       -5.071236    4.437286   -8.146293
     37          7           0       -1.717919   -0.360430   -4.446525
     38          1           0       -1.695053    0.647860   -4.576938
     39          6           0       -0.521079   -0.981472   -3.871953
     40          1           0       -0.596778   -2.055008   -4.065780
     41          6           0       -0.496160   -0.703752   -2.356524
     42          6           0        0.726622   -0.393822   -4.553952
     43          1           0        0.621047   -0.553777   -5.632986
     44          1           0        0.741290    0.688137   -4.385435
     45          8           0       -0.526902    0.459022   -1.935071
     46          6           0        2.045851   -0.999619   -4.049706
     47          1           0        2.239193   -0.706818   -3.008780
     48          1           0        2.030677   -2.093952   -4.073001
     49          6           0        3.262761   -0.571000   -4.843569
     50          8           0        4.264396   -1.232020   -4.993137
     51          8           0        3.130435    0.675304   -5.369018
     52          7           0       -0.443073   -1.782683   -1.548659
     53          1           0       -0.254634   -2.682806   -1.971294
     54          6           0       -0.154741   -1.660197   -0.113657
     55          1           0       -0.848666   -0.916656    0.293025
     56          6           0        1.305041   -1.165596   -0.001287
     57          6           0       -0.361197   -3.015673    0.592583
     58          1           0        0.328465   -3.725877    0.113430
     59          8           0        2.205480   -1.792654   -0.554095
     60          6           0        0.020854   -2.919717    2.077190
     61          1           0       -0.605121   -2.186961    2.602089
     62          1           0       -0.122687   -3.888215    2.567357
     63          1           0        1.067702   -2.631337    2.212076
     64          6           0       -1.802473   -3.522454    0.430968
     65          1           0       -2.509580   -2.847267    0.929565
     66          1           0       -2.103212   -3.601827   -0.619441
     67          1           0       -1.910658   -4.512134    0.887809
     68          7           0        1.471596   -0.006939    0.674123
     69          1           0        0.710214    0.424670    1.187672
     70          6           0        2.740957    0.691679    0.779454
     71          1           0        3.537805   -0.032225    0.590462
     72          6           0        2.784453    1.288084    2.196406
     73          6           0        2.810553    1.845676   -0.278864
     74          1           0        2.199236    2.673442    0.114203
     75          8           0        1.742477    1.739336    2.680227
     76          6           0        4.240682    2.321323   -0.504091
     77          1           0        4.718614    2.628982    0.431473
     78          1           0        4.832044    1.513323   -0.950270
     79          1           0        4.245712    3.169047   -1.196573
     80          8           0        2.301759    1.433332   -1.540332
     81          1           0        1.356145    1.221662   -1.435529
     82          7           0        3.983042    1.288681    2.809783
     83          1           0        4.825359    1.046763    2.292131
     84          6           0        4.276467    2.033571    4.029448
     85          1           0        3.526420    2.824899    4.129494
     86          6           0        5.679191    2.655589    3.828168
     87          6           0        4.238578    1.157030    5.316182
     88          1           0        4.532055    1.826251    6.135974
     89          8           0        6.416298    2.225005    2.918113
     90          6           0        2.821953    0.644710    5.608838
     91          1           0        2.481130   -0.049613    4.832508
     92          1           0        2.098557    1.464860    5.658865
     93          1           0        2.804665    0.112543    6.567164
     94          6           0        5.246801    0.000044    5.261208
     95          1           0        4.993320   -0.703363    4.458460
     96          1           0        5.237353   -0.555495    6.205418
     97          1           0        6.269107    0.352884    5.089348
     98          7           0        5.986763    3.612586    4.701161
     99          1           0        5.365967    3.864936    5.494918
    100          6           0        7.297094    4.153025    5.045621
    101          1           0        7.982708    3.323552    5.274500
    102          6           0        7.071921    4.954107    6.416829
    103          6           0        7.952779    5.060475    4.003253
    104          1           0        8.592070    5.736521    4.584810
    105          1           0        7.181570    5.667157    3.508509
    106          8           0        8.046452    5.629896    6.786959
    107          6           0        8.795441    4.317406    2.959767
    108          1           0        9.531009    3.690742    3.484713
    109          1           0        8.163802    3.639207    2.376320
    110          6           0        9.551266    5.297127    2.045519
    111          1           0        8.834562    5.901894    1.471043
    112          1           0       10.139301    5.988143    2.667745
    113          6           0       10.471667    4.549675    1.099379
    114          1           0        9.931748    3.917920    0.390098
    115          1           0       11.211864    3.944065    1.627806
    116          7           0       11.284768    5.541863    0.246016
    117          1           0       11.927868    5.076802   -0.405547
    118          1           0       10.656209    6.142792   -0.299743
    119          1           0       11.837368    6.158664    0.853588
    120          8           0        5.935705    4.775253    6.930249
    121          1           0        3.973350    0.859026   -5.825090
 ---------------------------------------------------------------------

 SCF Done:  E(RB3LYP) =  -2843.57099293     A.U. after    2 cycles

 Alpha  occ. eigenvalues --  -19.27671 -19.24476 -19.22381 -19.19797 -19.18376
 Alpha  occ. eigenvalues --  -19.18130 -19.16080 -19.14897 -19.13055 -19.04897
 Alpha  occ. eigenvalues --  -19.03977 -14.61275 -14.60543 -14.49742 -14.45554
 Alpha  occ. eigenvalues --  -14.45032 -14.44127 -14.40852 -14.38799 -14.34819
 Alpha  occ. eigenvalues --  -10.44174 -10.41891 -10.39178 -10.37511 -10.36897
 Alpha  occ. eigenvalues --  -10.36727 -10.34584 -10.34416 -10.33568 -10.32124
 Alpha  occ. eigenvalues --  -10.31815 -10.29604 -10.29474 -10.29086 -10.29071
 Alpha  occ. eigenvalues --  -10.28865 -10.28690 -10.28209 -10.26977 -10.26531
 Alpha  occ. eigenvalues --  -10.26015 -10.25834 -10.25416 -10.25384 -10.25383
 Alpha  occ. eigenvalues --  -10.25209 -10.24871 -10.24757 -10.24583 -10.23695
 Alpha  occ. eigenvalues --  -10.23158 -10.22945 -10.22898 -10.21727 -10.21045
 Alpha  occ. eigenvalues --  -10.20670 -10.19546 -10.18925 -10.18696  -1.19946
 Alpha  occ. eigenvalues --   -1.15187  -1.15084  -1.14557  -1.14030  -1.11511
 Alpha  occ. eigenvalues --   -1.08283  -1.06736  -1.06463  -1.06038  -1.05552
 Alpha  occ. eigenvalues --   -1.04958  -1.04044  -1.02212  -1.00141  -0.98028
 Alpha  occ. eigenvalues --   -0.96952  -0.95183  -0.93993  -0.91975  -0.90631
 Alpha  occ. eigenvalues --   -0.90394  -0.89637  -0.89263  -0.87631  -0.86441
 Alpha  occ. eigenvalues --   -0.84948  -0.82812  -0.81939  -0.81589  -0.81029
 Alpha  occ. eigenvalues --   -0.80522  -0.80101  -0.79156  -0.77560  -0.76503
 Alpha  occ. eigenvalues --   -0.76129  -0.75012  -0.74701  -0.74252  -0.73756
 Alpha  occ. eigenvalues --   -0.73530  -0.73205  -0.71795  -0.71467  -0.70305
 Alpha  occ. eigenvalues --   -0.69771  -0.68874  -0.68646  -0.67603  -0.66769
 Alpha  occ. eigenvalues --   -0.66477  -0.66075  -0.65274  -0.64329  -0.64197
 Alpha  occ. eigenvalues --   -0.63988  -0.63541  -0.63475  -0.63283  -0.62037
 Alpha  occ. eigenvalues --   -0.61145  -0.61003  -0.60492  -0.59848  -0.59184
 Alpha  occ. eigenvalues --   -0.58479  -0.58195  -0.58020  -0.57285  -0.56700
 Alpha  occ. eigenvalues --   -0.56527  -0.56232  -0.55799  -0.55652  -0.55171
 Alpha  occ. eigenvalues --   -0.54787  -0.54373  -0.54300  -0.53783  -0.53208
 Alpha  occ. eigenvalues --   -0.52644  -0.52483  -0.52337  -0.52103  -0.51699
 Alpha  occ. eigenvalues --   -0.51296  -0.51154  -0.50671  -0.50295  -0.50087
 Alpha  occ. eigenvalues --   -0.49980  -0.49797  -0.49561  -0.49057  -0.48896
 Alpha  occ. eigenvalues --   -0.48601  -0.48229  -0.47904  -0.47634  -0.47432
 Alpha  occ. eigenvalues --   -0.47127  -0.46840  -0.46605  -0.46458  -0.46213
 Alpha  occ. eigenvalues --   -0.45711  -0.45434  -0.45112  -0.44835  -0.44465
 Alpha  occ. eigenvalues --   -0.44302  -0.44056  -0.43573  -0.43426  -0.43420
 Alpha  occ. eigenvalues --   -0.43242  -0.42815  -0.42607  -0.42268  -0.42081
 Alpha  occ. eigenvalues --   -0.41958  -0.41928  -0.41669  -0.41278  -0.40923
 Alpha  occ. eigenvalues --   -0.40335  -0.40213  -0.40019  -0.39827  -0.39750
 Alpha  occ. eigenvalues --   -0.39635  -0.39611  -0.39545  -0.38942  -0.38860
 Alpha  occ. eigenvalues --   -0.37312  -0.36870  -0.36733  -0.36621  -0.36395
 Alpha  occ. eigenvalues --   -0.36194  -0.35698  -0.35144  -0.34720  -0.34696
 Alpha  occ. eigenvalues --   -0.34279  -0.34263  -0.34176  -0.33038  -0.32358
 Alpha  occ. eigenvalues --   -0.32053  -0.31811  -0.30709  -0.29440  -0.29015
 Alpha  occ. eigenvalues --   -0.28761  -0.27962  -0.27450  -0.26898  -0.25761
 Alpha  occ. eigenvalues --   -0.20044  -0.19749  -0.18450
 Alpha virt. eigenvalues --   -0.12846  -0.12040  -0.11765  -0.08165  -0.07839
 Alpha virt. eigenvalues --   -0.06866  -0.06423  -0.05391  -0.05152  -0.05011
 Alpha virt. eigenvalues --   -0.04094  -0.03438  -0.02861  -0.02117  -0.01948

 Mulliken charges:
               1
     1  N   -0.759113
     2  H    0.418417
     3  H    0.415068
     4  H    0.438103
     5  C   -0.105818
     6  H    0.226832
     7  C    0.656107
     8  C   -0.484817
     9  H    0.222469
    10  H    0.196874
    11  H    0.196906
    12  O   -0.542081
    13  N   -0.614405
    14  H    0.377113
    15  C   -0.060030
    16  H    0.208052
    17  C    0.623136
    18  C   -0.359065
    19  H    0.178887
    20  H    0.171890
    21  O   -0.549730
    22  C    0.000412
    23  C   -0.014734
    24  H    0.209246
    25  C    0.091994
    26  C    0.311201
    27  C   -0.225101
    28  H    0.134859
    29  N   -0.684294
    30  H    0.343485
    31  C   -0.148381
    32  H    0.139439
    33  C   -0.157885
    34  H    0.138100
    35  C   -0.138833
    36  H    0.129497
    37  N   -0.608330
    38  H    0.365614
    39  C   -0.061993
    40  H    0.170618
    41  C    0.647388
    42  C   -0.288642
    43  H    0.162120
    44  H    0.181221
    45  O   -0.565550
    46  C   -0.384184
    47  H    0.242001
    48  H    0.170574
    49  C    0.582111
    50  O   -0.458666
    51  O   -0.565574
    52  N   -0.584271
    53  H    0.346950
    54  C   -0.025360
    55  H    0.155834
    56  C    0.620587
    57  C   -0.110653
    58  H    0.151581
    59  O   -0.543336
    60  C   -0.463062
    61  H    0.149571
    62  H    0.159110
    63  H    0.175075
    64  C   -0.450091
    65  H    0.145559
    66  H    0.143270
    67  H    0.158058
    68  N   -0.615333
    69  H    0.350415
    70  C   -0.055029
    71  H    0.175849
    72  C    0.615552
    73  C    0.136072
    74  H    0.129734
    75  O   -0.554480
    76  C   -0.470379
    77  H    0.166578
    78  H    0.156908
    79  H    0.147219
    80  O   -0.658064
    81  H    0.427447
    82  N   -0.599749
    83  H    0.350948
    84  C   -0.065796
    85  H    0.177020
    86  C    0.613164
    87  C   -0.079824
    88  H    0.165675
    89  O   -0.597298
    90  C   -0.440656
    91  H    0.138799
    92  H    0.156010
    93  H    0.140811
    94  C   -0.459986
    95  H    0.136400
    96  H    0.147506
    97  H    0.159763
    98  N   -0.615038
    99  H    0.367459
   100  C   -0.061827
   101  H    0.133869
   102  C    0.579895
   103  C   -0.261917
   104  H    0.173932
   105  H    0.123699
   106  O   -0.588810
   107  C   -0.281869
   108  H    0.138858
   109  H    0.189861
   110  C   -0.290064
   111  H    0.156062
   112  H    0.161995
   113  C   -0.206424
   114  H    0.224867
   115  H    0.224325
   116  N   -0.731209
   117  H    0.420493
   118  H    0.420588
   119  H    0.423729
   120  O   -0.607973
   121  H    0.408892
 Sum of Mulliken charges =   1.00000

 Dipole moment (field-independent basis, Debye):
    X=            -10.3632    Y=              0.5252    Z=            -40.2560  Tot=             41.5718
 Quadrupole moment (field-independent basis, Debye-Ang):
   XX=            250.5938   YY=           -279.6861   ZZ=           -355.1644
   XY=            206.4215   XZ=             49.8903   YZ=            -82.1295

 Normal termination of Gaussian 16 at Thu Jun 30 12:41:47 2022.
