 Gaussian 16, Revision C.01,
 Gaussian 16:  ES64L-G16RevC.01  3-Jul-2019

 -------------------------------------------------------------------
 # B3LYP/6-31G* guess=read geom=check nosymm integral(ultrafinegrid)
 -------------------------------------------------------------------

 ------------------------------------------------------
 Candidate Structure: Conf:472 Charge calc in gas phase
 ------------------------------------------------------
 Structure from the checkpoint file:  "conf-472.chk"
 Charge =  1 Multiplicity = 1

                          Input orientation:
 ---------------------------------------------------------------------
 Center     Atomic      Atomic             Coordinates (Angstroms)
 Number     Number       Type             X           Y           Z
 ---------------------------------------------------------------------
      1          7           0       -4.602752   -1.657288   -7.415572
      2          1           0       -4.916023   -1.956929   -8.342627
      3          1           0       -3.565095   -1.741810   -7.344375
      4          1           0       -4.820035   -0.655360   -7.245220
      5          6           0       -5.281707   -2.403366   -6.283582
      6          1           0       -6.345069   -2.439971   -6.544886
      7          6           0       -5.115074   -1.425707   -5.090343
      8          6           0       -4.714833   -3.809721   -6.127707
      9          1           0       -5.286435   -4.366191   -5.377842
     10          1           0       -4.798340   -4.370338   -7.064770
     11          1           0       -3.665521   -3.785594   -5.818019
     12          8           0       -4.958797   -0.222988   -5.357673
     13          7           0       -5.147165   -1.939689   -3.862809
     14          1           0       -5.354574   -2.924875   -3.732619
     15          6           0       -4.990224   -1.117946   -2.645122
     16          1           0       -5.482097   -0.161897   -2.847875
     17          6           0       -3.467442   -0.914316   -2.427818
     18          6           0       -5.636441   -1.815634   -1.426759
     19          1           0       -4.928334   -2.566648   -1.060893
     20          1           0       -5.717057   -1.064918   -0.633096
     21          8           0       -2.810309   -1.704354   -1.752757
     22          6           0       -6.969513   -2.442960   -1.715550
     23          6           0       -8.216545   -1.879046   -1.589339
     24          1           0       -8.498817   -0.905356   -1.211631
     25          6           0       -7.176872   -3.769500   -2.246774
     26          6           0       -8.577486   -3.935057   -2.434530
     27          6           0       -6.315965   -4.836953   -2.577205
     28          1           0       -5.247552   -4.776033   -2.372748
     29          7           0       -9.180845   -2.763779   -2.025396
     30          1           0      -10.176383   -2.610022   -1.964883
     31          6           0       -8.252084   -6.141455   -3.284046
     32          1           0       -8.649961   -7.071457   -3.678683
     33          6           0       -9.127063   -5.113543   -2.949815
     34          1           0      -10.199728   -5.227695   -3.079262
     35          6           0       -6.860754   -6.008241   -3.096575
     36          1           0       -6.210607   -6.846776   -3.329638
     37          7           0       -2.921114    0.133206   -3.091635
     38          1           0       -3.532182    0.760816   -3.599194
     39          6           0       -1.468770    0.352212   -3.150997
     40          1           0       -1.009763   -0.640435   -3.105016
     41          6           0       -0.978589    1.168256   -1.925021
     42          6           0       -1.063250    1.058828   -4.449815
     43          1           0       -1.421291    2.092766   -4.424012
     44          1           0        0.028199    1.118372   -4.466318
     45          8           0       -0.634316    2.342710   -2.028010
     46          6           0       -1.561597    0.384574   -5.735696
     47          1           0       -2.653892    0.342310   -5.778252
     48          1           0       -1.244115    0.982194   -6.602068
     49          6           0       -1.001100   -0.999300   -5.949088
     50          8           0       -0.003388   -1.470147   -5.475668
     51          8           0       -1.769009   -1.754539   -6.842320
     52          7           0       -0.983741    0.475048   -0.760084
     53          1           0       -1.232395   -0.509402   -0.779568
     54          6           0       -0.511051    1.063804    0.494331
     55          1           0       -0.724907    2.135664    0.431700
     56          6           0        1.012880    0.833137    0.558556
     57          6           0       -1.221730    0.462547    1.723709
     58          1           0       -0.905175   -0.586546    1.794598
     59          8           0        1.481402   -0.285876    0.790009
     60          6           0       -0.765348    1.187962    2.999296
     61          1           0       -1.061890    2.244581    2.978650
     62          1           0       -1.225590    0.731867    3.881829
     63          1           0        0.319925    1.140354    3.133533
     64          6           0       -2.750031    0.516622    1.586880
     65          1           0       -3.100047    1.549512    1.462801
     66          1           0       -3.106945   -0.069156    0.733689
     67          1           0       -3.221574    0.112217    2.489139
     68          7           0        1.782316    1.912444    0.294618
     69          1           0        1.366745    2.815213    0.093819
     70          6           0        3.228166    1.821411    0.115009
     71          1           0        3.449100    0.855446   -0.352955
     72          6           0        3.959993    1.864472    1.476538
     73          6           0        3.696335    2.974747   -0.797788
     74          1           0        4.795372    2.948130   -0.813449
     75          8           0        4.558996    2.897273    1.848149
     76          6           0        3.172683    2.857757   -2.223902
     77          1           0        3.548665    1.944116   -2.697785
     78          1           0        2.078161    2.843617   -2.250638
     79          1           0        3.517556    3.717947   -2.805027
     80          8           0        3.238118    4.212493   -0.260586
     81          1           0        3.674066    4.275528    0.610415
     82          7           0        3.884002    0.739144    2.192137
     83          1           0        3.366211   -0.026711    1.767132
     84          6           0        4.635482    0.479367    3.423222
     85          1           0        4.466654    1.313802    4.114769
     86          6           0        6.140098    0.388448    3.051374
     87          6           0        4.136772   -0.838481    4.078450
     88          1           0        4.399790   -1.647304    3.381121
     89          8           0        6.470703   -0.126070    1.991438
     90          6           0        4.833580   -1.105279    5.422100
     91          1           0        4.557366   -0.344177    6.162742
     92          1           0        5.924674   -1.113198    5.370164
     93          1           0        4.510078   -2.075459    5.813910
     94          6           0        2.611207   -0.836722    4.278370
     95          1           0        2.304727    0.000835    4.918537
     96          1           0        2.306671   -1.761563    4.780458
     97          1           0        2.052094   -0.774278    3.339768
     98          7           0        7.014912    0.966637    3.949327
     99          1           0        6.799553    0.873152    4.998175
    100          6           0        8.447952    0.567453    3.956543
    101          1           0        8.561419   -0.338638    3.353917
    102          6           0        8.767838    0.259159    5.475425
    103          6           0        9.389180    1.659965    3.424571
    104          1           0       10.392724    1.228089    3.417027
    105          1           0        9.443477    2.462655    4.173205
    106          8           0        9.936386   -0.033909    5.738233
    107          6           0        8.998878    2.222650    2.033141
    108          1           0        9.751586    1.944723    1.286694
    109          1           0        8.075006    1.743296    1.690739
    110          6           0        8.830381    3.756633    1.953678
    111          1           0        9.811209    4.249043    1.969212
    112          1           0        8.372613    4.020122    0.990903
    113          6           0        8.030535    4.408751    3.086734
    114          1           0        7.775868    5.444088    2.843108
    115          1           0        8.595196    4.410734    4.021215
    116          7           0        6.748032    3.684218    3.388928
    117          1           0        6.244673    4.134212    4.157823
    118          1           0        6.081320    3.607534    2.599787
    119          1           0        6.911877    2.655119    3.674229
    120          8           0        7.750350    0.391809    6.235896
    121          1           0       -1.257239   -2.576545   -6.981596
 ---------------------------------------------------------------------

 SCF Done:  E(RB3LYP) =  -2843.62230617     A.U. after    1 cycles

 Alpha  occ. eigenvalues --  -19.34145 -19.28339 -19.27385 -19.23387 -19.20439
 Alpha  occ. eigenvalues --  -19.20220 -19.20140 -19.19100 -19.16312 -19.07812
 Alpha  occ. eigenvalues --  -19.06136 -14.61076 -14.51758 -14.49324 -14.47890
 Alpha  occ. eigenvalues --  -14.47873 -14.44222 -14.43682 -14.42824 -14.37797
 Alpha  occ. eigenvalues --  -10.45407 -10.45290 -10.42684 -10.40489 -10.37380
 Alpha  occ. eigenvalues --  -10.36573 -10.36310 -10.36065 -10.34964 -10.33656
 Alpha  occ. eigenvalues --  -10.32812 -10.32388 -10.31990 -10.31806 -10.31196
 Alpha  occ. eigenvalues --  -10.30698 -10.30476 -10.30257 -10.30215 -10.29912
 Alpha  occ. eigenvalues --  -10.28858 -10.28708 -10.28679 -10.28655 -10.28473
 Alpha  occ. eigenvalues --  -10.28129 -10.28020 -10.26609 -10.25355 -10.25117
 Alpha  occ. eigenvalues --  -10.24658 -10.24540 -10.24108 -10.23551 -10.22432
 Alpha  occ. eigenvalues --  -10.22288 -10.22131 -10.20778 -10.20333  -1.23666
 Alpha  occ. eigenvalues --   -1.20642  -1.15585  -1.15173  -1.14840  -1.12098
 Alpha  occ. eigenvalues --   -1.11610  -1.10574  -1.08153  -1.07932  -1.07718
 Alpha  occ. eigenvalues --   -1.07589  -1.04679  -1.03931  -1.00624  -1.00569
 Alpha  occ. eigenvalues --   -1.00039  -0.98968  -0.94918  -0.94373  -0.93738
 Alpha  occ. eigenvalues --   -0.91923  -0.91424  -0.91078  -0.88175  -0.87337
 Alpha  occ. eigenvalues --   -0.85844  -0.85279  -0.84707  -0.83837  -0.83460
 Alpha  occ. eigenvalues --   -0.82962  -0.81603  -0.79634  -0.79261  -0.78212
 Alpha  occ. eigenvalues --   -0.77782  -0.76437  -0.75838  -0.75289  -0.75210
 Alpha  occ. eigenvalues --   -0.74429  -0.73398  -0.72834  -0.72181  -0.72064
 Alpha  occ. eigenvalues --   -0.70525  -0.70144  -0.68966  -0.68418  -0.68032
 Alpha  occ. eigenvalues --   -0.67672  -0.66272  -0.65938  -0.65794  -0.65182
 Alpha  occ. eigenvalues --   -0.65069  -0.64577  -0.63812  -0.63514  -0.62994
 Alpha  occ. eigenvalues --   -0.62976  -0.62394  -0.62313  -0.61940  -0.61842
 Alpha  occ. eigenvalues --   -0.61517  -0.61088  -0.59910  -0.59284  -0.58785
 Alpha  occ. eigenvalues --   -0.58440  -0.58258  -0.58064  -0.57716  -0.57217
 Alpha  occ. eigenvalues --   -0.56863  -0.56474  -0.56169  -0.55914  -0.55483
 Alpha  occ. eigenvalues --   -0.55460  -0.54809  -0.54364  -0.54183  -0.53841
 Alpha  occ. eigenvalues --   -0.53704  -0.53607  -0.53217  -0.52686  -0.52453
 Alpha  occ. eigenvalues --   -0.52106  -0.52005  -0.51462  -0.51297  -0.51048
 Alpha  occ. eigenvalues --   -0.50799  -0.50382  -0.50304  -0.49841  -0.49735
 Alpha  occ. eigenvalues --   -0.49537  -0.49041  -0.48757  -0.48329  -0.48072
 Alpha  occ. eigenvalues --   -0.47850  -0.47541  -0.46973  -0.46916  -0.46799
 Alpha  occ. eigenvalues --   -0.46676  -0.46369  -0.46300  -0.45739  -0.45547
 Alpha  occ. eigenvalues --   -0.45303  -0.45218  -0.45013  -0.44878  -0.44617
 Alpha  occ. eigenvalues --   -0.44373  -0.44204  -0.43631  -0.43418  -0.43206
 Alpha  occ. eigenvalues --   -0.42807  -0.42724  -0.42586  -0.42357  -0.42121
 Alpha  occ. eigenvalues --   -0.41910  -0.41081  -0.40985  -0.40773  -0.40645
 Alpha  occ. eigenvalues --   -0.40216  -0.39999  -0.39555  -0.38641  -0.38359
 Alpha  occ. eigenvalues --   -0.38286  -0.37805  -0.37500  -0.37344  -0.37010
 Alpha  occ. eigenvalues --   -0.36725  -0.36514  -0.35984  -0.35366  -0.35071
 Alpha  occ. eigenvalues --   -0.34637  -0.33531  -0.33357  -0.33169  -0.32217
 Alpha  occ. eigenvalues --   -0.32008  -0.31403  -0.30717  -0.30317  -0.29297
 Alpha  occ. eigenvalues --   -0.22808  -0.22583  -0.20168
 Alpha virt. eigenvalues --   -0.14873  -0.12359  -0.11523  -0.10770  -0.09826
 Alpha virt. eigenvalues --   -0.07760  -0.07158  -0.06868  -0.06375  -0.05611
 Alpha virt. eigenvalues --   -0.04726  -0.04639  -0.03695  -0.03606  -0.02315

 Mulliken charges:
               1
     1  N   -0.767816
     2  H    0.410572
     3  H    0.443927
     4  H    0.424526
     5  C   -0.124556
     6  H    0.238665
     7  C    0.662505
     8  C   -0.494611
     9  H    0.219609
    10  H    0.190580
    11  H    0.189226
    12  O   -0.552062
    13  N   -0.604843
    14  H    0.375396
    15  C   -0.053752
    16  H    0.185850
    17  C    0.637915
    18  C   -0.409262
    19  H    0.206293
    20  H    0.185197
    21  O   -0.526424
    22  C    0.061394
    23  C    0.007762
    24  H    0.170969
    25  C    0.060920
    26  C    0.316305
    27  C   -0.267304
    28  H    0.146884
    29  N   -0.685430
    30  H    0.346038
    31  C   -0.154428
    32  H    0.150968
    33  C   -0.156575
    34  H    0.150084
    35  C   -0.144682
    36  H    0.144088
    37  N   -0.605075
    38  H    0.354442
    39  C   -0.078828
    40  H    0.200730
    41  C    0.636999
    42  C   -0.291886
    43  H    0.186760
    44  H    0.198389
    45  O   -0.524026
    46  C   -0.394582
    47  H    0.171557
    48  H    0.209433
    49  C    0.611634
    50  O   -0.410383
    51  O   -0.637079
    52  N   -0.619469
    53  H    0.370986
    54  C   -0.029564
    55  H    0.165029
    56  C    0.636289
    57  C   -0.103925
    58  H    0.161489
    59  O   -0.552331
    60  C   -0.466082
    61  H    0.145356
    62  H    0.161813
    63  H    0.167688
    64  C   -0.455837
    65  H    0.144662
    66  H    0.138766
    67  H    0.158059
    68  N   -0.595405
    69  H    0.362142
    70  C   -0.081759
    71  H    0.188113
    72  C    0.667526
    73  C    0.109031
    74  H    0.141437
    75  O   -0.615839
    76  C   -0.469644
    77  H    0.145235
    78  H    0.172160
    79  H    0.169123
    80  O   -0.645078
    81  H    0.409182
    82  N   -0.596976
    83  H    0.383757
    84  C   -0.014823
    85  H    0.140553
    86  C    0.600671
    87  C   -0.121018
    88  H    0.153171
    89  O   -0.507053
    90  C   -0.466166
    91  H    0.148735
    92  H    0.198084
    93  H    0.150783
    94  C   -0.468339
    95  H    0.141523
    96  H    0.157041
    97  H    0.162003
    98  N   -0.725586
    99  H    0.380665
   100  C   -0.068485
   101  H    0.169831
   102  C    0.592313
   103  C   -0.294066
   104  H    0.188250
   105  H    0.126905
   106  O   -0.558222
   107  C   -0.299420
   108  H    0.158166
   109  H    0.166029
   110  C   -0.280785
   111  H    0.170967
   112  H    0.148527
   113  C   -0.182585
   114  H    0.182195
   115  H    0.204799
   116  N   -0.796870
   117  H    0.382315
   118  H    0.424116
   119  H    0.449473
   120  O   -0.621959
   121  H    0.430314
 Sum of Mulliken charges =   1.00000

 Dipole moment (field-independent basis, Debye):
    X=            -35.1401    Y=             -1.8742    Z=            -35.9273  Tot=             50.2903
 Quadrupole moment (field-independent basis, Debye-Ang):
   XX=           -256.2971   YY=           -281.3324   ZZ=           -191.8388
   XY=            131.7034   XZ=             57.6116   YZ=            101.8962

 Normal termination of Gaussian 16 at Thu Jun 30 12:41:37 2022.
