 Gaussian 16, Revision C.01,
 Gaussian 16:  ES64L-G16RevC.01  3-Jul-2019

 -------------------------------------------------------------------
 # B3LYP/6-31G* guess=read geom=check nosymm integral(ultrafinegrid)
 -------------------------------------------------------------------

 ------------------------------------------------------
 Candidate Structure: Conf:315 Charge calc in gas phase
 ------------------------------------------------------
 Structure from the checkpoint file:  "conf-315.chk"
 Charge =  1 Multiplicity = 1

                          Input orientation:
 ---------------------------------------------------------------------
 Center     Atomic      Atomic             Coordinates (Angstroms)
 Number     Number       Type             X           Y           Z
 ---------------------------------------------------------------------
      1          7           0       -7.658038    0.328814   -9.271562
      2          1           0       -8.618843   -0.020571   -9.313247
      3          1           0       -7.393338    0.672626  -10.198487
      4          1           0       -7.592014    1.110862   -8.531024
      5          6           0       -6.674568   -0.673533   -8.697931
      6          1           0       -7.196288   -1.625865   -8.578591
      7          6           0       -6.350555   -0.046408   -7.307397
      8          6           0       -5.449256   -0.820929   -9.599338
      9          1           0       -4.732913   -1.510485   -9.144037
     10          1           0       -5.722838   -1.227668  -10.578375
     11          1           0       -4.941354    0.140437   -9.734016
     12          8           0       -6.789451    1.094742   -7.093063
     13          7           0       -5.625388   -0.784454   -6.481377
     14          1           0       -5.156398   -1.638970   -6.788740
     15          6           0       -5.139017   -0.350994   -5.173251
     16          1           0       -5.105242    0.741397   -5.162191
     17          6           0       -3.727443   -0.967952   -5.058890
     18          6           0       -6.040863   -0.873596   -4.014490
     19          1           0       -5.953848   -1.966789   -3.991060
     20          1           0       -5.600908   -0.508260   -3.077357
     21          8           0       -3.420766   -1.913138   -5.799792
     22          6           0       -7.484276   -0.482007   -4.104641
     23          6           0       -8.531133   -1.330691   -4.371241
     24          1           0       -8.522668   -2.399388   -4.542064
     25          6           0       -8.060378    0.827678   -3.900201
     26          6           0       -9.465377    0.695018   -4.062576
     27          6           0       -7.532515    2.090934   -3.579713
     28          1           0       -6.463690    2.228301   -3.436075
     29          7           0       -9.721534   -0.629360   -4.375149
     30          1           0      -10.637154   -1.053205   -4.375845
     31          6           0       -9.790056    3.008378   -3.593316
     32          1           0      -10.442917    3.866266   -3.461135
     33          6           0      -10.342772    1.773838   -3.912708
     34          1           0      -11.416290    1.651580   -4.030220
     35          6           0       -8.398622    3.165599   -3.428392
     36          1           0       -8.001674    4.143417   -3.171802
     37          7           0       -2.941421   -0.443941   -4.113849
     38          1           0       -3.273586    0.279647   -3.472311
     39          6           0       -1.680371   -1.024030   -3.662485
     40          1           0       -1.805457   -2.107815   -3.576492
     41          6           0       -1.472344   -0.444557   -2.239685
     42          6           0       -0.481833   -0.720457   -4.609333
     43          1           0       -0.752007    0.131780   -5.240764
     44          1           0        0.385643   -0.412088   -4.017373
     45          8           0       -2.223515    0.441216   -1.818148
     46          6           0       -0.082528   -1.903509   -5.497036
     47          1           0       -0.952525   -2.290458   -6.041732
     48          1           0        0.651058   -1.597856   -6.252158
     49          6           0        0.514750   -3.043597   -4.701876
     50          8           0        0.545793   -3.122067   -3.487343
     51          8           0        1.014532   -4.008582   -5.496611
     52          7           0       -0.451825   -0.986410   -1.555097
     53          1           0        0.141205   -1.676494   -2.015250
     54          6           0       -0.020228   -0.514309   -0.241199
     55          1           0       -0.657098    0.337790    0.012891
     56          6           0        1.451534   -0.084237   -0.386073
     57          6           0       -0.175577   -1.622496    0.837682
     58          1           0        0.444512   -2.467765    0.507086
     59          8           0        2.239714   -0.778911   -1.018220
     60          6           0        0.338826   -1.155890    2.208301
     61          1           0       -0.202499   -0.268774    2.560634
     62          1           0        0.192103   -1.946535    2.951773
     63          1           0        1.404888   -0.911271    2.195914
     64          6           0       -1.633822   -2.091091    0.936123
     65          1           0       -2.290072   -1.272583    1.256940
     66          1           0       -2.005609   -2.467846   -0.021883
     67          1           0       -1.722601   -2.898567    1.671221
     68          7           0        1.774918    1.106265    0.202611
     69          1           0        1.139743    1.486360    0.903056
     70          6           0        3.159133    1.506257    0.459978
     71          1           0        3.810881    0.705066    0.100379
     72          6           0        3.264395    1.717915    1.984837
     73          6           0        3.479448    2.815955   -0.318054
     74          1           0        2.903467    3.626675    0.159772
     75          8           0        2.263333    2.083121    2.611589
     76          6           0        4.960799    3.171613   -0.310152
     77          1           0        5.331509    3.338935    0.704930
     78          1           0        5.543306    2.366366   -0.772813
     79          1           0        5.117509    4.082745   -0.896029
     80          8           0        3.096331    2.678639   -1.678350
     81          1           0        2.192137    2.321992   -1.666658
     82          7           0        4.468293    1.503076    2.538138
     83          1           0        5.285204    1.249256    1.987050
     84          6           0        4.777959    1.742480    3.944720
     85          1           0        4.248097    2.646135    4.264499
     86          6           0        6.305505    1.973602    3.990472
     87          6           0        4.294229    0.555542    4.838823
     88          1           0        3.272128    0.360694    4.488376
     89          8           0        7.007464    1.580083    3.038221
     90          6           0        5.126849   -0.716125    4.624049
     91          1           0        6.148219   -0.594537    5.002687
     92          1           0        5.191229   -0.986703    3.564001
     93          1           0        4.674301   -1.558440    5.159599
     94          6           0        4.200502    0.931377    6.325356
     95          1           0        5.172098    1.148604    6.781179
     96          1           0        3.748961    0.104409    6.886081
     97          1           0        3.562487    1.811877    6.470267
     98          7           0        6.765928    2.588162    5.081660
     99          1           0        6.166466    2.775589    5.903907
    100          6           0        8.142092    2.595715    5.568980
    101          1           0        8.579376    1.596387    5.436076
    102          6           0        8.044966    2.871163    7.142160
    103          6           0        9.065359    3.631026    4.924748
    104          1           0        9.869404    3.783333    5.655300
    105          1           0        8.524370    4.582476    4.822547
    106          8           0        9.139528    3.034935    7.705827
    107          6           0        9.657416    3.214773    3.573229
    108          1           0       10.168236    2.248559    3.690492
    109          1           0        8.864199    3.053591    2.836012
    110          6           0       10.671722    4.256674    3.069245
    111          1           0       10.166179    5.220661    2.911736
    112          1           0       11.440849    4.412621    3.840122
    113          6           0       11.323990    3.800142    1.778353
    114          1           0       10.614800    3.709080    0.952218
    115          1           0       11.865204    2.857778    1.891990
    116          7           0       12.375483    4.828230    1.318282
    117          1           0       12.848189    4.556991    0.448034
    118          1           0       11.937316    5.745138    1.171327
    119          1           0       13.090854    4.950735    2.045023
    120          8           0        6.866326    2.886472    7.589866
    121          1           0        1.374575   -4.700231   -4.908417
 ---------------------------------------------------------------------

 SCF Done:  E(RB3LYP) =  -2843.57143421     A.U. after    2 cycles

 Alpha  occ. eigenvalues --  -19.26779 -19.26448 -19.21435 -19.21313 -19.18403
 Alpha  occ. eigenvalues --  -19.17554 -19.16202 -19.14595 -19.12640 -19.04682
 Alpha  occ. eigenvalues --  -19.03749 -14.61116 -14.59811 -14.49147 -14.45389
 Alpha  occ. eigenvalues --  -14.44481 -14.41600 -14.40302 -14.38422 -14.34626
 Alpha  occ. eigenvalues --  -10.43445 -10.41273 -10.39263 -10.38325 -10.37378
 Alpha  occ. eigenvalues --  -10.35424 -10.34011 -10.33957 -10.33312 -10.31770
 Alpha  occ. eigenvalues --  -10.30956 -10.29677 -10.29324 -10.28922 -10.28765
 Alpha  occ. eigenvalues --  -10.28719 -10.27964 -10.27688 -10.26918 -10.26678
 Alpha  occ. eigenvalues --  -10.26611 -10.26112 -10.25627 -10.25483 -10.25339
 Alpha  occ. eigenvalues --  -10.25023 -10.24578 -10.24503 -10.24058 -10.23118
 Alpha  occ. eigenvalues --  -10.22724 -10.21681 -10.21383 -10.21326 -10.20496
 Alpha  occ. eigenvalues --  -10.20355 -10.19401 -10.18404 -10.17171  -1.19293
 Alpha  occ. eigenvalues --   -1.17577  -1.14924  -1.13721  -1.13053  -1.10214
 Alpha  occ. eigenvalues --   -1.08497  -1.08209  -1.06432  -1.05890  -1.05279
 Alpha  occ. eigenvalues --   -1.05177  -1.03807  -1.01152  -0.98373  -0.97771
 Alpha  occ. eigenvalues --   -0.96353  -0.94787  -0.93447  -0.91667  -0.90676
 Alpha  occ. eigenvalues --   -0.90253  -0.89296  -0.88998  -0.87554  -0.85072
 Alpha  occ. eigenvalues --   -0.84968  -0.82177  -0.81605  -0.81345  -0.80794
 Alpha  occ. eigenvalues --   -0.80308  -0.80255  -0.79103  -0.76676  -0.75922
 Alpha  occ. eigenvalues --   -0.75841  -0.74355  -0.74034  -0.73589  -0.73421
 Alpha  occ. eigenvalues --   -0.73135  -0.72578  -0.72400  -0.71324  -0.70381
 Alpha  occ. eigenvalues --   -0.69135  -0.68863  -0.67643  -0.67345  -0.66494
 Alpha  occ. eigenvalues --   -0.66179  -0.65294  -0.64452  -0.63759  -0.63490
 Alpha  occ. eigenvalues --   -0.63377  -0.63173  -0.62784  -0.62442  -0.61597
 Alpha  occ. eigenvalues --   -0.61108  -0.60927  -0.60471  -0.59272  -0.58290
 Alpha  occ. eigenvalues --   -0.57926  -0.57515  -0.57449  -0.57037  -0.56535
 Alpha  occ. eigenvalues --   -0.56146  -0.55744  -0.55567  -0.55461  -0.55272
 Alpha  occ. eigenvalues --   -0.54569  -0.54434  -0.54333  -0.53869  -0.53250
 Alpha  occ. eigenvalues --   -0.52722  -0.52450  -0.51800  -0.51677  -0.51449
 Alpha  occ. eigenvalues --   -0.51051  -0.51010  -0.50468  -0.50281  -0.50046
 Alpha  occ. eigenvalues --   -0.49670  -0.49432  -0.49181  -0.48726  -0.48541
 Alpha  occ. eigenvalues --   -0.48194  -0.48074  -0.47924  -0.47782  -0.47305
 Alpha  occ. eigenvalues --   -0.47066  -0.46676  -0.46330  -0.45876  -0.45706
 Alpha  occ. eigenvalues --   -0.45099  -0.44934  -0.44712  -0.44486  -0.44085
 Alpha  occ. eigenvalues --   -0.43728  -0.43539  -0.42982  -0.42808  -0.42783
 Alpha  occ. eigenvalues --   -0.42655  -0.42396  -0.42291  -0.42072  -0.42008
 Alpha  occ. eigenvalues --   -0.41742  -0.41518  -0.41434  -0.41313  -0.40679
 Alpha  occ. eigenvalues --   -0.40326  -0.40069  -0.39750  -0.39508  -0.39015
 Alpha  occ. eigenvalues --   -0.38883  -0.38806  -0.38497  -0.38149  -0.38005
 Alpha  occ. eigenvalues --   -0.37344  -0.36922  -0.36576  -0.36465  -0.35854
 Alpha  occ. eigenvalues --   -0.35160  -0.34946  -0.34734  -0.34381  -0.34219
 Alpha  occ. eigenvalues --   -0.34156  -0.34027  -0.33777  -0.32665  -0.32095
 Alpha  occ. eigenvalues --   -0.32053  -0.31174  -0.30264  -0.29294  -0.29187
 Alpha  occ. eigenvalues --   -0.28455  -0.27629  -0.27616  -0.26587  -0.25562
 Alpha  occ. eigenvalues --   -0.19855  -0.19484  -0.18164
 Alpha virt. eigenvalues --   -0.11993  -0.11876  -0.11235  -0.08154  -0.07077
 Alpha virt. eigenvalues --   -0.06309  -0.05924  -0.05238  -0.04982  -0.04548
 Alpha virt. eigenvalues --   -0.04167  -0.04054  -0.02384  -0.02000  -0.01788

 Mulliken charges:
               1
     1  N   -0.759643
     2  H    0.415838
     3  H    0.412142
     4  H    0.440271
     5  C   -0.104704
     6  H    0.221964
     7  C    0.657983
     8  C   -0.484802
     9  H    0.220768
    10  H    0.194527
    11  H    0.196000
    12  O   -0.530570
    13  N   -0.590470
    14  H    0.367589
    15  C   -0.082505
    16  H    0.199951
    17  C    0.635190
    18  C   -0.367522
    19  H    0.161926
    20  H    0.185283
    21  O   -0.558833
    22  C    0.078674
    23  C   -0.023410
    24  H    0.151647
    25  C    0.100078
    26  C    0.298448
    27  C   -0.204503
    28  H    0.123497
    29  N   -0.689120
    30  H    0.335831
    31  C   -0.150055
    32  H    0.140390
    33  C   -0.166071
    34  H    0.132969
    35  C   -0.138998
    36  H    0.137736
    37  N   -0.624932
    38  H    0.368163
    39  C   -0.035510
    40  H    0.193336
    41  C    0.587447
    42  C   -0.281734
    43  H    0.158416
    44  H    0.186361
    45  O   -0.546244
    46  C   -0.373672
    47  H    0.212908
    48  H    0.186387
    49  C    0.595293
    50  O   -0.469680
    51  O   -0.557212
    52  N   -0.617507
    53  H    0.394987
    54  C   -0.065030
    55  H    0.174440
    56  C    0.604054
    57  C   -0.077210
    58  H    0.147420
    59  O   -0.523090
    60  C   -0.468570
    61  H    0.155020
    62  H    0.156724
    63  H    0.167116
    64  C   -0.445844
    65  H    0.151301
    66  H    0.140703
    67  H    0.152720
    68  N   -0.632803
    69  H    0.357164
    70  C   -0.082479
    71  H    0.178960
    72  C    0.626086
    73  C    0.154512
    74  H    0.125772
    75  O   -0.557237
    76  C   -0.467618
    77  H    0.160827
    78  H    0.151666
    79  H    0.155204
    80  O   -0.631420
    81  H    0.397782
    82  N   -0.613608
    83  H    0.352771
    84  C   -0.050062
    85  H    0.170941
    86  C    0.607896
    87  C   -0.070922
    88  H    0.145077
    89  O   -0.595853
    90  C   -0.454312
    91  H    0.160654
    92  H    0.135612
    93  H    0.141413
    94  C   -0.477974
    95  H    0.198434
    96  H    0.137196
    97  H    0.144461
    98  N   -0.612812
    99  H    0.370567
   100  C   -0.067699
   101  H    0.136548
   102  C    0.579545
   103  C   -0.261911
   104  H    0.172185
   105  H    0.124521
   106  O   -0.587228
   107  C   -0.272024
   108  H    0.142411
   109  H    0.181263
   110  C   -0.290558
   111  H    0.157040
   112  H    0.162252
   113  C   -0.206067
   114  H    0.224332
   115  H    0.224068
   116  N   -0.731156
   117  H    0.420112
   118  H    0.421429
   119  H    0.423549
   120  O   -0.603933
   121  H    0.421369
 Sum of Mulliken charges =   1.00000

 Dipole moment (field-independent basis, Debye):
    X=             -7.3968    Y=              5.4841    Z=            -52.5079  Tot=             53.3091
 Quadrupole moment (field-independent basis, Debye-Ang):
   XX=            301.1210   YY=           -266.0349   ZZ=           -186.8763
   XY=            177.7591   XZ=            147.5764   YZ=            -25.2518

 Normal termination of Gaussian 16 at Thu Jun 30 12:42:08 2022.
