 Gaussian 16, Revision C.01,
 Gaussian 16:  ES64L-G16RevC.01  3-Jul-2019

 -------------------------------------------------------------------
 # B3LYP/6-31G* guess=read geom=check nosymm integral(ultrafinegrid)
 -------------------------------------------------------------------

 -----------------------------------------------------
 Candidate Structure: Conf:34 Charge calc in gas phase
 -----------------------------------------------------
 Structure from the checkpoint file:  "conf-34.chk"
 Charge =  1 Multiplicity = 1

                          Input orientation:
 ---------------------------------------------------------------------
 Center     Atomic      Atomic             Coordinates (Angstroms)
 Number     Number       Type             X           Y           Z
 ---------------------------------------------------------------------
      1          7           0       -1.003371    2.963657   -1.798312
      2          1           0       -1.149139    2.346034   -0.988423
      3          1           0       -0.300864    3.774078   -1.481451
      4          1           0       -0.584571    2.396919   -2.550910
      5          6           0       -2.318736    3.519088   -2.278211
      6          1           0       -2.670352    4.182320   -1.483958
      7          6           0       -3.260716    2.301683   -2.265565
      8          6           0       -2.103959    4.296843   -3.572479
      9          1           0       -3.043401    4.754211   -3.897295
     10          1           0       -1.360073    5.085112   -3.411965
     11          1           0       -1.722057    3.655195   -4.373892
     12          8           0       -3.599673    1.848865   -1.170323
     13          7           0       -3.551687    1.696457   -3.441545
     14          1           0       -3.084218    2.026576   -4.276545
     15          6           0       -4.062079    0.313586   -3.467855
     16          1           0       -4.688717    0.206755   -2.579421
     17          6           0       -2.841222   -0.643872   -3.353612
     18          6           0       -4.889866    0.042114   -4.733561
     19          1           0       -5.535087    0.913932   -4.897657
     20          1           0       -4.211282   -0.032534   -5.590320
     21          8           0       -2.465073   -1.353849   -4.283731
     22          6           0       -5.728609   -1.199761   -4.628884
     23          6           0       -5.407268   -2.455782   -5.081357
     24          1           0       -4.509811   -2.791410   -5.581057
     25          6           0       -7.030177   -1.305634   -4.012772
     26          6           0       -7.441733   -2.661465   -4.134422
     27          6           0       -7.891117   -0.392001   -3.378665
     28          1           0       -7.609324    0.652889   -3.271257
     29          7           0       -6.428722   -3.335831   -4.787746
     30          1           0       -6.443845   -4.312206   -5.038134
     31          6           0       -9.497904   -2.190163   -3.024228
     32          1           0      -10.459827   -2.511136   -2.634695
     33          6           0       -8.670755   -3.117457   -3.647248
     34          1           0       -8.970081   -4.157098   -3.751733
     35          6           0       -9.112237   -0.840416   -2.891556
     36          1           0       -9.784327   -0.142129   -2.400687
     37          7           0       -2.182401   -0.556376   -2.167862
     38          1           0       -2.558558    0.049205   -1.440897
     39          6           0       -0.953586   -1.272614   -1.850974
     40          1           0       -1.080210   -2.331018   -2.111651
     41          6           0       -0.732847   -1.082535   -0.343691
     42          6           0        0.352366   -0.739882   -2.511062
     43          1           0        0.487687    0.301714   -2.203525
     44          1           0        1.186670   -1.290163   -2.060943
     45          8           0       -0.938377    0.021708    0.173952
     46          6           0        0.475745   -0.844916   -4.034537
     47          1           0        1.538096   -0.890425   -4.311631
     48          1           0        0.013051   -1.752972   -4.428830
     49          6           0       -0.101509    0.328010   -4.790728
     50          8           0       -0.493322    1.382102   -4.306669
     51          8           0       -0.091572    0.119251   -6.113094
     52          7           0       -0.238055   -2.135749    0.345002
     53          1           0       -0.011528   -2.986974   -0.153805
     54          6           0        0.232888   -2.012552    1.735009
     55          1           0       -0.425832   -1.280271    2.212108
     56          6           0        1.669655   -1.441673    1.667539
     57          6           0        0.154104   -3.352230    2.487848
     58          1           0        0.866426   -4.038844    2.010246
     59          8           0        2.673299   -2.159346    1.732475
     60          6           0        0.590586   -3.166666    3.949995
     61          1           0       -0.069839   -2.461809    4.471360
     62          1           0        0.537383   -4.122306    4.481693
     63          1           0        1.618871   -2.802610    4.020483
     64          6           0       -1.257683   -3.954442    2.418437
     65          1           0       -1.993623   -3.288063    2.885119
     66          1           0       -1.586974   -4.143250    1.391484
     67          1           0       -1.284808   -4.907891    2.956147
     68          7           0        1.726622   -0.103715    1.468453
     69          1           0        0.871045    0.416205    1.277950
     70          6           0        2.979209    0.602948    1.254632
     71          1           0        3.714360    0.215693    1.970820
     72          6           0        2.669386    2.085871    1.502561
     73          6           0        3.543709    0.411306   -0.195661
     74          1           0        2.926484    1.019086   -0.870075
     75          8           0        1.575270    2.544148    1.176992
     76          6           0        5.004513    0.859874   -0.305229
     77          1           0        5.121692    1.929443   -0.094500
     78          1           0        5.638789    0.291327    0.386814
     79          1           0        5.362666    0.666335   -1.320413
     80          8           0        3.396678   -0.924046   -0.644996
     81          1           0        3.529975   -1.524858    0.115592
     82          7           0        3.648405    2.858238    2.045025
     83          1           0        4.516701    2.428752    2.333991
     84          6           0        3.420756    4.276004    2.364640
     85          1           0        2.338641    4.370906    2.504153
     86          6           0        3.816763    5.154559    1.137099
     87          6           0        4.130953    4.697818    3.667062
     88          1           0        5.212268    4.708383    3.470442
     89          8           0        4.854768    5.854981    1.184260
     90          6           0        3.706044    6.119921    4.070903
     91          1           0        2.629815    6.159890    4.280346
     92          1           0        3.934682    6.849779    3.290853
     93          1           0        4.229191    6.424792    4.983485
     94          6           0        3.838316    3.719623    4.816827
     95          1           0        2.761597    3.656908    5.015649
     96          1           0        4.325015    4.066476    5.734302
     97          1           0        4.197791    2.704331    4.619859
     98          7           0        2.962326    5.028387    0.108506
     99          1           0        2.124207    4.453388    0.274313
    100          6           0        2.767791    5.789283   -1.147321
    101          1           0        2.772147    6.860378   -0.903154
    102          6           0        1.349029    5.419896   -1.695626
    103          6           0        3.823494    5.554240   -2.255524
    104          1           0        3.590660    6.251797   -3.065039
    105          1           0        3.734093    4.541091   -2.664765
    106          8           0        1.046391    5.829817   -2.817938
    107          6           0        5.189890    5.786629   -1.629943
    108          1           0        5.054341    6.663051   -0.991367
    109          1           0        5.362213    4.943970   -0.951130
    110          6           0        6.488645    6.011430   -2.402901
    111          1           0        6.679723    5.242825   -3.160729
    112          1           0        6.491306    6.978721   -2.920077
    113          6           0        7.636370    5.936241   -1.380092
    114          1           0        8.565369    6.394761   -1.726782
    115          1           0        7.838536    4.900307   -1.096968
    116          7           0        7.267055    6.633836   -0.066511
    117          1           0        8.022600    6.540118    0.619358
    118          1           0        7.115424    7.637689   -0.212446
    119          1           0        6.375807    6.259229    0.371574
    120          8           0        0.660334    4.684673   -0.901982
    121          1           0       -0.443162    0.922065   -6.542346
 ---------------------------------------------------------------------

 SCF Done:  E(RB3LYP) =  -2843.67133919     A.U. after    1 cycles

 Alpha  occ. eigenvalues --  -19.27964 -19.23249 -19.22274 -19.21293 -19.21270
 Alpha  occ. eigenvalues --  -19.20964 -19.19771 -19.19641 -19.18757 -19.17293
 Alpha  occ. eigenvalues --  -19.15546 -14.59035 -14.47759 -14.46314 -14.45520
 Alpha  occ. eigenvalues --  -14.44389 -14.44166 -14.43695 -14.42680 -14.42060
 Alpha  occ. eigenvalues --  -10.41078 -10.38795 -10.38770 -10.38499 -10.37889
 Alpha  occ. eigenvalues --  -10.36961 -10.36776 -10.35725 -10.34379 -10.32472
 Alpha  occ. eigenvalues --  -10.32462 -10.32267 -10.32252 -10.31986 -10.31807
 Alpha  occ. eigenvalues --  -10.31045 -10.30580 -10.30026 -10.28936 -10.28142
 Alpha  occ. eigenvalues --  -10.27757 -10.27365 -10.27338 -10.26405 -10.26272
 Alpha  occ. eigenvalues --  -10.25924 -10.25728 -10.25686 -10.25574 -10.25094
 Alpha  occ. eigenvalues --  -10.24966 -10.23882 -10.23516 -10.22665 -10.22454
 Alpha  occ. eigenvalues --  -10.22374 -10.22284 -10.22092 -10.21724  -1.19308
 Alpha  occ. eigenvalues --   -1.13745  -1.13462  -1.12922  -1.12422  -1.11999
 Alpha  occ. eigenvalues --   -1.11583  -1.10338  -1.10056  -1.09970  -1.08749
 Alpha  occ. eigenvalues --   -1.03498  -1.02414  -1.01878  -1.01582  -1.01547
 Alpha  occ. eigenvalues --   -1.00588  -1.00133  -0.99848  -0.99190  -0.92701
 Alpha  occ. eigenvalues --   -0.89275  -0.88618  -0.87620  -0.87354  -0.87144
 Alpha  occ. eigenvalues --   -0.86143  -0.85779  -0.84046  -0.82514  -0.81801
 Alpha  occ. eigenvalues --   -0.80699  -0.80204  -0.78938  -0.77237  -0.76862
 Alpha  occ. eigenvalues --   -0.76076  -0.75949  -0.74971  -0.74678  -0.73907
 Alpha  occ. eigenvalues --   -0.73361  -0.72517  -0.71745  -0.70965  -0.69590
 Alpha  occ. eigenvalues --   -0.69291  -0.68189  -0.67837  -0.67176  -0.66576
 Alpha  occ. eigenvalues --   -0.66436  -0.65981  -0.65963  -0.65566  -0.64943
 Alpha  occ. eigenvalues --   -0.64653  -0.64282  -0.63117  -0.62917  -0.62360
 Alpha  occ. eigenvalues --   -0.61949  -0.61615  -0.60254  -0.59905  -0.59527
 Alpha  occ. eigenvalues --   -0.59239  -0.58722  -0.58714  -0.58093  -0.57684
 Alpha  occ. eigenvalues --   -0.57436  -0.57071  -0.56875  -0.56707  -0.56353
 Alpha  occ. eigenvalues --   -0.56116  -0.55368  -0.54779  -0.54539  -0.54308
 Alpha  occ. eigenvalues --   -0.54073  -0.53908  -0.52822  -0.52757  -0.52383
 Alpha  occ. eigenvalues --   -0.52241  -0.52034  -0.51839  -0.51069  -0.50777
 Alpha  occ. eigenvalues --   -0.50741  -0.50681  -0.50262  -0.50139  -0.49755
 Alpha  occ. eigenvalues --   -0.49679  -0.49312  -0.49165  -0.48803  -0.48754
 Alpha  occ. eigenvalues --   -0.48452  -0.48138  -0.48009  -0.47926  -0.47267
 Alpha  occ. eigenvalues --   -0.46973  -0.46905  -0.46726  -0.46580  -0.46459
 Alpha  occ. eigenvalues --   -0.46406  -0.46216  -0.46189  -0.45881  -0.45825
 Alpha  occ. eigenvalues --   -0.45470  -0.45380  -0.45333  -0.44913  -0.44792
 Alpha  occ. eigenvalues --   -0.44506  -0.44412  -0.44275  -0.44245  -0.44113
 Alpha  occ. eigenvalues --   -0.43868  -0.43330  -0.43258  -0.42802  -0.42521
 Alpha  occ. eigenvalues --   -0.42464  -0.42311  -0.41732  -0.41470  -0.41368
 Alpha  occ. eigenvalues --   -0.41212  -0.40881  -0.40508  -0.40206  -0.39728
 Alpha  occ. eigenvalues --   -0.38994  -0.37542  -0.37276  -0.37087  -0.37027
 Alpha  occ. eigenvalues --   -0.36307  -0.35556  -0.35390  -0.35119  -0.35088
 Alpha  occ. eigenvalues --   -0.34520  -0.34053  -0.33572  -0.32803  -0.32375
 Alpha  occ. eigenvalues --   -0.32264  -0.32135  -0.31887  -0.31819  -0.30797
 Alpha  occ. eigenvalues --   -0.29598  -0.26021  -0.24210
 Alpha virt. eigenvalues --   -0.10431  -0.08835  -0.08194  -0.07928  -0.07354
 Alpha virt. eigenvalues --   -0.07144  -0.05360  -0.04859  -0.04685  -0.03742
 Alpha virt. eigenvalues --   -0.03366  -0.02348  -0.01653  -0.01420  -0.01192

 Mulliken charges:
               1
     1  N   -0.830233
     2  H    0.401884
     3  H    0.466514
     4  H    0.416275
     5  C   -0.065373
     6  H    0.208402
     7  C    0.594946
     8  C   -0.506852
     9  H    0.177112
    10  H    0.225706
    11  H    0.164242
    12  O   -0.520808
    13  N   -0.586571
    14  H    0.347040
    15  C   -0.077313
    16  H    0.207762
    17  C    0.641183
    18  C   -0.359271
    19  H    0.159139
    20  H    0.155791
    21  O   -0.543761
    22  C    0.044915
    23  C    0.013193
    24  H    0.166712
    25  C    0.084734
    26  C    0.312152
    27  C   -0.213877
    28  H    0.120527
    29  N   -0.690223
    30  H    0.330893
    31  C   -0.151170
    32  H    0.130802
    33  C   -0.161333
    34  H    0.127565
    35  C   -0.138230
    36  H    0.126760
    37  N   -0.654547
    38  H    0.389546
    39  C   -0.000220
    40  H    0.165224
    41  C    0.607353
    42  C   -0.290583
    43  H    0.150527
    44  H    0.183718
    45  O   -0.549671
    46  C   -0.358696
    47  H    0.191011
    48  H    0.220620
    49  C    0.616765
    50  O   -0.514490
    51  O   -0.539550
    52  N   -0.602758
    53  H    0.345843
    54  C   -0.046934
    55  H    0.185324
    56  C    0.637500
    57  C   -0.099241
    58  H    0.150298
    59  O   -0.562697
    60  C   -0.463461
    61  H    0.145470
    62  H    0.160436
    63  H    0.170370
    64  C   -0.448437
    65  H    0.154538
    66  H    0.140784
    67  H    0.162094
    68  N   -0.618648
    69  H    0.388537
    70  C   -0.079690
    71  H    0.164552
    72  C    0.617879
    73  C    0.170421
    74  H    0.138432
    75  O   -0.524848
    76  C   -0.472693
    77  H    0.125812
    78  H    0.151604
    79  H    0.172596
    80  O   -0.647096
    81  H    0.424137
    82  N   -0.617317
    83  H    0.335633
    84  C   -0.051066
    85  H    0.197509
    86  C    0.642124
    87  C   -0.093129
    88  H    0.122803
    89  O   -0.606899
    90  C   -0.461094
    91  H    0.156120
    92  H    0.161372
    93  H    0.156684
    94  C   -0.448845
    95  H    0.161046
    96  H    0.163164
    97  H    0.134220
    98  N   -0.641213
    99  H    0.428050
   100  C   -0.065428
   101  H    0.172357
   102  C    0.611548
   103  C   -0.260626
   104  H    0.183383
   105  H    0.148409
   106  O   -0.541392
   107  C   -0.292752
   108  H    0.136600
   109  H    0.147224
   110  C   -0.277632
   111  H    0.188296
   112  H    0.173151
   113  C   -0.194261
   114  H    0.208902
   115  H    0.212467
   116  N   -0.775959
   117  H    0.409020
   118  H    0.409074
   119  H    0.463480
   120  O   -0.648971
   121  H    0.417589
 Sum of Mulliken charges =   1.00000

 Dipole moment (field-independent basis, Debye):
    X=             23.4156    Y=             16.3860    Z=             -3.6634  Tot=             28.8134
 Quadrupole moment (field-independent basis, Debye-Ang):
   XX=           -142.7014   YY=           -198.1291   ZZ=           -300.8893
   XY=            173.3530   XZ=             13.5363   YZ=              4.7849

 Normal termination of Gaussian 16 at Thu Jun 30 12:42:05 2022.
