 Gaussian 16, Revision C.01,
 Gaussian 16:  ES64L-G16RevC.01  3-Jul-2019

 -------------------------------------------------------------------
 # B3LYP/6-31G* guess=read geom=check nosymm integral(ultrafinegrid)
 -------------------------------------------------------------------

 ------------------------------------------------------
 Candidate Structure: Conf:549 Charge calc in gas phase
 ------------------------------------------------------
 Structure from the checkpoint file:  "conf-549.chk"
 Charge =  1 Multiplicity = 1

                          Input orientation:
 ---------------------------------------------------------------------
 Center     Atomic      Atomic             Coordinates (Angstroms)
 Number     Number       Type             X           Y           Z
 ---------------------------------------------------------------------
      1          7           0       -3.354092   -1.157675   -7.298211
      2          1           0       -3.297714   -0.920220   -8.291351
      3          1           0       -2.408887   -1.474357   -6.954580
      4          1           0       -3.602316   -0.329726   -6.721522
      5          6           0       -4.421182   -2.181526   -6.987981
      6          1           0       -5.309524   -1.880635   -7.554458
      7          6           0       -4.701824   -1.921431   -5.483427
      8          6           0       -3.971723   -3.581650   -7.391075
      9          1           0       -4.782225   -4.299163   -7.233359
     10          1           0       -3.721756   -3.619455   -8.456479
     11          1           0       -3.100334   -3.906868   -6.815229
     12          8           0       -4.449694   -0.789966   -5.050141
     13          7           0       -5.172949   -2.931672   -4.748469
     14          1           0       -5.459338   -3.803389   -5.179734
     15          6           0       -5.403375   -2.815763   -3.296558
     16          1           0       -5.880364   -1.847914   -3.118648
     17          6           0       -4.005059   -2.883070   -2.626698
     18          6           0       -6.294954   -3.979663   -2.812954
     19          1           0       -5.653244   -4.860989   -2.709712
     20          1           0       -6.633791   -3.722842   -1.801350
     21          8           0       -3.440795   -3.960747   -2.456061
     22          6           0       -7.456971   -4.287266   -3.711640
     23          6           0       -7.644096   -5.464525   -4.401181
     24          1           0       -7.044986   -6.365986   -4.395120
     25          6           0       -8.587721   -3.444771   -4.028404
     26          6           0       -9.420401   -4.179758   -4.915614
     27          6           0       -8.984636   -2.151063   -3.642621
     28          1           0       -8.382120   -1.566682   -2.951703
     29          7           0       -8.811978   -5.402027   -5.133338
     30          1           0       -9.220776   -6.173276   -5.638988
     31          6           0      -10.980569   -2.382146   -5.021975
     32          1           0      -11.907337   -1.952151   -5.390373
     33          6           0      -10.617820   -3.662486   -5.421459
     34          1           0      -11.245006   -4.240769   -6.094443
     35          6           0      -10.172955   -1.633656   -4.140571
     36          1           0      -10.492842   -0.639410   -3.842734
     37          7           0       -3.448137   -1.683297   -2.346898
     38          1           0       -3.938158   -0.816344   -2.543646
     39          6           0       -2.083092   -1.516366   -1.874599
     40          1           0       -1.803202   -2.415681   -1.318883
     41          6           0       -2.082312   -0.257628   -0.983191
     42          6           0       -1.101416   -1.276187   -3.050014
     43          1           0       -1.448735   -0.384079   -3.584851
     44          1           0       -0.105297   -1.051884   -2.651929
     45          8           0       -2.788569    0.700414   -1.294680
     46          6           0       -1.009776   -2.477314   -4.021499
     47          1           0       -0.477443   -3.305127   -3.543338
     48          1           0       -2.005653   -2.829579   -4.289495
     49          6           0       -0.296296   -2.097987   -5.291568
     50          8           0       -0.832126   -1.831246   -6.367343
     51          8           0        1.027971   -2.043721   -5.151864
     52          7           0       -1.262696   -0.301220    0.086203
     53          1           0       -0.629976   -1.083261    0.227610
     54          6           0       -0.975708    0.846199    0.944303
     55          1           0       -1.293553    1.746476    0.408269
     56          6           0        0.551667    0.822220    1.140994
     57          6           0       -1.732300    0.766230    2.305560
     58          1           0       -1.361669   -0.132830    2.818288
     59          8           0        1.154588   -0.254184    1.172604
     60          6           0       -1.441082    1.986797    3.194213
     61          1           0       -1.738382    2.918281    2.693054
     62          1           0       -2.025168    1.919491    4.118058
     63          1           0       -0.388715    2.070044    3.480581
     64          6           0       -3.244114    0.611972    2.085463
     65          1           0       -3.655219    1.471234    1.543177
     66          1           0       -3.484149   -0.290884    1.516506
     67          1           0       -3.755819    0.544108    3.051694
     68          7           0        1.166727    2.018879    1.258146
     69          1           0        0.627812    2.871961    1.368995
     70          6           0        2.573312    2.148845    1.618848
     71          1           0        3.161068    1.477473    0.985775
     72          6           0        2.778824    1.817598    3.109826
     73          6           0        2.983150    3.630062    1.386213
     74          1           0        3.976220    3.770026    1.841698
     75          8           0        2.258133    2.535108    3.977315
     76          6           0        3.055880    4.005432   -0.088385
     77          1           0        3.835969    3.430042   -0.598541
     78          1           0        2.099936    3.820743   -0.589056
     79          1           0        3.289902    5.069947   -0.180338
     80          8           0        2.026254    4.477436    2.008695
     81          1           0        1.980901    4.178216    2.942587
     82          7           0        3.559754    0.758099    3.381717
     83          1           0        3.975806    0.219566    2.630243
     84          6           0        3.963643    0.355725    4.724713
     85          1           0        3.762612    1.203685    5.386374
     86          6           0        5.469813    0.054272    4.627963
     87          6           0        3.186093   -0.896578    5.235103
     88          1           0        3.528213   -1.747692    4.629225
     89          8           0        5.925586   -0.495993    3.623335
     90          6           0        3.507651   -1.184885    6.710541
     91          1           0        3.177057   -0.357323    7.351874
     92          1           0        4.574119   -1.345227    6.895589
     93          1           0        2.978340   -2.084792    7.041413
     94          6           0        1.672123   -0.739210    5.033088
     95          1           0        1.294582    0.150044    5.551372
     96          1           0        1.150592   -1.614064    5.437912
     97          1           0        1.415344   -0.656013    3.972943
     98          7           0        6.230380    0.424076    5.684282
     99          1           0        5.787012    0.672829    6.563655
    100          6           0        7.610059   -0.031746    5.821598
    101          1           0        7.638630   -1.100639    5.560990
    102          6           0        7.939228    0.058299    7.329558
    103          6           0        8.596589    0.702973    4.886508
    104          1           0        9.023775    1.569175    5.404721
    105          1           0        8.028914    1.098719    4.040831
    106          8           0        9.211235    0.066756    7.707899
    107          6           0        9.701608   -0.234435    4.350829
    108          1           0        9.916575   -1.020854    5.087571
    109          1           0        9.299995   -0.754730    3.473948
    110          6           0       11.024048    0.473107    3.998825
    111          1           0       11.506437   -0.017508    3.144724
    112          1           0       10.827938    1.507137    3.680516
    113          6           0       12.026065    0.461309    5.158281
    114          1           0       12.940348    1.003532    4.874730
    115          1           0       12.317859   -0.574867    5.365893
    116          7           0       11.427042    0.991730    6.402690
    117          1           0       12.071025    0.860892    7.182813
    118          1           0       11.292702    2.000225    6.321670
    119          1           0        9.910282    0.306763    7.020952
    120          8           0        7.038377    0.070530    8.147315
    121          1           0        1.416739   -1.764831   -6.004081
 ---------------------------------------------------------------------

 SCF Done:  E(RB3LYP) =  -2843.68022122     A.U. after    1 cycles

 Alpha  occ. eigenvalues --  -19.31832 -19.27421 -19.25566 -19.21132 -19.20325
 Alpha  occ. eigenvalues --  -19.19287 -19.19142 -19.18588 -19.17640 -19.16852
 Alpha  occ. eigenvalues --  -19.16683 -14.57644 -14.49325 -14.45815 -14.44865
 Alpha  occ. eigenvalues --  -14.43585 -14.42740 -14.41927 -14.40703 -14.40115
 Alpha  occ. eigenvalues --  -10.45021 -10.42800 -10.40151 -10.37790 -10.36681
 Alpha  occ. eigenvalues --  -10.35560 -10.35554 -10.34682 -10.33777 -10.33620
 Alpha  occ. eigenvalues --  -10.33118 -10.32501 -10.30618 -10.30191 -10.30018
 Alpha  occ. eigenvalues --  -10.29936 -10.29853 -10.29437 -10.29433 -10.28402
 Alpha  occ. eigenvalues --  -10.28225 -10.28182 -10.27310 -10.26673 -10.26053
 Alpha  occ. eigenvalues --  -10.26014 -10.25894 -10.25623 -10.25496 -10.25102
 Alpha  occ. eigenvalues --  -10.24221 -10.23969 -10.23726 -10.23505 -10.23224
 Alpha  occ. eigenvalues --  -10.22743 -10.22739 -10.21667 -10.21373  -1.23256
 Alpha  occ. eigenvalues --   -1.18033  -1.14022  -1.12637  -1.12622  -1.12018
 Alpha  occ. eigenvalues --   -1.11333  -1.10502  -1.09461  -1.08439  -1.06688
 Alpha  occ. eigenvalues --   -1.05779  -1.05410  -1.04521  -1.01380  -1.00010
 Alpha  occ. eigenvalues --   -0.98936  -0.98165  -0.97223  -0.95795  -0.92537
 Alpha  occ. eigenvalues --   -0.91110  -0.90591  -0.88963  -0.86932  -0.85719
 Alpha  occ. eigenvalues --   -0.85232  -0.84716  -0.83170  -0.83089  -0.80842
 Alpha  occ. eigenvalues --   -0.80607  -0.80501  -0.79472  -0.78699  -0.77383
 Alpha  occ. eigenvalues --   -0.76019  -0.75376  -0.74349  -0.73680  -0.73312
 Alpha  occ. eigenvalues --   -0.72753  -0.72404  -0.72205  -0.70896  -0.69721
 Alpha  occ. eigenvalues --   -0.69597  -0.68015  -0.67781  -0.66920  -0.66809
 Alpha  occ. eigenvalues --   -0.65933  -0.65650  -0.65550  -0.65111  -0.64297
 Alpha  occ. eigenvalues --   -0.64125  -0.63859  -0.63668  -0.62677  -0.62433
 Alpha  occ. eigenvalues --   -0.62261  -0.61716  -0.61171  -0.61054  -0.60455
 Alpha  occ. eigenvalues --   -0.59948  -0.59706  -0.58553  -0.57793  -0.57281
 Alpha  occ. eigenvalues --   -0.56702  -0.56569  -0.56528  -0.56111  -0.55893
 Alpha  occ. eigenvalues --   -0.55099  -0.54565  -0.54395  -0.54216  -0.53900
 Alpha  occ. eigenvalues --   -0.53566  -0.53404  -0.53334  -0.52803  -0.52185
 Alpha  occ. eigenvalues --   -0.52148  -0.52119  -0.51716  -0.51419  -0.51113
 Alpha  occ. eigenvalues --   -0.50998  -0.50744  -0.50379  -0.50171  -0.50066
 Alpha  occ. eigenvalues --   -0.49994  -0.49735  -0.49404  -0.48813  -0.48550
 Alpha  occ. eigenvalues --   -0.48264  -0.48169  -0.48037  -0.47757  -0.47737
 Alpha  occ. eigenvalues --   -0.47268  -0.47146  -0.47047  -0.46696  -0.46346
 Alpha  occ. eigenvalues --   -0.45868  -0.45693  -0.45498  -0.45046  -0.44929
 Alpha  occ. eigenvalues --   -0.44666  -0.44431  -0.44268  -0.44193  -0.44102
 Alpha  occ. eigenvalues --   -0.43889  -0.43572  -0.43470  -0.43323  -0.43137
 Alpha  occ. eigenvalues --   -0.42614  -0.42443  -0.42067  -0.41967  -0.41239
 Alpha  occ. eigenvalues --   -0.40901  -0.40677  -0.40635  -0.40361  -0.40150
 Alpha  occ. eigenvalues --   -0.39951  -0.39335  -0.39257  -0.38952  -0.38926
 Alpha  occ. eigenvalues --   -0.38779  -0.38668  -0.38282  -0.38092  -0.37919
 Alpha  occ. eigenvalues --   -0.37557  -0.35126  -0.34920  -0.34240  -0.34173
 Alpha  occ. eigenvalues --   -0.33720  -0.33390  -0.32799  -0.32706  -0.32413
 Alpha  occ. eigenvalues --   -0.32155  -0.31688  -0.30763  -0.30243  -0.30074
 Alpha  occ. eigenvalues --   -0.29755  -0.29722  -0.28164
 Alpha virt. eigenvalues --   -0.12283  -0.12023  -0.08721  -0.08025  -0.07081
 Alpha virt. eigenvalues --   -0.05484  -0.04927  -0.04525  -0.03896  -0.03845
 Alpha virt. eigenvalues --   -0.03209  -0.02783  -0.02446  -0.02168  -0.01762

 Mulliken charges:
               1
     1  N   -0.769762
     2  H    0.402079
     3  H    0.448956
     4  H    0.420587
     5  C   -0.123855
     6  H    0.230062
     7  C    0.666475
     8  C   -0.479841
     9  H    0.197108
    10  H    0.189227
    11  H    0.200541
    12  O   -0.540365
    13  N   -0.599078
    14  H    0.349116
    15  C   -0.048371
    16  H    0.185694
    17  C    0.627186
    18  C   -0.398803
    19  H    0.191749
    20  H    0.184634
    21  O   -0.535925
    22  C    0.034589
    23  C   -0.021422
    24  H    0.163952
    25  C    0.088725
    26  C    0.306256
    27  C   -0.214211
    28  H    0.127903
    29  N   -0.683626
    30  H    0.339603
    31  C   -0.149609
    32  H    0.143539
    33  C   -0.161742
    34  H    0.138646
    35  C   -0.139065
    36  H    0.139130
    37  N   -0.590311
    38  H    0.365868
    39  C   -0.065954
    40  H    0.186881
    41  C    0.626319
    42  C   -0.279374
    43  H    0.169495
    44  H    0.182532
    45  O   -0.538453
    46  C   -0.341992
    47  H    0.205802
    48  H    0.177610
    49  C    0.591986
    50  O   -0.522968
    51  O   -0.518044
    52  N   -0.607570
    53  H    0.352599
    54  C   -0.058662
    55  H    0.174797
    56  C    0.629889
    57  C   -0.072825
    58  H    0.144376
    59  O   -0.554038
    60  C   -0.486796
    61  H    0.143431
    62  H    0.161164
    63  H    0.180921
    64  C   -0.445159
    65  H    0.158381
    66  H    0.144204
    67  H    0.153182
    68  N   -0.596225
    69  H    0.354351
    70  C   -0.077158
    71  H    0.160296
    72  C    0.656521
    73  C    0.113631
    74  H    0.139340
    75  O   -0.566493
    76  C   -0.449044
    77  H    0.144342
    78  H    0.150979
    79  H    0.174561
    80  O   -0.647220
    81  H    0.423835
    82  N   -0.592828
    83  H    0.356146
    84  C   -0.056159
    85  H    0.176845
    86  C    0.616888
    87  C   -0.075795
    88  H    0.142652
    89  O   -0.552355
    90  C   -0.468777
    91  H    0.150967
    92  H    0.163291
    93  H    0.155395
    94  C   -0.467079
    95  H    0.158265
    96  H    0.144704
    97  H    0.163846
    98  N   -0.616644
    99  H    0.360813
   100  C   -0.042996
   101  H    0.190760
   102  C    0.577188
   103  C   -0.284779
   104  H    0.135970
   105  H    0.174474
   106  O   -0.617206
   107  C   -0.278242
   108  H    0.141808
   109  H    0.164750
   110  C   -0.271238
   111  H    0.151094
   112  H    0.140703
   113  C   -0.143782
   114  H    0.143358
   115  H    0.160731
   116  N   -0.765891
   117  H    0.336550
   118  H    0.324845
   119  H    0.484314
   120  O   -0.472261
   121  H    0.430587
 Sum of Mulliken charges =   1.00000

 Dipole moment (field-independent basis, Debye):
    X=             -6.4099    Y=             -9.4161    Z=            -27.5430  Tot=             29.8055
 Quadrupole moment (field-independent basis, Debye-Ang):
   XX=            -98.5745   YY=           -307.2893   ZZ=           -144.5931
   XY=             84.8515   XZ=            152.0667   YZ=             80.2115

 Normal termination of Gaussian 16 at Thu Jun 30 12:41:19 2022.
