 Gaussian 16, Revision C.01,
 Gaussian 16:  ES64L-G16RevC.01  3-Jul-2019

 -------------------------------------------------------------------
 # B3LYP/6-31G* guess=read geom=check nosymm integral(ultrafinegrid)
 -------------------------------------------------------------------

 ------------------------------------------------------
 Candidate Structure: Conf:684 Charge calc in gas phase
 ------------------------------------------------------
 Structure from the checkpoint file:  "conf-684.chk"
 Charge =  1 Multiplicity = 1

                          Input orientation:
 ---------------------------------------------------------------------
 Center     Atomic      Atomic             Coordinates (Angstroms)
 Number     Number       Type             X           Y           Z
 ---------------------------------------------------------------------
      1          7           0       -4.646456    1.951924   -1.702774
      2          1           0       -4.741254    1.046594   -1.213802
      3          1           0       -5.021288    2.717970   -1.138544
      4          1           0       -3.604727    2.064716   -1.857794
      5          6           0       -5.344825    1.792136   -3.033855
      6          1           0       -6.415777    1.719059   -2.814189
      7          6           0       -4.842746    0.397488   -3.489995
      8          6           0       -5.055338    2.984778   -3.937419
      9          1           0       -5.593146    2.881702   -4.884568
     10          1           0       -5.405391    3.915643   -3.478361
     11          1           0       -3.984900    3.075789   -4.142981
     12          8           0       -4.578129   -0.423665   -2.611197
     13          7           0       -4.639072    0.190275   -4.803195
     14          1           0       -5.060616    0.789856   -5.506357
     15          6           0       -4.014451   -1.048416   -5.281210
     16          1           0       -4.591760   -1.907130   -4.929327
     17          6           0       -2.599691   -1.222279   -4.688379
     18          6           0       -3.961180   -1.036716   -6.831484
     19          1           0       -3.207662   -0.307182   -7.154108
     20          1           0       -3.592355   -2.022752   -7.136070
     21          8           0       -2.121737   -2.332842   -4.525029
     22          6           0       -5.278902   -0.719768   -7.475016
     23          6           0       -5.570213    0.409209   -8.209525
     24          1           0       -4.922592    1.225804   -8.502172
     25          6           0       -6.485734   -1.514792   -7.450398
     26          6           0       -7.466708   -0.805313   -8.194027
     27          6           0       -6.827218   -2.758905   -6.888309
     28          1           0       -6.096691   -3.337321   -6.328689
     29          7           0       -6.881682    0.367955   -8.634385
     30          1           0       -7.307418    1.028087   -9.267261
     31          6           0       -9.069559   -2.525722   -7.815126
     32          1           0      -10.064845   -2.939687   -7.947257
     33          6           0       -8.762917   -1.296170   -8.384300
     34          1           0       -9.499738   -0.742633   -8.959811
     35          6           0       -8.111730   -3.250741   -7.075796
     36          1           0       -8.385330   -4.212755   -6.652744
     37          7           0       -1.926317   -0.055333   -4.435539
     38          1           0       -2.452980    0.806536   -4.488775
     39          6           0       -0.803599   -0.002527   -3.518410
     40          1           0       -0.712228   -0.999265   -3.077481
     41          6           0       -1.145719    0.982079   -2.381413
     42          6           0        0.535790    0.356665   -4.229548
     43          1           0        0.286754    0.878228   -5.158946
     44          1           0        1.121553    1.055166   -3.622615
     45          8           0       -2.064528    1.827790   -2.507340
     46          6           0        1.391114   -0.881448   -4.559103
     47          1           0        0.743444   -1.709173   -4.879730
     48          1           0        2.077827   -0.679179   -5.385080
     49          6           0        2.251973   -1.378309   -3.412343
     50          8           0        3.337215   -1.889959   -3.520269
     51          8           0        1.659896   -1.185802   -2.191625
     52          7           0       -0.381120    0.850519   -1.297729
     53          1           0        0.383566    0.172764   -1.335871
     54          6           0       -0.352821    1.720875   -0.122058
     55          1           0       -0.848034    2.662804   -0.381716
     56          6           0        1.144906    1.925081    0.184098
     57          6           0       -1.057796    1.065163    1.103413
     58          1           0       -0.531998    0.117990    1.282590
     59          8           0        1.917894    0.972254    0.073543
     60          6           0       -0.936557    1.932134    2.366889
     61          1           0       -1.385991    2.922997    2.210426
     62          1           0       -1.476791    1.457792    3.193161
     63          1           0        0.101107    2.069240    2.683345
     64          6           0       -2.529386    0.746866    0.805933
     65          1           0       -3.101872    1.678232    0.680204
     66          1           0       -2.648187    0.124466   -0.087740
     67          1           0       -2.973818    0.206109    1.647886
     68          7           0        1.516647    3.153837    0.589206
     69          1           0        0.865125    3.929708    0.585386
     70          6           0        2.852987    3.467880    1.073543
     71          1           0        3.561026    3.471536    0.232083
     72          6           0        3.288200    2.439091    2.142866
     73          6           0        2.789627    4.878835    1.722303
     74          1           0        2.244809    4.767966    2.664943
     75          8           0        2.544721    2.167601    3.083787
     76          6           0        4.169614    5.472221    1.977820
     77          1           0        4.770940    4.822485    2.620953
     78          1           0        4.718836    5.609780    1.036318
     79          1           0        4.070864    6.446509    2.464645
     80          8           0        1.971809    5.752553    0.936495
     81          1           0        2.498732    6.054662    0.177774
     82          7           0        4.535529    1.949702    1.995132
     83          1           0        5.101630    2.157027    1.178411
     84          6           0        5.127412    0.970884    2.896832
     85          1           0        4.927609    1.288224    3.926832
     86          6           0        6.638461    1.021632    2.609372
     87          6           0        4.501312   -0.448621    2.703419
     88          1           0        3.423931   -0.274393    2.806093
     89          8           0        7.060844    1.422282    1.521844
     90          6           0        4.761490   -1.022026    1.303932
     91          1           0        5.828720   -1.193075    1.121327
     92          1           0        4.384247   -0.350335    0.526248
     93          1           0        4.250283   -1.985929    1.196334
     94          6           0        4.918851   -1.427075    3.810698
     95          1           0        5.976531   -1.705425    3.748072
     96          1           0        4.336566   -2.351476    3.731174
     97          1           0        4.733746   -1.011994    4.809550
     98          7           0        7.450741    0.598035    3.603016
     99          1           0        7.079180    0.213040    4.464834
    100          6           0        8.888920    0.455982    3.431591
    101          1           0        9.078408    0.126964    2.401591
    102          6           0        9.333018   -0.639074    4.410544
    103          6           0        9.625932    1.803261    3.653524
    104          1           0        9.410079    2.155624    4.670230
    105          1           0        9.157521    2.510448    2.959701
    106          8           0       10.554986   -1.170317    4.211017
    107          6           0       11.140032    1.768638    3.405404
    108          1           0       11.642164    1.194274    4.195576
    109          1           0       11.362811    1.270109    2.451261
    110          6           0       11.767537    3.167983    3.353632
    111          1           0       11.264615    3.763712    2.577145
    112          1           0       11.595144    3.692000    4.303589
    113          6           0       13.274692    3.140248    3.071969
    114          1           0       13.775426    2.550536    3.850564
    115          1           0       13.670386    4.167709    3.153564
    116          7           0       13.554635    2.495960    1.781613
    117          1           0       14.558310    2.363330    1.671171
    118          1           0       10.988591   -0.761856    3.442083
    119          1           0       13.268936    3.113826    1.022292
    120          8           0        8.639800   -1.014215    5.327585
    121          1           0        2.302096   -1.463641   -1.509934
 ---------------------------------------------------------------------

 SCF Done:  E(RB3LYP) =  -2843.66285849     A.U. after    3 cycles

 Alpha  occ. eigenvalues --  -19.27511 -19.25593 -19.25081 -19.24305 -19.23575
 Alpha  occ. eigenvalues --  -19.21126 -19.20462 -19.20435 -19.19767 -19.18160
 Alpha  occ. eigenvalues --  -19.17963 -14.57343 -14.48874 -14.46610 -14.46051
 Alpha  occ. eigenvalues --  -14.44734 -14.44709 -14.42406 -14.42316 -14.35876
 Alpha  occ. eigenvalues --  -10.42420 -10.40482 -10.39775 -10.39492 -10.38082
 Alpha  occ. eigenvalues --  -10.37775 -10.37611 -10.35460 -10.35243 -10.33426
 Alpha  occ. eigenvalues --  -10.33091 -10.32932 -10.32860 -10.32323 -10.31236
 Alpha  occ. eigenvalues --  -10.30596 -10.30348 -10.29543 -10.29416 -10.29183
 Alpha  occ. eigenvalues --  -10.28643 -10.28593 -10.27942 -10.27368 -10.27062
 Alpha  occ. eigenvalues --  -10.26130 -10.26066 -10.25844 -10.25560 -10.25495
 Alpha  occ. eigenvalues --  -10.25401 -10.25051 -10.24983 -10.24866 -10.24846
 Alpha  occ. eigenvalues --  -10.23793 -10.23294 -10.22762 -10.22498  -1.17738
 Alpha  occ. eigenvalues --   -1.17714  -1.16229  -1.15040  -1.12602  -1.12490
 Alpha  occ. eigenvalues --   -1.11729  -1.10839  -1.10346  -1.09486  -1.08885
 Alpha  occ. eigenvalues --   -1.08088  -1.05969  -1.05321  -1.03373  -1.01502
 Alpha  occ. eigenvalues --   -1.00935  -0.99140  -0.98712  -0.92557  -0.92334
 Alpha  occ. eigenvalues --   -0.91164  -0.90303  -0.89266  -0.88429  -0.86976
 Alpha  occ. eigenvalues --   -0.85812  -0.84979  -0.84874  -0.82970  -0.80987
 Alpha  occ. eigenvalues --   -0.80884  -0.80588  -0.80326  -0.79464  -0.78442
 Alpha  occ. eigenvalues --   -0.76919  -0.76402  -0.75302  -0.74120  -0.73609
 Alpha  occ. eigenvalues --   -0.73544  -0.72357  -0.72039  -0.70111  -0.70041
 Alpha  occ. eigenvalues --   -0.69727  -0.68814  -0.68230  -0.67919  -0.67894
 Alpha  occ. eigenvalues --   -0.67576  -0.67506  -0.66973  -0.66642  -0.66089
 Alpha  occ. eigenvalues --   -0.65213  -0.64692  -0.64184  -0.63488  -0.63453
 Alpha  occ. eigenvalues --   -0.62414  -0.61903  -0.61196  -0.60778  -0.60250
 Alpha  occ. eigenvalues --   -0.59429  -0.58636  -0.58558  -0.58119  -0.56960
 Alpha  occ. eigenvalues --   -0.56681  -0.56198  -0.56166  -0.55957  -0.55866
 Alpha  occ. eigenvalues --   -0.55563  -0.54847  -0.54637  -0.54505  -0.54028
 Alpha  occ. eigenvalues --   -0.53902  -0.53676  -0.53500  -0.53148  -0.52743
 Alpha  occ. eigenvalues --   -0.52557  -0.52215  -0.52155  -0.52121  -0.51749
 Alpha  occ. eigenvalues --   -0.51661  -0.51332  -0.51219  -0.50877  -0.50642
 Alpha  occ. eigenvalues --   -0.50500  -0.50258  -0.50017  -0.49907  -0.49772
 Alpha  occ. eigenvalues --   -0.49523  -0.49319  -0.49011  -0.48748  -0.48616
 Alpha  occ. eigenvalues --   -0.48034  -0.47906  -0.47718  -0.47474  -0.47436
 Alpha  occ. eigenvalues --   -0.47230  -0.47035  -0.46249  -0.46004  -0.46002
 Alpha  occ. eigenvalues --   -0.45865  -0.45438  -0.45411  -0.45013  -0.44939
 Alpha  occ. eigenvalues --   -0.44830  -0.44792  -0.44496  -0.44314  -0.43692
 Alpha  occ. eigenvalues --   -0.43375  -0.43252  -0.43002  -0.42493  -0.42281
 Alpha  occ. eigenvalues --   -0.42023  -0.41936  -0.40935  -0.40809  -0.40762
 Alpha  occ. eigenvalues --   -0.40678  -0.39894  -0.39305  -0.39275  -0.39256
 Alpha  occ. eigenvalues --   -0.39121  -0.38876  -0.38850  -0.38599  -0.38375
 Alpha  occ. eigenvalues --   -0.38127  -0.37112  -0.37061  -0.36611  -0.35179
 Alpha  occ. eigenvalues --   -0.34932  -0.34497  -0.34234  -0.33910  -0.33707
 Alpha  occ. eigenvalues --   -0.33671  -0.32627  -0.31886  -0.31511  -0.30928
 Alpha  occ. eigenvalues --   -0.29812  -0.28310  -0.28094
 Alpha virt. eigenvalues --   -0.12201  -0.09593  -0.08842  -0.07922  -0.07008
 Alpha virt. eigenvalues --   -0.06389  -0.06176  -0.05420  -0.04923  -0.04865
 Alpha virt. eigenvalues --   -0.04163  -0.03514  -0.02569  -0.02009  -0.01441

 Mulliken charges:
               1
     1  N   -0.768546
     2  H    0.423902
     3  H    0.397353
     4  H    0.454512
     5  C   -0.116965
     6  H    0.224975
     7  C    0.655313
     8  C   -0.484176
     9  H    0.192611
    10  H    0.184777
    11  H    0.204418
    12  O   -0.517486
    13  N   -0.643405
    14  H    0.345547
    15  C   -0.020554
    16  H    0.207812
    17  C    0.615110
    18  C   -0.393284
    19  H    0.155740
    20  H    0.201469
    21  O   -0.502172
    22  C    0.042757
    23  C   -0.023295
    24  H    0.157656
    25  C    0.088984
    26  C    0.307478
    27  C   -0.214084
    28  H    0.138486
    29  N   -0.683592
    30  H    0.339830
    31  C   -0.147829
    32  H    0.145051
    33  C   -0.160463
    34  H    0.139233
    35  C   -0.137926
    36  H    0.142081
    37  N   -0.602542
    38  H    0.332194
    39  C   -0.063311
    40  H    0.216555
    41  C    0.614206
    42  C   -0.275531
    43  H    0.166190
    44  H    0.164797
    45  O   -0.623535
    46  C   -0.373799
    47  H    0.215641
    48  H    0.193519
    49  C    0.591494
    50  O   -0.433255
    51  O   -0.592030
    52  N   -0.603605
    53  H    0.416606
    54  C   -0.062190
    55  H    0.146716
    56  C    0.645722
    57  C   -0.067016
    58  H    0.162419
    59  O   -0.552185
    60  C   -0.490059
    61  H    0.127189
    62  H    0.160577
    63  H    0.218315
    64  C   -0.470501
    65  H    0.101293
    66  H    0.159691
    67  H    0.176219
    68  N   -0.617563
    69  H    0.351795
    70  C   -0.030508
    71  H    0.145144
    72  C    0.651203
    73  C    0.098453
    74  H    0.182968
    75  O   -0.541411
    76  C   -0.480620
    77  H    0.176982
    78  H    0.144205
    79  H    0.180955
    80  O   -0.630100
    81  H    0.396601
    82  N   -0.619801
    83  H    0.355393
    84  C   -0.044682
    85  H    0.170821
    86  C    0.627326
    87  C   -0.075906
    88  H    0.168964
    89  O   -0.552617
    90  C   -0.465814
    91  H    0.155443
    92  H    0.160452
    93  H    0.141265
    94  C   -0.471732
    95  H    0.157266
    96  H    0.157297
    97  H    0.150074
    98  N   -0.621426
    99  H    0.363134
   100  C   -0.082247
   101  H    0.182054
   102  C    0.611116
   103  C   -0.253313
   104  H    0.152195
   105  H    0.172483
   106  O   -0.556689
   107  C   -0.301258
   108  H    0.146825
   109  H    0.159387
   110  C   -0.257930
   111  H    0.132159
   112  H    0.140158
   113  C   -0.143936
   114  H    0.144846
   115  H    0.125959
   116  N   -0.719300
   117  H    0.305973
   118  H    0.428733
   119  H    0.296335
   120  O   -0.450902
   121  H    0.432688
 Sum of Mulliken charges =   1.00000

 Dipole moment (field-independent basis, Debye):
    X=            -10.8931    Y=             16.3997    Z=            -14.1751  Tot=             24.2599
 Quadrupole moment (field-independent basis, Debye-Ang):
   XX=           -111.9400   YY=           -306.8359   ZZ=           -258.7599
   XY=             12.6136   XZ=            103.4462   YZ=            -26.8087

 Normal termination of Gaussian 16 at Thu Jun 30 12:42:29 2022.
