 Gaussian 16, Revision C.01,
 Gaussian 16:  ES64L-G16RevC.01  3-Jul-2019

 -------------------------------------------------------------------
 # B3LYP/6-31G* guess=read geom=check nosymm integral(ultrafinegrid)
 -------------------------------------------------------------------

 ------------------------------------------------------
 Candidate Structure: Conf:156 Charge calc in gas phase
 ------------------------------------------------------
 Structure from the checkpoint file:  "conf-156.chk"
 Charge =  1 Multiplicity = 1

                          Input orientation:
 ---------------------------------------------------------------------
 Center     Atomic      Atomic             Coordinates (Angstroms)
 Number     Number       Type             X           Y           Z
 ---------------------------------------------------------------------
      1          7           0       -4.356998   -4.170884   -6.480975
      2          1           0       -4.798703   -4.713020   -7.227417
      3          1           0       -3.901680   -4.819619   -5.830989
      4          1           0       -3.622252   -3.497236   -6.867734
      5          6           0       -5.300023   -3.216687   -5.768281
      6          1           0       -6.200965   -3.145759   -6.384824
      7          6           0       -4.511458   -1.875695   -5.831047
      8          6           0       -5.630626   -3.696501   -4.357236
      9          1           0       -6.392834   -3.048124   -3.914518
     10          1           0       -6.042225   -4.711051   -4.371298
     11          1           0       -4.745153   -3.662238   -3.713725
     12          8           0       -3.473875   -1.854151   -6.509580
     13          7           0       -5.003423   -0.846776   -5.149848
     14          1           0       -5.878194   -0.942367   -4.644194
     15          6           0       -4.234229    0.377948   -4.940213
     16          1           0       -4.051247    0.841365   -5.915939
     17          6           0       -2.892066    0.006401   -4.262561
     18          6           0       -5.030420    1.360562   -4.028419
     19          1           0       -4.917013    1.032775   -2.987922
     20          1           0       -4.541421    2.337689   -4.096376
     21          8           0       -2.782869   -1.018477   -3.587531
     22          6           0       -6.488834    1.466408   -4.367611
     23          6           0       -7.090461    2.330842   -5.251630
     24          1           0       -6.659651    3.134506   -5.833742
     25          6           0       -7.536593    0.613602   -3.855600
     26          6           0       -8.747891    1.011249   -4.487392
     27          6           0       -7.572926   -0.439140   -2.916866
     28          1           0       -6.678753   -0.724455   -2.365037
     29          7           0       -8.438794    2.058157   -5.331043
     30          1           0       -9.106253    2.593623   -5.866155
     31          6           0       -9.971047   -0.660233   -3.303531
     32          1           0      -10.905353   -1.161914   -3.070523
     33          6           0       -9.969569    0.384687   -4.220620
     34          1           0      -10.887098    0.705029   -4.706150
     35          6           0       -8.786947   -1.066179   -2.654105
     36          1           0       -8.832514   -1.861803   -1.915879
     37          7           0       -1.899017    0.904362   -4.432436
     38          1           0       -2.073339    1.755136   -4.953929
     39          6           0       -0.578573    0.768268   -3.797416
     40          1           0       -0.361219   -0.305155   -3.778499
     41          6           0       -0.628331    1.287438   -2.338663
     42          6           0        0.477616    1.516696   -4.614515
     43          1           0        0.156378    2.553166   -4.763901
     44          1           0        1.397380    1.573881   -4.024236
     45          8           0       -0.171139    2.389374   -2.034380
     46          6           0        0.757089    0.855904   -5.972489
     47          1           0        1.435274    0.003038   -5.877835
     48          1           0       -0.174293    0.469346   -6.411878
     49          6           0        1.315575    1.843648   -6.979567
     50          8           0        0.990623    3.007623   -7.063586
     51          8           0        2.201280    1.262651   -7.819055
     52          7           0       -1.205658    0.437954   -1.455534
     53          1           0       -1.516578   -0.465169   -1.797423
     54          6           0       -1.200764    0.673492   -0.002133
     55          1           0       -1.395274    1.740848    0.148432
     56          6           0        0.229733    0.311175    0.476319
     57          6           0       -2.276187   -0.163939    0.709063
     58          1           0       -1.993099   -1.217222    0.579976
     59          8           0        0.545146   -0.848160    0.730825
     60          6           0       -2.268088    0.140639    2.214966
     61          1           0       -2.506913    1.194277    2.408201
     62          1           0       -3.017200   -0.469383    2.731134
     63          1           0       -1.294359   -0.081334    2.660673
     64          6           0       -3.673947    0.062116    0.112580
     65          1           0       -3.972113    1.115395    0.193395
     66          1           0       -3.722760   -0.224881   -0.944172
     67          1           0       -4.416116   -0.533569    0.656141
     68          7           0        1.086916    1.358810    0.457686
     69          1           0        0.739533    2.306184    0.344499
     70          6           0        2.524804    1.269969    0.626538
     71          1           0        2.756214    0.430883    1.290687
     72          6           0        2.972260    2.605420    1.253284
     73          6           0        3.241767    1.054852   -0.745087
     74          1           0        4.319121    1.171889   -0.575017
     75          8           0        2.237802    3.590141    1.233043
     76          6           0        2.995241   -0.333815   -1.340584
     77          1           0        3.322499   -1.127562   -0.660685
     78          1           0        1.933195   -0.497869   -1.548041
     79          1           0        3.552786   -0.420839   -2.279002
     80          8           0        2.902661    2.086952   -1.662960
     81          1           0        1.934649    2.207868   -1.661507
     82          7           0        4.210711    2.588230    1.805302
     83          1           0        4.828827    1.802432    1.619526
     84          6           0        4.937798    3.801547    2.152544
     85          1           0        4.441572    4.639848    1.650666
     86          6           0        6.362396    3.621924    1.589844
     87          6           0        4.962172    4.090457    3.682972
     88          1           0        5.571979    4.996868    3.809458
     89          8           0        6.781867    2.509174    1.262322
     90          6           0        3.553150    4.393335    4.210120
     91          1           0        2.903859    3.515555    4.124174
     92          1           0        3.079165    5.209050    3.654563
     93          1           0        3.598198    4.676500    5.267989
     94          6           0        5.623677    2.956485    4.478820
     95          1           0        5.048261    2.028319    4.383664
     96          1           0        5.665243    3.213970    5.542712
     97          1           0        6.645997    2.754534    4.141670
     98          7           0        7.109720    4.744828    1.519644
     99          1           0        6.730240    5.649789    1.775394
    100          6           0        8.502258    4.752237    1.099162
    101          1           0        8.993071    3.855486    1.484085
    102          6           0        9.170597    5.988655    1.679246
    103          6           0        8.634173    4.774825   -0.460233
    104          1           0        7.833638    5.416788   -0.848400
    105          1           0        8.413200    3.758226   -0.800091
    106          8           0       10.478782    5.816918    1.828618
    107          6           0        9.994462    5.252232   -1.019737
    108          1           0       10.799720    4.899876   -0.367968
    109          1           0       10.155022    4.770192   -1.991192
    110          6           0       10.090603    6.793602   -1.213635
    111          1           0        9.854138    7.026317   -2.258791
    112          1           0        9.316995    7.300369   -0.623627
    113          6           0       11.448691    7.442939   -0.876495
    114          1           0       11.624512    8.297274   -1.545549
    115          1           0       12.265052    6.732061   -1.046651
    116          7           0       11.524381    7.873959    0.544765
    117          1           0       12.457305    8.225897    0.756465
    118          1           0       10.878811    8.648571    0.701348
    119          1           0       10.957483    6.691497    1.582949
    120          8           0        8.566129    7.033751    1.865545
    121          1           0        2.488137    1.956980   -8.443147
 ---------------------------------------------------------------------

 SCF Done:  E(RB3LYP) =  -2843.65214963     A.U. after    2 cycles

 Alpha  occ. eigenvalues --  -19.27712 -19.25928 -19.22462 -19.20152 -19.19812
 Alpha  occ. eigenvalues --  -19.19166 -19.17774 -19.16797 -19.16157 -19.15838
 Alpha  occ. eigenvalues --  -19.15721 -14.60644 -14.50283 -14.47700 -14.46964
 Alpha  occ. eigenvalues --  -14.43444 -14.40428 -14.39983 -14.39594 -14.39300
 Alpha  occ. eigenvalues --  -10.44293 -10.41908 -10.39649 -10.38513 -10.36307
 Alpha  occ. eigenvalues --  -10.35678 -10.34621 -10.33973 -10.33531 -10.32917
 Alpha  occ. eigenvalues --  -10.32744 -10.32107 -10.31857 -10.31547 -10.30886
 Alpha  occ. eigenvalues --  -10.29231 -10.28521 -10.28445 -10.28385 -10.28329
 Alpha  occ. eigenvalues --  -10.28281 -10.27752 -10.27675 -10.27609 -10.27287
 Alpha  occ. eigenvalues --  -10.26980 -10.26875 -10.26518 -10.26493 -10.25508
 Alpha  occ. eigenvalues --  -10.24159 -10.23210 -10.22783 -10.22763 -10.22674
 Alpha  occ. eigenvalues --  -10.22223 -10.21700 -10.20567 -10.20299  -1.20208
 Alpha  occ. eigenvalues --   -1.16761  -1.14749  -1.14033  -1.12034  -1.10998
 Alpha  occ. eigenvalues --   -1.08437  -1.07788  -1.07743  -1.07681  -1.07169
 Alpha  occ. eigenvalues --   -1.07042  -1.05245  -1.03599  -1.02983  -0.99566
 Alpha  occ. eigenvalues --   -0.96859  -0.96568  -0.96217  -0.94734  -0.94170
 Alpha  occ. eigenvalues --   -0.93418  -0.91026  -0.88505  -0.86626  -0.86420
 Alpha  occ. eigenvalues --   -0.84580  -0.83432  -0.83134  -0.82323  -0.82070
 Alpha  occ. eigenvalues --   -0.81447  -0.80837  -0.79272  -0.77626  -0.77145
 Alpha  occ. eigenvalues --   -0.75991  -0.75178  -0.74423  -0.74397  -0.74225
 Alpha  occ. eigenvalues --   -0.72469  -0.72263  -0.71820  -0.71444  -0.71120
 Alpha  occ. eigenvalues --   -0.69680  -0.68655  -0.67187  -0.66866  -0.66788
 Alpha  occ. eigenvalues --   -0.65781  -0.65167  -0.65135  -0.64670  -0.64005
 Alpha  occ. eigenvalues --   -0.63736  -0.63509  -0.63156  -0.63007  -0.62237
 Alpha  occ. eigenvalues --   -0.62004  -0.61108  -0.60765  -0.60146  -0.59533
 Alpha  occ. eigenvalues --   -0.58781  -0.58290  -0.57965  -0.57427  -0.56590
 Alpha  occ. eigenvalues --   -0.56559  -0.55410  -0.55331  -0.55203  -0.55003
 Alpha  occ. eigenvalues --   -0.54667  -0.54602  -0.54000  -0.53856  -0.53498
 Alpha  occ. eigenvalues --   -0.53458  -0.52950  -0.52872  -0.52678  -0.52584
 Alpha  occ. eigenvalues --   -0.52179  -0.51939  -0.51888  -0.51389  -0.51100
 Alpha  occ. eigenvalues --   -0.50877  -0.50335  -0.50084  -0.49720  -0.49622
 Alpha  occ. eigenvalues --   -0.49576  -0.49039  -0.48945  -0.48652  -0.48364
 Alpha  occ. eigenvalues --   -0.48065  -0.47571  -0.47429  -0.47210  -0.46949
 Alpha  occ. eigenvalues --   -0.46865  -0.46682  -0.46503  -0.46170  -0.45510
 Alpha  occ. eigenvalues --   -0.45399  -0.45142  -0.45085  -0.44825  -0.44478
 Alpha  occ. eigenvalues --   -0.44148  -0.43959  -0.43513  -0.43221  -0.43188
 Alpha  occ. eigenvalues --   -0.43033  -0.42908  -0.42592  -0.42485  -0.42309
 Alpha  occ. eigenvalues --   -0.42219  -0.41544  -0.41312  -0.40984  -0.40795
 Alpha  occ. eigenvalues --   -0.40522  -0.40426  -0.40393  -0.39827  -0.39720
 Alpha  occ. eigenvalues --   -0.39700  -0.38851  -0.38003  -0.37908  -0.37562
 Alpha  occ. eigenvalues --   -0.37398  -0.37261  -0.37225  -0.36977  -0.36735
 Alpha  occ. eigenvalues --   -0.36606  -0.36260  -0.36052  -0.34168  -0.33936
 Alpha  occ. eigenvalues --   -0.33324  -0.32330  -0.31939  -0.31538  -0.31451
 Alpha  occ. eigenvalues --   -0.30779  -0.30571  -0.30192  -0.30070  -0.29336
 Alpha  occ. eigenvalues --   -0.29025  -0.28783  -0.28331
 Alpha virt. eigenvalues --   -0.13418  -0.11474  -0.10839  -0.08834  -0.07471
 Alpha virt. eigenvalues --   -0.06699  -0.06257  -0.05362  -0.05018  -0.04142
 Alpha virt. eigenvalues --   -0.02786  -0.02770  -0.02044  -0.01785  -0.01554

 Mulliken charges:
               1
     1  N   -0.756156
     2  H    0.416348
     3  H    0.418090
     4  H    0.438336
     5  C   -0.114502
     6  H    0.230712
     7  C    0.676062
     8  C   -0.494360
     9  H    0.212576
    10  H    0.190027
    11  H    0.213507
    12  O   -0.540856
    13  N   -0.609746
    14  H    0.372210
    15  C   -0.033494
    16  H    0.182534
    17  C    0.653822
    18  C   -0.414881
    19  H    0.196191
    20  H    0.181141
    21  O   -0.558387
    22  C    0.064410
    23  C    0.012615
    24  H    0.172842
    25  C    0.049764
    26  C    0.319298
    27  C   -0.255662
    28  H    0.144275
    29  N   -0.684219
    30  H    0.347191
    31  C   -0.152315
    32  H    0.151058
    33  C   -0.154936
    34  H    0.150580
    35  C   -0.143270
    36  H    0.142701
    37  N   -0.601692
    38  H    0.348053
    39  C   -0.070126
    40  H    0.181749
    41  C    0.630226
    42  C   -0.305940
    43  H    0.190496
    44  H    0.198557
    45  O   -0.530876
    46  C   -0.363798
    47  H    0.183877
    48  H    0.172564
    49  C    0.577628
    50  O   -0.456125
    51  O   -0.559797
    52  N   -0.618554
    53  H    0.361656
    54  C   -0.027445
    55  H    0.164110
    56  C    0.623400
    57  C   -0.099445
    58  H    0.152785
    59  O   -0.542595
    60  C   -0.461448
    61  H    0.146501
    62  H    0.150675
    63  H    0.178197
    64  C   -0.464796
    65  H    0.147948
    66  H    0.135788
    67  H    0.149443
    68  N   -0.614196
    69  H    0.365514
    70  C   -0.091483
    71  H    0.179075
    72  C    0.635111
    73  C    0.137902
    74  H    0.153137
    75  O   -0.535859
    76  C   -0.450867
    77  H    0.155406
    78  H    0.136399
    79  H    0.149430
    80  O   -0.655199
    81  H    0.423296
    82  N   -0.608022
    83  H    0.353619
    84  C   -0.066737
    85  H    0.177490
    86  C    0.629651
    87  C   -0.072256
    88  H    0.130968
    89  O   -0.553698
    90  C   -0.442048
    91  H    0.153926
    92  H    0.155624
    93  H    0.143496
    94  C   -0.460866
    95  H    0.149251
    96  H    0.150521
    97  H    0.159371
    98  N   -0.618329
    99  H    0.349628
   100  C   -0.004665
   101  H    0.187552
   102  C    0.572946
   103  C   -0.280752
   104  H    0.148125
   105  H    0.171944
   106  O   -0.601818
   107  C   -0.283812
   108  H    0.168619
   109  H    0.142089
   110  C   -0.289108
   111  H    0.147222
   112  H    0.162294
   113  C   -0.141976
   114  H    0.143695
   115  H    0.161701
   116  N   -0.773288
   117  H    0.329970
   118  H    0.337953
   119  H    0.455137
   120  O   -0.504221
   121  H    0.416616
 Sum of Mulliken charges =   1.00000

 Dipole moment (field-independent basis, Debye):
    X=            -20.7051    Y=             -7.0708    Z=            -29.7386  Tot=             36.9199
 Quadrupole moment (field-independent basis, Debye-Ang):
   XX=            -63.1030   YY=           -236.4419   ZZ=           -160.9348
   XY=            121.6802   XZ=            142.2323   YZ=             66.1373

 Normal termination of Gaussian 16 at Thu Jun 30 12:42:12 2022.
