 Gaussian 16, Revision C.01,
 Gaussian 16:  ES64L-G16RevC.01  3-Jul-2019

 -------------------------------------------------------------------
 # B3LYP/6-31G* guess=read geom=check nosymm integral(ultrafinegrid)
 -------------------------------------------------------------------

 ------------------------------------------------------
 Candidate Structure: Conf:474 Charge calc in gas phase
 ------------------------------------------------------
 Structure from the checkpoint file:  "conf-474.chk"
 Charge =  1 Multiplicity = 1

                          Input orientation:
 ---------------------------------------------------------------------
 Center     Atomic      Atomic             Coordinates (Angstroms)
 Number     Number       Type             X           Y           Z
 ---------------------------------------------------------------------
      1          7           0       -8.115094    0.505569   -6.331445
      2          1           0       -8.699742    0.602695   -5.474042
      3          1           0       -8.693122    0.204386   -7.120945
      4          1           0       -7.696396    1.445718   -6.496911
      5          6           0       -6.922270   -0.390374   -6.077456
      6          1           0       -7.267576   -1.224362   -5.462507
      7          6           0       -5.971417    0.546792   -5.291542
      8          6           0       -6.323548   -0.868220   -7.399327
      9          1           0       -5.451553   -1.496502   -7.197057
     10          1           0       -7.040698   -1.468918   -7.969300
     11          1           0       -5.993382   -0.021247   -8.009773
     12          8           0       -6.051733    1.760971   -5.511448
     13          7           0       -5.146222   -0.039248   -4.426806
     14          1           0       -5.167366   -1.043554   -4.250280
     15          6           0       -4.364902    0.681785   -3.428035
     16          1           0       -3.776561    1.462117   -3.920339
     17          6           0       -3.435914   -0.379157   -2.810312
     18          6           0       -5.285084    1.344450   -2.342524
     19          1           0       -4.654013    1.619953   -1.489340
     20          1           0       -5.663771    2.280842   -2.762004
     21          8           0       -3.726574   -1.575922   -2.884852
     22          6           0       -6.438427    0.477444   -1.917194
     23          6           0       -6.404755   -0.606040   -1.070637
     24          1           0       -5.578792   -1.017347   -0.507699
     25          6           0       -7.796566    0.562649   -2.401199
     26          6           0       -8.524974   -0.513303   -1.816566
     27          6           0       -8.483363    1.454264   -3.249729
     28          1           0       -7.976347    2.323217   -3.661024
     29          7           0       -7.646424   -1.202983   -1.012966
     30          1           0       -7.882812   -1.990494   -0.427388
     31          6           0      -10.523188    0.134456   -2.951682
     32          1           0      -11.577904   -0.005441   -3.168145
     33          6           0       -9.880590   -0.740437   -2.085656
     34          1           0      -10.415849   -1.567081   -1.627068
     35          6           0       -9.834219    1.229609   -3.523890
     36          1           0      -10.387651    1.947091   -4.126307
     37          7           0       -2.339122    0.101281   -2.192447
     38          1           0       -2.204801    1.101380   -2.075263
     39          6           0       -1.428814   -0.721182   -1.402587
     40          1           0       -1.977994   -1.616862   -1.093041
     41          6           0       -1.026239    0.125925   -0.182603
     42          6           0       -0.153585   -1.134132   -2.176867
     43          1           0        0.441294   -0.239140   -2.394921
     44          1           0        0.467008   -1.760909   -1.526953
     45          8           0       -1.128405    1.362004   -0.219691
     46          6           0       -0.449099   -1.904716   -3.465289
     47          1           0       -1.163681   -2.719243   -3.287892
     48          1           0       -0.909359   -1.264675   -4.224791
     49          6           0        0.810423   -2.515430   -4.048508
     50          8           0        1.866084   -2.638330   -3.470073
     51          8           0        0.608177   -2.939743   -5.317961
     52          7           0       -0.530568   -0.546469    0.874950
     53          1           0       -0.372070   -1.542992    0.781298
     54          6           0        0.134738    0.119834    2.012097
     55          1           0       -0.438877    1.029833    2.215717
     56          6           0        1.553190    0.481544    1.514397
     57          6           0        0.149345   -0.776990    3.261397
     58          1           0        0.756387   -1.659435    3.016994
     59          8           0        2.494848   -0.304715    1.599933
     60          6           0        0.833405   -0.046037    4.427438
     61          1           0        0.289643    0.868818    4.695518
     62          1           0        0.854462   -0.688498    5.313356
     63          1           0        1.866283    0.220323    4.187095
     64          6           0       -1.266232   -1.224463    3.655355
     65          1           0       -1.895194   -0.362109    3.909939
     66          1           0       -1.770058   -1.780691    2.857267
     67          1           0       -1.223200   -1.874143    4.535446
     68          7           0        1.637295    1.680728    0.884245
     69          1           0        0.811067    2.264325    0.860618
     70          6           0        2.777769    2.032599    0.033280
     71          1           0        3.207608    1.085569   -0.308897
     72          6           0        3.822930    2.787768    0.888118
     73          6           0        2.302368    2.832182   -1.198562
     74          1           0        1.977010    3.825945   -0.856901
     75          8           0        3.908006    4.024236    0.872899
     76          6           0        3.418531    2.984799   -2.224909
     77          1           0        4.302480    3.451939   -1.783035
     78          1           0        3.704103    2.002315   -2.615751
     79          1           0        3.072329    3.597427   -3.062296
     80          8           0        1.232701    2.161566   -1.866299
     81          1           0        0.449003    2.142136   -1.290135
     82          7           0        4.554121    1.974051    1.668464
     83          1           0        4.316477    0.986235    1.640369
     84          6           0        5.531618    2.397428    2.671637
     85          1           0        5.015794    2.999635    3.430618
     86          6           0        6.624295    3.281943    2.037605
     87          6           0        6.111586    1.122635    3.360994
     88          1           0        5.242715    0.462718    3.512499
     89          8           0        6.854438    3.222385    0.800264
     90          6           0        7.119256    0.381532    2.467653
     91          1           0        8.043584    0.958038    2.352863
     92          1           0        6.723063    0.190384    1.464159
     93          1           0        7.381785   -0.581048    2.918978
     94          6           0        6.692930    1.420767    4.751024
     95          1           0        7.539978    2.113305    4.726598
     96          1           0        7.036043    0.487850    5.211880
     97          1           0        5.935449    1.858155    5.412366
     98          7           0        7.247674    4.094387    2.876440
     99          1           0        7.111044    4.058045    3.917884
    100          6           0        8.552589    4.757062    2.723048
    101          1           0        9.265844    4.043791    2.290628
    102          6           0        9.011941    5.042173    4.232491
    103          6           0        8.567659    6.050977    1.898037
    104          1           0        9.347296    6.668133    2.355693
    105          1           0        7.623865    6.590755    2.076797
    106          8           0        8.243377    4.530458    5.100899
    107          6           0        8.862861    5.903440    0.379477
    108          1           0        9.933216    6.069574    0.218706
    109          1           0        8.671529    4.873935    0.051613
    110          6           0        8.073677    6.889011   -0.512959
    111          1           0        7.900127    7.826523    0.031471
    112          1           0        8.651346    7.159848   -1.404490
    113          6           0        6.736854    6.335406   -1.022226
    114          1           0        6.894669    5.590757   -1.807898
    115          1           0        6.092457    7.124772   -1.419960
    116          7           0        5.990166    5.620506    0.063967
    117          1           0        5.025643    5.342139   -0.158279
    118          1           0        6.464969    4.691656    0.321119
    119          1           0        5.942942    6.169837    0.925975
    120          8           0       10.042089    5.714140    4.348560
    121          1           0        1.447935   -3.342699   -5.611163
 ---------------------------------------------------------------------

 SCF Done:  E(RB3LYP) =  -2843.62166272     A.U. after    2 cycles

 Alpha  occ. eigenvalues --  -19.26871 -19.26792 -19.23807 -19.23701 -19.21749
 Alpha  occ. eigenvalues --  -19.21302 -19.20500 -19.19016 -19.16388 -19.07203
 Alpha  occ. eigenvalues --  -19.05923 -14.60158 -14.50007 -14.49157 -14.49135
 Alpha  occ. eigenvalues --  -14.47767 -14.47636 -14.44927 -14.42340 -14.38008
 Alpha  occ. eigenvalues --  -10.43914 -10.41356 -10.40863 -10.40534 -10.39589
 Alpha  occ. eigenvalues --  -10.37500 -10.36134 -10.35904 -10.34569 -10.34078
 Alpha  occ. eigenvalues --  -10.33302 -10.33010 -10.33000 -10.32756 -10.31612
 Alpha  occ. eigenvalues --  -10.31411 -10.31261 -10.30642 -10.30539 -10.30243
 Alpha  occ. eigenvalues --  -10.30121 -10.30012 -10.29839 -10.29511 -10.28562
 Alpha  occ. eigenvalues --  -10.28535 -10.28410 -10.27826 -10.25570 -10.25368
 Alpha  occ. eigenvalues --  -10.24930 -10.24690 -10.24650 -10.24479 -10.22758
 Alpha  occ. eigenvalues --  -10.22545 -10.21296 -10.20945 -10.20190  -1.19317
 Alpha  occ. eigenvalues --   -1.17771  -1.15934  -1.15132  -1.14162  -1.12373
 Alpha  occ. eigenvalues --   -1.10382  -1.09133  -1.09128  -1.08851  -1.07509
 Alpha  occ. eigenvalues --   -1.06741  -1.04471  -1.04215  -1.03778  -1.00950
 Alpha  occ. eigenvalues --   -1.00243  -0.98744  -0.95382  -0.94768  -0.93931
 Alpha  occ. eigenvalues --   -0.91742  -0.91416  -0.90521  -0.88880  -0.87555
 Alpha  occ. eigenvalues --   -0.86059  -0.85325  -0.85063  -0.84448  -0.83899
 Alpha  occ. eigenvalues --   -0.83159  -0.81531  -0.80448  -0.79920  -0.78579
 Alpha  occ. eigenvalues --   -0.77819  -0.76123  -0.75642  -0.74513  -0.74384
 Alpha  occ. eigenvalues --   -0.73603  -0.73296  -0.72612  -0.72224  -0.71883
 Alpha  occ. eigenvalues --   -0.70796  -0.70428  -0.69466  -0.68911  -0.68409
 Alpha  occ. eigenvalues --   -0.67528  -0.67111  -0.66878  -0.66281  -0.65711
 Alpha  occ. eigenvalues --   -0.65648  -0.65024  -0.64160  -0.63515  -0.63274
 Alpha  occ. eigenvalues --   -0.62935  -0.61927  -0.61744  -0.61010  -0.60526
 Alpha  occ. eigenvalues --   -0.59685  -0.59587  -0.59179  -0.59160  -0.58947
 Alpha  occ. eigenvalues --   -0.58594  -0.58145  -0.57744  -0.57595  -0.57212
 Alpha  occ. eigenvalues --   -0.56838  -0.56379  -0.55837  -0.55657  -0.55192
 Alpha  occ. eigenvalues --   -0.55125  -0.54827  -0.54620  -0.54326  -0.54098
 Alpha  occ. eigenvalues --   -0.53808  -0.53222  -0.53021  -0.52745  -0.52343
 Alpha  occ. eigenvalues --   -0.52121  -0.51983  -0.51646  -0.51483  -0.51190
 Alpha  occ. eigenvalues --   -0.51040  -0.50819  -0.50401  -0.50145  -0.49655
 Alpha  occ. eigenvalues --   -0.48875  -0.48670  -0.48523  -0.48464  -0.48216
 Alpha  occ. eigenvalues --   -0.48056  -0.47539  -0.47408  -0.47140  -0.47089
 Alpha  occ. eigenvalues --   -0.46663  -0.46631  -0.46445  -0.46341  -0.46024
 Alpha  occ. eigenvalues --   -0.45842  -0.45572  -0.45374  -0.45183  -0.45050
 Alpha  occ. eigenvalues --   -0.44668  -0.44334  -0.43974  -0.43473  -0.43294
 Alpha  occ. eigenvalues --   -0.42443  -0.42343  -0.42153  -0.41752  -0.41402
 Alpha  occ. eigenvalues --   -0.41286  -0.41154  -0.41030  -0.40592  -0.40272
 Alpha  occ. eigenvalues --   -0.39749  -0.39124  -0.38943  -0.38707  -0.38225
 Alpha  occ. eigenvalues --   -0.38074  -0.37896  -0.37637  -0.37369  -0.37295
 Alpha  occ. eigenvalues --   -0.36798  -0.36721  -0.36043  -0.35913  -0.35604
 Alpha  occ. eigenvalues --   -0.34950  -0.34816  -0.34290  -0.33967  -0.33612
 Alpha  occ. eigenvalues --   -0.32539  -0.31613  -0.31555  -0.30496  -0.29117
 Alpha  occ. eigenvalues --   -0.22147  -0.22115  -0.20225
 Alpha virt. eigenvalues --   -0.13278  -0.12654  -0.10599  -0.10101  -0.09552
 Alpha virt. eigenvalues --   -0.09163  -0.06805  -0.06237  -0.05465  -0.05248
 Alpha virt. eigenvalues --   -0.04759  -0.04047  -0.03524  -0.02800  -0.02537

 Mulliken charges:
               1
     1  N   -0.748116
     2  H    0.409681
     3  H    0.406677
     4  H    0.419304
     5  C   -0.121286
     6  H    0.216395
     7  C    0.671506
     8  C   -0.470385
     9  H    0.214438
    10  H    0.189256
    11  H    0.199841
    12  O   -0.541658
    13  N   -0.612943
    14  H    0.370461
    15  C   -0.037810
    16  H    0.194647
    17  C    0.630412
    18  C   -0.386944
    19  H    0.181243
    20  H    0.190356
    21  O   -0.548650
    22  C    0.066947
    23  C    0.023884
    24  H    0.174680
    25  C    0.077519
    26  C    0.313403
    27  C   -0.272297
    28  H    0.163602
    29  N   -0.682443
    30  H    0.349188
    31  C   -0.150587
    32  H    0.156846
    33  C   -0.155509
    34  H    0.156955
    35  C   -0.201006
    36  H    0.150728
    37  N   -0.605473
    38  H    0.359081
    39  C   -0.081463
    40  H    0.181623
    41  C    0.638404
    42  C   -0.282205
    43  H    0.197590
    44  H    0.175243
    45  O   -0.568913
    46  C   -0.359901
    47  H    0.195862
    48  H    0.175697
    49  C    0.586014
    50  O   -0.449569
    51  O   -0.569538
    52  N   -0.596506
    53  H    0.352764
    54  C   -0.044156
    55  H    0.171972
    56  C    0.627733
    57  C   -0.104381
    58  H    0.158881
    59  O   -0.531397
    60  C   -0.464505
    61  H    0.147533
    62  H    0.167532
    63  H    0.174440
    64  C   -0.448910
    65  H    0.150217
    66  H    0.132164
    67  H    0.168625
    68  N   -0.611299
    69  H    0.345554
    70  C   -0.075530
    71  H    0.188230
    72  C    0.667195
    73  C    0.110657
    74  H    0.136375
    75  O   -0.596388
    76  C   -0.459541
    77  H    0.149276
    78  H    0.169873
    79  H    0.163221
    80  O   -0.656757
    81  H    0.413919
    82  N   -0.622163
    83  H    0.372102
    84  C   -0.010708
    85  H    0.169464
    86  C    0.612969
    87  C   -0.125210
    88  H    0.133872
    89  O   -0.620810
    90  C   -0.452168
    91  H    0.171068
    92  H    0.146830
    93  H    0.153586
    94  C   -0.469804
    95  H    0.203979
    96  H    0.148496
    97  H    0.144486
    98  N   -0.608576
    99  H    0.380377
   100  C   -0.067539
   101  H    0.157536
   102  C    0.584480
   103  C   -0.290869
   104  H    0.206565
   105  H    0.094958
   106  O   -0.610564
   107  C   -0.302496
   108  H    0.166238
   109  H    0.163022
   110  C   -0.288604
   111  H    0.162726
   112  H    0.166178
   113  C   -0.176593
   114  H    0.192363
   115  H    0.179099
   116  N   -0.789160
   117  H    0.412429
   118  H    0.465325
   119  H    0.392853
   120  O   -0.562229
   121  H    0.418916
 Sum of Mulliken charges =   1.00000

 Dipole moment (field-independent basis, Debye):
    X=            -42.7598    Y=             -3.7973    Z=            -30.8031  Tot=             52.8361
 Quadrupole moment (field-independent basis, Debye-Ang):
   XX=           -214.9945   YY=           -329.0143   ZZ=           -247.0427
   XY=            -27.2588   XZ=             55.0669   YZ=            -63.9622

 Normal termination of Gaussian 16 at Thu Jun 30 12:42:03 2022.
