 Gaussian 16, Revision C.01,
 Gaussian 16:  ES64L-G16RevC.01  3-Jul-2019

 -------------------------------------------------------------------
 # B3LYP/6-31G* guess=read geom=check nosymm integral(ultrafinegrid)
 -------------------------------------------------------------------

 ------------------------------------------------------
 Candidate Structure: Conf:126 Charge calc in gas phase
 ------------------------------------------------------
 Structure from the checkpoint file:  "conf-126.chk"
 Charge =  1 Multiplicity = 1

                          Input orientation:
 ---------------------------------------------------------------------
 Center     Atomic      Atomic             Coordinates (Angstroms)
 Number     Number       Type             X           Y           Z
 ---------------------------------------------------------------------
      1          7           0        0.438216   -1.458955   -2.790878
      2          1           0        1.379091   -1.433087   -3.193468
      3          1           0        0.397902   -2.312441   -2.186804
      4          1           0        0.346980   -0.632965   -2.136712
      5          6           0       -0.613570   -1.479484   -3.878208
      6          1           0       -0.343552   -0.673177   -4.568311
      7          6           0       -1.925160   -1.034418   -3.186379
      8          6           0       -0.600207   -2.824671   -4.597565
      9          1           0       -1.295959   -2.808351   -5.442207
     10          1           0        0.391636   -3.036620   -5.010889
     11          1           0       -0.873977   -3.644308   -3.925693
     12          8           0       -1.849076   -0.110433   -2.374650
     13          7           0       -3.059985   -1.688497   -3.488221
     14          1           0       -3.081107   -2.378464   -4.229082
     15          6           0       -4.354127   -1.382180   -2.844292
     16          1           0       -4.398250   -0.297420   -2.713593
     17          6           0       -4.311622   -2.101908   -1.465896
     18          6           0       -5.522554   -1.896164   -3.707973
     19          1           0       -5.629983   -2.968574   -3.513649
     20          1           0       -6.435192   -1.424651   -3.321617
     21          8           0       -4.717596   -3.247961   -1.324359
     22          6           0       -5.369190   -1.649409   -5.180736
     23          6           0       -5.273737   -2.624004   -6.147791
     24          1           0       -5.326370   -3.700191   -6.045019
     25          6           0       -5.300395   -0.381914   -5.871523
     26          6           0       -5.164378   -0.667958   -7.257542
     27          6           0       -5.351444    0.962641   -5.460108
     28          1           0       -5.470774    1.219027   -4.410443
     29          7           0       -5.137896   -2.043341   -7.392810
     30          1           0       -5.153175   -2.542007   -8.269466
     31          6           0       -5.130364    1.655263   -7.786270
     32          1           0       -5.072287    2.461318   -8.511918
     33          6           0       -5.077274    0.338146   -8.225691
     34          1           0       -4.979604    0.100790   -9.281602
     35          6           0       -5.266730    1.965085   -6.417162
     36          1           0       -5.313123    3.006033   -6.110631
     37          7           0       -3.670844   -1.396102   -0.488634
     38          1           0       -3.221993   -0.524928   -0.767943
     39          6           0       -2.929055   -2.085637    0.567107
     40          1           0       -3.607194   -2.698152    1.168933
     41          6           0       -2.238595   -0.996061    1.391461
     42          6           0       -1.835547   -2.952704   -0.120916
     43          1           0       -2.358395   -3.630101   -0.801456
     44          1           0       -1.258551   -2.248580   -0.722557
     45          8           0       -1.849602    0.041923    0.839420
     46          6           0       -0.855105   -3.753265    0.737241
     47          1           0       -0.367403   -3.130856    1.502664
     48          1           0       -1.329894   -4.594659    1.252946
     49          6           0        0.268372   -4.288227   -0.119717
     50          8           0        0.635395   -3.828999   -1.198268
     51          8           0        0.874749   -5.342402    0.429978
     52          7           0       -1.985287   -1.244560    2.691902
     53          1           0       -2.264687   -2.130241    3.092895
     54          6           0       -1.021232   -0.417873    3.430951
     55          1           0       -1.405133    0.608907    3.449883
     56          6           0        0.314596   -0.475273    2.650433
     57          6           0       -0.856314   -0.933392    4.877239
     58          1           0       -0.502046   -1.971490    4.802570
     59          8           0        0.854572   -1.555279    2.412619
     60          6           0        0.212456   -0.121171    5.624696
     61          1           0       -0.067448    0.937734    5.689763
     62          1           0        0.320609   -0.496338    6.647114
     63          1           0        1.192997   -0.187050    5.142748
     64          6           0       -2.188493   -0.903344    5.643408
     65          1           0       -2.562165    0.123309    5.738510
     66          1           0       -2.974264   -1.496677    5.162836
     67          1           0       -2.049949   -1.302077    6.653535
     68          7           0        0.815969    0.716795    2.246357
     69          1           0        0.298781    1.567995    2.430586
     70          6           0        1.961723    0.841051    1.351056
     71          1           0        2.457696   -0.132837    1.342338
     72          6           0        2.848485    1.959940    1.911074
     73          6           0        1.495790    1.192449   -0.088558
     74          1           0        0.956529    2.146375   -0.041838
     75          8           0        2.417229    3.114778    1.937450
     76          6           0        2.658453    1.326588   -1.063167
     77          1           0        3.285037    2.186837   -0.810736
     78          1           0        3.278284    0.420895   -1.071361
     79          1           0        2.270346    1.497421   -2.073062
     80          8           0        0.616081    0.166976   -0.576142
     81          1           0       -0.262086    0.257264   -0.148217
     82          7           0        4.067373    1.603189    2.375195
     83          1           0        4.373916    0.643823    2.281749
     84          6           0        4.991441    2.567984    2.991165
     85          1           0        4.357875    3.397135    3.324229
     86          6           0        5.957555    3.097766    1.895796
     87          6           0        5.734657    1.969122    4.202005
     88          1           0        6.456060    1.235808    3.816906
     89          8           0        7.159650    2.851288    1.899288
     90          6           0        6.526551    3.064887    4.934726
     91          1           0        5.853031    3.837542    5.328156
     92          1           0        7.257370    3.536632    4.275190
     93          1           0        7.066259    2.633892    5.784811
     94          6           0        4.771399    1.271133    5.175135
     95          1           0        4.023768    1.975248    5.562131
     96          1           0        5.327379    0.874928    6.031471
     97          1           0        4.233856    0.434570    4.715189
     98          7           0        5.344424    3.827972    0.928682
     99          1           0        4.344410    4.002680    0.981711
    100          6           0        6.074735    4.458009   -0.162927
    101          1           0        6.869467    5.091363    0.243630
    102          6           0        5.112161    5.315565   -0.967205
    103          6           0        6.724944    3.421814   -1.137428
    104          1           0        5.991905    2.623334   -1.311401
    105          1           0        7.559891    2.973368   -0.594259
    106          8           0        3.954963    4.985649   -1.183301
    107          6           0        7.202798    4.000635   -2.490894
    108          1           0        7.561559    5.023398   -2.337905
    109          1           0        8.071567    3.422769   -2.826477
    110          6           0        6.130250    3.973304   -3.618543
    111          1           0        6.291567    3.075669   -4.228174
    112          1           0        5.128297    3.858118   -3.187100
    113          6           0        6.104180    5.193431   -4.563578
    114          1           0        5.830103    4.870790   -5.578328
    115          1           0        7.100815    5.642848   -4.632478
    116          7           0        5.173403    6.249652   -4.085350
    117          1           0        5.257964    7.082581   -4.666897
    118          1           0        4.210391    5.926539   -4.178934
    119          1           0        5.350765    6.536901   -2.437453
    120          8           0        5.724620    6.366505   -1.498949
    121          1           0        1.613712   -5.603807   -0.153109
 ---------------------------------------------------------------------

 SCF Done:  E(RB3LYP) =  -2843.68529715     A.U. after    2 cycles

 Alpha  occ. eigenvalues --  -19.30623 -19.26055 -19.24623 -19.23719 -19.22823
 Alpha  occ. eigenvalues --  -19.21710 -19.20855 -19.20679 -19.19859 -19.18678
 Alpha  occ. eigenvalues --  -19.17092 -14.55282 -14.48314 -14.47198 -14.45633
 Alpha  occ. eigenvalues --  -14.45425 -14.44803 -14.44265 -14.41268 -14.41228
 Alpha  occ. eigenvalues --  -10.43876 -10.41411 -10.39750 -10.38583 -10.38117
 Alpha  occ. eigenvalues --  -10.37631 -10.37197 -10.36486 -10.34261 -10.33773
 Alpha  occ. eigenvalues --  -10.33303 -10.33233 -10.33012 -10.32127 -10.32019
 Alpha  occ. eigenvalues --  -10.29801 -10.29739 -10.29628 -10.29461 -10.29080
 Alpha  occ. eigenvalues --  -10.28716 -10.28694 -10.28514 -10.27691 -10.26612
 Alpha  occ. eigenvalues --  -10.26221 -10.25914 -10.25757 -10.25640 -10.25632
 Alpha  occ. eigenvalues --  -10.25559 -10.25388 -10.25211 -10.24885 -10.24803
 Alpha  occ. eigenvalues --  -10.24356 -10.24085 -10.23579 -10.22214  -1.22002
 Alpha  occ. eigenvalues --   -1.16226  -1.15004  -1.13887  -1.12883  -1.12760
 Alpha  occ. eigenvalues --   -1.12448  -1.11836  -1.11388  -1.09937  -1.08894
 Alpha  occ. eigenvalues --   -1.05400  -1.05313  -1.04268  -1.03221  -1.01673
 Alpha  occ. eigenvalues --   -1.01460  -1.00707  -0.97589  -0.96711  -0.91435
 Alpha  occ. eigenvalues --   -0.90749  -0.90539  -0.89485  -0.88323  -0.87501
 Alpha  occ. eigenvalues --   -0.86057  -0.85554  -0.85025  -0.83229  -0.81617
 Alpha  occ. eigenvalues --   -0.81156  -0.80462  -0.79626  -0.79036  -0.78735
 Alpha  occ. eigenvalues --   -0.77142  -0.76650  -0.75977  -0.74862  -0.74004
 Alpha  occ. eigenvalues --   -0.73739  -0.71415  -0.70544  -0.70087  -0.69588
 Alpha  occ. eigenvalues --   -0.69393  -0.69260  -0.68769  -0.68183  -0.67698
 Alpha  occ. eigenvalues --   -0.67169  -0.66750  -0.66433  -0.66116  -0.65863
 Alpha  occ. eigenvalues --   -0.64850  -0.64619  -0.64408  -0.62968  -0.62839
 Alpha  occ. eigenvalues --   -0.62267  -0.62140  -0.61284  -0.60618  -0.60502
 Alpha  occ. eigenvalues --   -0.60040  -0.59725  -0.59405  -0.58929  -0.58563
 Alpha  occ. eigenvalues --   -0.58264  -0.57808  -0.57358  -0.57166  -0.56526
 Alpha  occ. eigenvalues --   -0.55861  -0.55666  -0.55394  -0.55304  -0.54640
 Alpha  occ. eigenvalues --   -0.54154  -0.53696  -0.53625  -0.53194  -0.53015
 Alpha  occ. eigenvalues --   -0.52734  -0.52629  -0.52180  -0.51835  -0.51763
 Alpha  occ. eigenvalues --   -0.51481  -0.51457  -0.51215  -0.50810  -0.50613
 Alpha  occ. eigenvalues --   -0.50508  -0.50118  -0.50041  -0.49914  -0.49816
 Alpha  occ. eigenvalues --   -0.49139  -0.49070  -0.48912  -0.48797  -0.48617
 Alpha  occ. eigenvalues --   -0.48470  -0.48220  -0.47949  -0.47761  -0.47470
 Alpha  occ. eigenvalues --   -0.47310  -0.47240  -0.47053  -0.47043  -0.46778
 Alpha  occ. eigenvalues --   -0.46359  -0.46215  -0.45984  -0.45784  -0.45530
 Alpha  occ. eigenvalues --   -0.45059  -0.44917  -0.44457  -0.44330  -0.43906
 Alpha  occ. eigenvalues --   -0.43381  -0.43181  -0.42745  -0.42726  -0.42662
 Alpha  occ. eigenvalues --   -0.42349  -0.42242  -0.42096  -0.41733  -0.41454
 Alpha  occ. eigenvalues --   -0.40356  -0.40300  -0.40298  -0.39867  -0.39610
 Alpha  occ. eigenvalues --   -0.39164  -0.39039  -0.38885  -0.38815  -0.38683
 Alpha  occ. eigenvalues --   -0.38253  -0.37814  -0.37332  -0.36988  -0.35560
 Alpha  occ. eigenvalues --   -0.35143  -0.34851  -0.34703  -0.34538  -0.34108
 Alpha  occ. eigenvalues --   -0.33418  -0.33363  -0.32693  -0.32207  -0.30477
 Alpha  occ. eigenvalues --   -0.29958  -0.29369  -0.27767
 Alpha virt. eigenvalues --   -0.11452  -0.10352  -0.09338  -0.08254  -0.07632
 Alpha virt. eigenvalues --   -0.07536  -0.06322  -0.05972  -0.04684  -0.04529
 Alpha virt. eigenvalues --   -0.03201  -0.02612  -0.02245  -0.01832  -0.01316

 Mulliken charges:
               1
     1  N   -0.815139
     2  H    0.390752
     3  H    0.453591
     4  H    0.465206
     5  C   -0.098381
     6  H    0.222099
     7  C    0.650275
     8  C   -0.493107
     9  H    0.196942
    10  H    0.183304
    11  H    0.195706
    12  O   -0.531315
    13  N   -0.603475
    14  H    0.348679
    15  C   -0.058437
    16  H    0.190166
    17  C    0.622000
    18  C   -0.396418
    19  H    0.188562
    20  H    0.182867
    21  O   -0.511975
    22  C    0.042473
    23  C   -0.021419
    24  H    0.161784
    25  C    0.087770
    26  C    0.306331
    27  C   -0.212805
    28  H    0.126864
    29  N   -0.684810
    30  H    0.338233
    31  C   -0.150031
    32  H    0.140749
    33  C   -0.162290
    34  H    0.136598
    35  C   -0.139350
    36  H    0.136498
    37  N   -0.613024
    38  H    0.386521
    39  C   -0.054309
    40  H    0.182379
    41  C    0.648069
    42  C   -0.297438
    43  H    0.192658
    44  H    0.135264
    45  O   -0.569148
    46  C   -0.408378
    47  H    0.249189
    48  H    0.190629
    49  C    0.623443
    50  O   -0.520325
    51  O   -0.533589
    52  N   -0.609696
    53  H    0.346796
    54  C   -0.006295
    55  H    0.164171
    56  C    0.624849
    57  C   -0.121885
    58  H    0.153033
    59  O   -0.544591
    60  C   -0.466336
    61  H    0.153510
    62  H    0.169570
    63  H    0.167007
    64  C   -0.452489
    65  H    0.161067
    66  H    0.141433
    67  H    0.171017
    68  N   -0.599056
    69  H    0.355664
    70  C   -0.064101
    71  H    0.172239
    72  C    0.637106
    73  C    0.135733
    74  H    0.170253
    75  O   -0.545131
    76  C   -0.493347
    77  H    0.209956
    78  H    0.137875
    79  H    0.147938
    80  O   -0.708914
    81  H    0.475231
    82  N   -0.607877
    83  H    0.339118
    84  C   -0.060694
    85  H    0.187889
    86  C    0.628282
    87  C   -0.090834
    88  H    0.147122
    89  O   -0.524470
    90  C   -0.462056
    91  H    0.140455
    92  H    0.185223
    93  H    0.152429
    94  C   -0.449516
    95  H    0.147398
    96  H    0.159317
    97  H    0.128750
    98  N   -0.650161
    99  H    0.370002
   100  C    0.026924
   101  H    0.182612
   102  C    0.558639
   103  C   -0.289090
   104  H    0.132505
   105  H    0.188370
   106  O   -0.504567
   107  C   -0.286938
   108  H    0.171978
   109  H    0.145516
   110  C   -0.287484
   111  H    0.139494
   112  H    0.155269
   113  C   -0.142305
   114  H    0.140193
   115  H    0.167636
   116  N   -0.770700
   117  H    0.332425
   118  H    0.332270
   119  H    0.455459
   120  O   -0.597041
   121  H    0.425416
 Sum of Mulliken charges =   1.00000

 Dipole moment (field-independent basis, Debye):
    X=              0.0851    Y=             -7.2407    Z=            -12.9395  Tot=             14.8279
 Quadrupole moment (field-independent basis, Debye-Ang):
   XX=           -318.1611   YY=           -298.8325   ZZ=           -197.4798
   XY=             17.5800   XZ=             -6.4812   YZ=              1.2724

 Normal termination of Gaussian 16 at Thu Jun 30 12:42:40 2022.
