 Gaussian 16, Revision C.01,
 Gaussian 16:  ES64L-G16RevC.01  3-Jul-2019

 -------------------------------------------------------------------
 # B3LYP/6-31G* guess=read geom=check nosymm integral(ultrafinegrid)
 -------------------------------------------------------------------

 ------------------------------------------------------
 Candidate Structure: Conf:564 Charge calc in gas phase
 ------------------------------------------------------
 Structure from the checkpoint file:  "conf-564.chk"
 Charge =  1 Multiplicity = 1

                          Input orientation:
 ---------------------------------------------------------------------
 Center     Atomic      Atomic             Coordinates (Angstroms)
 Number     Number       Type             X           Y           Z
 ---------------------------------------------------------------------
      1          7           0       -6.552884   -3.703030   -8.025970
      2          1           0       -7.297128   -4.351792   -7.757140
      3          1           0       -6.324287   -3.856521   -9.011741
      4          1           0       -6.880704   -2.690414   -7.854763
      5          6           0       -5.343049   -3.758789   -7.112339
      6          1           0       -5.475664   -4.601505   -6.429980
      7          6           0       -5.455978   -2.406205   -6.344820
      8          6           0       -4.050876   -3.894220   -7.917310
      9          1           0       -3.189295   -3.882042   -7.243852
     10          1           0       -4.024720   -4.838739   -8.470455
     11          1           0       -3.933577   -3.059498   -8.617184
     12          8           0       -6.314683   -1.604929   -6.745589
     13          7           0       -4.614717   -2.229230   -5.337393
     14          1           0       -3.821113   -2.854711   -5.181363
     15          6           0       -4.481654   -1.000069   -4.558512
     16          1           0       -4.860077   -0.168262   -5.158509
     17          6           0       -2.963411   -0.873976   -4.298572
     18          6           0       -5.250297   -1.080720   -3.205486
     19          1           0       -4.766519   -1.850586   -2.591982
     20          1           0       -5.087784   -0.126184   -2.687909
     21          8           0       -2.238109   -1.865529   -4.443121
     22          6           0       -6.715503   -1.371476   -3.321274
     23          6           0       -7.335281   -2.535981   -2.937508
     24          1           0       -6.911519   -3.422454   -2.483741
     25          6           0       -7.755469   -0.496284   -3.812434
     26          6           0       -8.982892   -1.202353   -3.697725
     27          6           0       -7.774458    0.815007   -4.319774
     28          1           0       -6.856634    1.390433   -4.411946
     29          7           0       -8.692031   -2.454307   -3.183250
     30          1           0       -9.378343   -3.109677   -2.840563
     31          6           0      -10.193958    0.658084   -4.563518
     32          1           0      -11.128990    1.128572   -4.853326
     33          6           0      -10.208890   -0.640340   -4.068194
     34          1           0      -11.139510   -1.191872   -3.963808
     35          6           0       -8.988612    1.378927   -4.688194
     36          1           0       -9.014745    2.394189   -5.073057
     37          7           0       -2.539842    0.324073   -3.876200
     38          1           0       -3.170518    1.113070   -3.745076
     39          6           0       -1.177046    0.601966   -3.431782
     40          1           0       -0.796625   -0.281204   -2.907265
     41          6           0       -1.320728    1.802356   -2.470913
     42          6           0       -0.261963    0.923539   -4.639824
     43          1           0       -0.433010    0.136237   -5.382418
     44          1           0       -0.582120    1.871353   -5.084280
     45          8           0       -2.271399    2.575867   -2.605030
     46          6           0        1.238845    0.973627   -4.299232
     47          1           0        1.452503    1.756437   -3.560811
     48          1           0        1.579563    0.021895   -3.881024
     49          6           0        2.103685    1.252268   -5.511288
     50          8           0        3.047934    0.589661   -5.876401
     51          8           0        1.704388    2.374323   -6.164708
     52          7           0       -0.369454    1.919196   -1.523623
     53          1           0        0.462310    1.336635   -1.562775
     54          6           0       -0.199433    3.106154   -0.691986
     55          1           0       -0.751932    3.923221   -1.167834
     56          6           0        1.312084    3.416942   -0.703421
     57          6           0       -0.739621    2.917499    0.756455
     58          1           0       -0.487731    3.842572    1.294122
     59          8           0        2.127411    2.574178   -1.096416
     60          6           0       -2.267344    2.772391    0.763938
     61          1           0       -2.579286    1.853411    0.255399
     62          1           0       -2.635585    2.725614    1.794677
     63          1           0       -2.758246    3.612693    0.261968
     64          6           0       -0.061420    1.746159    1.480591
     65          1           0       -0.298420    0.794025    0.990929
     66          1           0        1.027828    1.851321    1.510002
     67          1           0       -0.417407    1.684228    2.513998
     68          7           0        1.662672    4.636248   -0.252404
     69          1           0        0.972943    5.306386    0.072535
     70          6           0        3.046045    5.094285   -0.139960
     71          1           0        3.634653    4.553173   -0.886028
     72          6           0        3.576357    4.796374    1.283873
     73          6           0        3.072206    6.619522   -0.399170
     74          1           0        4.084913    6.974095   -0.155319
     75          8           0        3.461379    5.639874    2.184633
     76          6           0        2.744094    6.990718   -1.839136
     77          1           0        3.486701    6.575534   -2.529780
     78          1           0        1.755374    6.618360   -2.126901
     79          1           0        2.740096    8.079693   -1.942316
     80          8           0        2.114180    7.242433    0.449070
     81          1           0        2.427278    7.023592    1.354463
     82          7           0        4.115221    3.578017    1.452479
     83          1           0        4.246015    2.956016    0.658358
     84          6           0        4.743029    3.095376    2.682995
     85          1           0        5.003090    3.966752    3.290966
     86          6           0        6.014071    2.343705    2.238152
     87          6           0        3.777649    2.171975    3.487854
     88          1           0        3.374850    1.450635    2.761235
     89          8           0        6.001024    1.712757    1.166301
     90          6           0        4.489194    1.377647    4.595913
     91          1           0        5.051631    2.021732    5.280926
     92          1           0        5.196865    0.649042    4.190101
     93          1           0        3.747668    0.826959    5.186405
     94          6           0        2.612322    2.985170    4.071303
     95          1           0        2.973309    3.695280    4.824586
     96          1           0        1.891154    2.318313    4.558763
     97          1           0        2.082301    3.560273    3.306312
     98          7           0        7.047514    2.440188    3.080270
     99          1           0        6.931198    2.839210    4.030259
    100          6           0        8.190664    1.538356    3.171025
    101          1           0        7.861375    0.508441    2.974155
    102          6           0        8.679777    1.610242    4.694072
    103          6           0        9.358679    1.874049    2.244817
    104          1           0       10.228599    1.372967    2.686541
    105          1           0        9.545059    2.956836    2.283845
    106          8           0        9.723847    0.979128    4.928517
    107          6           0        9.172876    1.427950    0.790036
    108          1           0        8.993190    0.343841    0.767055
    109          1           0        8.283020    1.893624    0.352986
    110          6           0       10.424460    1.747846   -0.046332
    111          1           0       10.592088    2.834797   -0.057697
    112          1           0       11.302834    1.286812    0.429102
    113          6           0       10.281614    1.234889   -1.466289
    114          1           0        9.468199    1.717535   -2.013251
    115          1           0       10.150400    0.151086   -1.511149
    116          7           0       11.562520    1.530837   -2.270396
    117          1           0       11.514749    1.196658   -3.240139
    118          1           0       11.745748    2.541039   -2.289338
    119          1           0       12.372376    1.088096   -1.819805
    120          8           0        7.937274    2.303507    5.440101
    121          1           0        2.320166    2.485836   -6.913489
 ---------------------------------------------------------------------

 SCF Done:  E(RB3LYP) =  -2843.57017963     A.U. after    1 cycles

 Alpha  occ. eigenvalues --  -19.26982 -19.25724 -19.21648 -19.19961 -19.19321
 Alpha  occ. eigenvalues --  -19.18085 -19.17344 -19.15541 -19.12460 -19.04743
 Alpha  occ. eigenvalues --  -19.03760 -14.61411 -14.60018 -14.49338 -14.45623
 Alpha  occ. eigenvalues --  -14.45208 -14.43149 -14.42124 -14.39218 -14.34525
 Alpha  occ. eigenvalues --  -10.43646 -10.41441 -10.38697 -10.38278 -10.37683
 Alpha  occ. eigenvalues --  -10.36475 -10.35047 -10.34286 -10.34133 -10.32584
 Alpha  occ. eigenvalues --  -10.31842 -10.29915 -10.29499 -10.29190 -10.29162
 Alpha  occ. eigenvalues --  -10.29097 -10.29007 -10.28212 -10.27850 -10.27160
 Alpha  occ. eigenvalues --  -10.26676 -10.26358 -10.25863 -10.25740 -10.25616
 Alpha  occ. eigenvalues --  -10.25358 -10.25261 -10.24840 -10.24798 -10.23423
 Alpha  occ. eigenvalues --  -10.22762 -10.22457 -10.22299 -10.21972 -10.21413
 Alpha  occ. eigenvalues --  -10.20386 -10.19604 -10.19173 -10.18106  -1.19486
 Alpha  occ. eigenvalues --   -1.16517  -1.15219  -1.13979  -1.13416  -1.11302
 Alpha  occ. eigenvalues --   -1.09776  -1.07505  -1.07468  -1.06120  -1.05419
 Alpha  occ. eigenvalues --   -1.04861  -1.03657  -1.01768  -0.99697  -0.98224
 Alpha  occ. eigenvalues --   -0.97800  -0.95351  -0.93631  -0.91685  -0.90930
 Alpha  occ. eigenvalues --   -0.90536  -0.89618  -0.89033  -0.87959  -0.86046
 Alpha  occ. eigenvalues --   -0.85209  -0.82741  -0.81811  -0.81717  -0.81250
 Alpha  occ. eigenvalues --   -0.81070  -0.80519  -0.79356  -0.77640  -0.76224
 Alpha  occ. eigenvalues --   -0.76142  -0.75404  -0.74217  -0.73879  -0.73642
 Alpha  occ. eigenvalues --   -0.73422  -0.73091  -0.72429  -0.71885  -0.70491
 Alpha  occ. eigenvalues --   -0.69535  -0.69384  -0.68247  -0.67583  -0.66982
 Alpha  occ. eigenvalues --   -0.66604  -0.66454  -0.65881  -0.65342  -0.64101
 Alpha  occ. eigenvalues --   -0.63712  -0.63605  -0.63336  -0.62780  -0.61978
 Alpha  occ. eigenvalues --   -0.61245  -0.61104  -0.61007  -0.59518  -0.59315
 Alpha  occ. eigenvalues --   -0.58396  -0.58193  -0.57737  -0.56859  -0.56500
 Alpha  occ. eigenvalues --   -0.56231  -0.56165  -0.55748  -0.55349  -0.55159
 Alpha  occ. eigenvalues --   -0.54603  -0.54517  -0.54213  -0.53968  -0.53360
 Alpha  occ. eigenvalues --   -0.53212  -0.52455  -0.52205  -0.51944  -0.51721
 Alpha  occ. eigenvalues --   -0.51633  -0.51296  -0.50996  -0.50691  -0.50422
 Alpha  occ. eigenvalues --   -0.50307  -0.50030  -0.49975  -0.49735  -0.49225
 Alpha  occ. eigenvalues --   -0.49005  -0.48893  -0.48196  -0.48038  -0.47746
 Alpha  occ. eigenvalues --   -0.47433  -0.47122  -0.46670  -0.46487  -0.46267
 Alpha  occ. eigenvalues --   -0.46108  -0.45668  -0.45381  -0.45226  -0.44965
 Alpha  occ. eigenvalues --   -0.44679  -0.44077  -0.43935  -0.43493  -0.43193
 Alpha  occ. eigenvalues --   -0.43041  -0.42674  -0.42566  -0.42337  -0.42165
 Alpha  occ. eigenvalues --   -0.42095  -0.41709  -0.41549  -0.41150  -0.40993
 Alpha  occ. eigenvalues --   -0.40644  -0.40583  -0.40317  -0.39873  -0.39742
 Alpha  occ. eigenvalues --   -0.39596  -0.39271  -0.38940  -0.38909  -0.38678
 Alpha  occ. eigenvalues --   -0.37880  -0.37447  -0.37117  -0.36611  -0.36156
 Alpha  occ. eigenvalues --   -0.35890  -0.35302  -0.35179  -0.34939  -0.34404
 Alpha  occ. eigenvalues --   -0.34324  -0.34095  -0.33713  -0.33264  -0.33038
 Alpha  occ. eigenvalues --   -0.32437  -0.32137  -0.31739  -0.30761  -0.29430
 Alpha  occ. eigenvalues --   -0.28795  -0.28225  -0.27859  -0.26367  -0.25679
 Alpha  occ. eigenvalues --   -0.19867  -0.19576  -0.18152
 Alpha virt. eigenvalues --   -0.12193  -0.12174  -0.11409  -0.08419  -0.07461
 Alpha virt. eigenvalues --   -0.06495  -0.05544  -0.05519  -0.05275  -0.04774
 Alpha virt. eigenvalues --   -0.04598  -0.04381  -0.04096  -0.02319  -0.02098

 Mulliken charges:
               1
     1  N   -0.759331
     2  H    0.416096
     3  H    0.412518
     4  H    0.439905
     5  C   -0.105171
     6  H    0.222397
     7  C    0.656741
     8  C   -0.485378
     9  H    0.222701
    10  H    0.194695
    11  H    0.195836
    12  O   -0.530004
    13  N   -0.590220
    14  H    0.368913
    15  C   -0.082521
    16  H    0.198987
    17  C    0.640755
    18  C   -0.365276
    19  H    0.162622
    20  H    0.180406
    21  O   -0.555474
    22  C    0.077835
    23  C   -0.021986
    24  H    0.152827
    25  C    0.100240
    26  C    0.299155
    27  C   -0.204359
    28  H    0.120444
    29  N   -0.688973
    30  H    0.336375
    31  C   -0.150206
    32  H    0.140883
    33  C   -0.165570
    34  H    0.133840
    35  C   -0.138842
    36  H    0.137402
    37  N   -0.620459
    38  H    0.364611
    39  C   -0.048306
    40  H    0.180129
    41  C    0.616040
    42  C   -0.274261
    43  H    0.168735
    44  H    0.180378
    45  O   -0.542036
    46  C   -0.369708
    47  H    0.203430
    48  H    0.179279
    49  C    0.565199
    50  O   -0.456479
    51  O   -0.560170
    52  N   -0.600591
    53  H    0.359944
    54  C   -0.074572
    55  H    0.183561
    56  C    0.636310
    57  C   -0.078644
    58  H    0.142622
    59  O   -0.559167
    60  C   -0.442355
    61  H    0.143392
    62  H    0.154015
    63  H    0.156889
    64  C   -0.471881
    65  H    0.140335
    66  H    0.178242
    67  H    0.162093
    68  N   -0.597189
    69  H    0.352205
    70  C   -0.082514
    71  H    0.167566
    72  C    0.643986
    73  C    0.124536
    74  H    0.138431
    75  O   -0.558590
    76  C   -0.448620
    77  H    0.136965
    78  H    0.146640
    79  H    0.170319
    80  O   -0.656017
    81  H    0.425407
    82  N   -0.605273
    83  H    0.356080
    84  C   -0.056473
    85  H    0.179249
    86  C    0.597269
    87  C   -0.069077
    88  H    0.126855
    89  O   -0.592867
    90  C   -0.468880
    91  H    0.184596
    92  H    0.162900
    93  H    0.135676
    94  C   -0.446920
    95  H    0.158600
    96  H    0.134815
    97  H    0.143095
    98  N   -0.602158
    99  H    0.364475
   100  C   -0.071111
   101  H    0.133405
   102  C    0.582115
   103  C   -0.260599
   104  H    0.170638
   105  H    0.125544
   106  O   -0.589196
   107  C   -0.270861
   108  H    0.142375
   109  H    0.179543
   110  C   -0.290560
   111  H    0.157651
   112  H    0.162125
   113  C   -0.205746
   114  H    0.224201
   115  H    0.223293
   116  N   -0.731040
   117  H    0.419660
   118  H    0.421687
   119  H    0.423405
   120  O   -0.608285
   121  H    0.411834
 Sum of Mulliken charges =   1.00000

 Dipole moment (field-independent basis, Debye):
    X=             -8.5573    Y=            -14.5656    Z=            -51.6398  Tot=             54.3328
 Quadrupole moment (field-independent basis, Debye-Ang):
   XX=            106.7575   YY=           -286.7524   ZZ=           -185.2665
   XY=            141.5533   XZ=            -63.9972   YZ=             64.6542

 Normal termination of Gaussian 16 at Thu Jun 30 12:41:16 2022.
