 Gaussian 16, Revision C.01,
 Gaussian 16:  ES64L-G16RevC.01  3-Jul-2019

 ----------------------------------------------------------------------
 # B3LYP/6-31G* empiricaldispersion=gd3 guess=read geom=check nosymm in
 tegral(ultrafinegrid)
 ----------------------------------------------------------------------

 ------------------------------------------------------
 Candidate Structure: Conf:145 Charge calc in gas phase
 ------------------------------------------------------
 Structure from the checkpoint file:  "conf-145.chk"
 Charge =  1 Multiplicity = 1

                          Input orientation:
 ---------------------------------------------------------------------
 Center     Atomic      Atomic             Coordinates (Angstroms)
 Number     Number       Type             X           Y           Z
 ---------------------------------------------------------------------
      1          7           0       -3.997538    6.125629   -4.109177
      2          1           0       -3.584605    5.770113   -3.231780
      3          1           0       -4.439891    7.040416   -3.998854
      4          1           0       -3.170436    6.238934   -4.754550
      5          6           0       -4.943740    5.107195   -4.647581
      6          1           0       -4.466099    4.129991   -4.570973
      7          1           0       -5.848833    5.105052   -4.033979
      8          6           0       -5.263837    5.443370   -6.107473
      9          8           0       -4.880929    6.508689   -6.590082
     10          7           0       -5.993856    4.500871   -6.737706
     11          1           0       -6.030911    3.573964   -6.321154
     12          6           0       -6.273534    4.548859   -8.173735
     13          1           0       -5.870027    5.483041   -8.568337
     14          1           0       -7.352883    4.515774   -8.345927
     15          6           0       -5.641922    3.293571   -8.778468
     16          8           0       -6.152736    2.190173   -8.563781
     17          7           0       -4.478532    3.469097   -9.434857
     18          1           0       -4.027458    4.376921   -9.540221
     19          6           0       -3.649972    2.334384   -9.815158
     20          1           0       -4.254528    1.592110  -10.343938
     21          1           0       -2.858137    2.703142  -10.466086
     22          6           0       -3.008983    1.741087   -8.555335
     23          8           0       -1.936010    2.161084   -8.107221
     24          7           0       -3.733669    0.748288   -7.978662
     25          1           0       -4.715644    0.729201   -8.249095
     26          6           0       -3.388939    0.228343   -6.680295
     27          1           0       -3.770958   -0.793130   -6.580725
     28          1           0       -2.297433    0.186744   -6.605873
     29          6           0       -3.905885    1.104353   -5.527491
     30          8           0       -4.355347    2.242160   -5.717979
     31          7           0       -3.769231    0.565027   -4.304238
     32          1           0       -3.376760   -0.362325   -4.169583
     33          6           0       -4.006684    1.313951   -3.085692
     34          1           0       -3.764470    2.365162   -3.249590
     35          1           0       -5.059105    1.247717   -2.775920
     36          6           0       -3.136267    0.715016   -1.982644
     37          8           0       -2.809031   -0.465539   -1.999874
     38          7           0       -2.820597    1.574130   -0.970961
     39          1           0       -2.821921    2.563510   -1.198836
     40          6           0       -1.898414    1.124889    0.047722
     41          1           0       -1.938153    1.814629    0.898098
     42          1           0       -2.208524    0.135490    0.395265
     43          6           0       -0.454311    1.066778   -0.470682
     44          8           0       -0.142734    1.534828   -1.566959
     45          7           0        0.451588    0.494114    0.359037
     46          1           0        0.176518    0.294030    1.311259
     47          6           0        1.870874    0.652133    0.081265
     48          1           0        2.435644    0.167077    0.881657
     49          1           0        2.113262    0.151378   -0.861244
     50          6           0        2.224471    2.150642    0.039879
     51          8           0        1.718168    2.942641    0.822088
     52          7           0        3.079396    2.540921   -0.949360
     53          1           0        3.388039    1.869266   -1.637887
     54          6           0        3.331303    3.957570   -1.169560
     55          1           0        4.078461    4.065215   -1.960621
     56          1           0        3.731716    4.417373   -0.263076
     57          6           0        2.084007    4.785583   -1.537477
     58          8           0        2.088892    5.996896   -1.414661
     59          7           0        1.012865    4.072451   -2.037424
     60          1           0        1.017719    3.066113   -1.893739
     61          6           0       -0.316645    4.639554   -1.931605
     62          1           0       -0.792939    4.376061   -0.979896
     63          1           0       -0.223807    5.731004   -1.967592
     64          6           0       -1.247713    4.206951   -3.049829
     65          8           0       -2.486450    4.231083   -2.878993
     66          7           0       -0.655619    3.833892   -4.193069
     67          1           0        0.356264    3.906349   -4.195821
     68          6           0       -1.349804    3.650087   -5.450460
     69          1           0       -0.807245    2.951940   -6.088947
     70          1           0       -2.331002    3.211029   -5.262506
     71          6           0       -1.573035    5.003055   -6.142224
     72          8           0       -1.669898    6.041654   -5.457671
     73          7           0       -1.681944    5.020245   -7.473405
     74          1           0       -1.683310    4.143752   -8.003813
     75          6           0       -1.918049    6.301326   -8.137592
     76          1           0       -1.184073    7.027302   -7.775980
     77          1           0       -2.911479    6.679569   -7.862751
     78          6           0       -1.872282    6.133456   -9.647756
     79          8           0       -2.473231    5.204057  -10.206058
     80          7           0       -1.187466    7.061741  -10.325340
     81          1           0       -0.665301    7.810305   -9.874590
     82          6           0       -1.120500    7.085964  -11.771463
     83          1           0       -0.675350    6.159198  -12.154060
     84          1           0       -2.125464    7.161861  -12.204601
     85          6           0       -0.264024    8.299324  -12.163985
     86          8           0        0.234334    9.026501  -11.304419
     87          7           0       -0.110157    8.488616  -13.485763
     88          1           0       -0.529423    7.882065  -14.185997
     89          6           0        0.667127    9.582672  -14.024535
     90          1           0        1.706363    9.532134  -13.674996
     91          1           0        0.265603   10.547834  -13.690007
     92          6           0        0.610199    9.478671  -15.553697
     93          8           0       -0.015493    8.579471  -16.112173
     94          7           0        1.288852   10.434412  -16.222146
     95          1           0        1.798992   11.168962  -15.744015
     96          6           0        1.324691   10.464445  -17.668528
     97          1           0        0.316781   10.552145  -18.092280
     98          1           0        1.752810    9.541128  -18.077557
     99          6           0        2.162121   11.647608  -18.111016
    100          8           0        2.702515   12.426293  -17.355282
    101          8           0        2.226579   11.719731  -19.450326
    102          1           0        2.774707   12.495770  -19.674836
 ---------------------------------------------------------------------

 SCF Done:  E(RB3LYP) =  -2989.18047033     A.U. after    2 cycles

 Alpha  occ. eigenvalues --  -19.26886 -19.23047 -19.22594 -19.22197 -19.22171
 Alpha  occ. eigenvalues --  -19.22079 -19.21557 -19.21203 -19.21197 -19.21170
 Alpha  occ. eigenvalues --  -19.20221 -19.20077 -19.19562 -19.19283 -19.19155
 Alpha  occ. eigenvalues --  -14.54179 -14.46787 -14.46243 -14.46151 -14.46136
 Alpha  occ. eigenvalues --  -14.46125 -14.45530 -14.45305 -14.45210 -14.44620
 Alpha  occ. eigenvalues --  -14.44219 -14.43527 -14.43476 -14.43407 -10.40025
 Alpha  occ. eigenvalues --  -10.39759 -10.39739 -10.39216 -10.39075 -10.38806
 Alpha  occ. eigenvalues --  -10.38385 -10.38248 -10.37820 -10.37636 -10.37298
 Alpha  occ. eigenvalues --  -10.36861 -10.36629 -10.36441 -10.35375 -10.32568
 Alpha  occ. eigenvalues --  -10.32487 -10.32455 -10.32320 -10.32101 -10.31818
 Alpha  occ. eigenvalues --  -10.31665 -10.31424 -10.31337 -10.31151 -10.30664
 Alpha  occ. eigenvalues --  -10.30619 -10.30439  -1.17996  -1.14902  -1.14441
 Alpha  occ. eigenvalues --   -1.14278  -1.13930  -1.13596  -1.13002  -1.12936
 Alpha  occ. eigenvalues --   -1.12546  -1.12297  -1.11692  -1.11659  -1.11161
 Alpha  occ. eigenvalues --   -1.10910  -1.09182  -1.09014  -1.03387  -1.02694
 Alpha  occ. eigenvalues --   -1.02315  -1.02243  -1.02078  -1.01722  -1.01571
 Alpha  occ. eigenvalues --   -1.01494  -1.01346  -1.00433  -1.00150  -0.99753
 Alpha  occ. eigenvalues --   -0.99575  -0.86905  -0.86571  -0.86236  -0.85238
 Alpha  occ. eigenvalues --   -0.84722  -0.83677  -0.83106  -0.82041  -0.81018
 Alpha  occ. eigenvalues --   -0.80080  -0.78979  -0.77913  -0.76945  -0.76659
 Alpha  occ. eigenvalues --   -0.70406  -0.69890  -0.69608  -0.69497  -0.69271
 Alpha  occ. eigenvalues --   -0.68937  -0.68629  -0.68293  -0.68043  -0.67718
 Alpha  occ. eigenvalues --   -0.67331  -0.67167  -0.66869  -0.66164  -0.66078
 Alpha  occ. eigenvalues --   -0.65861  -0.64547  -0.64227  -0.63151  -0.62827
 Alpha  occ. eigenvalues --   -0.62516  -0.61225  -0.60776  -0.60375  -0.60132
 Alpha  occ. eigenvalues --   -0.59268  -0.58993  -0.58248  -0.58085  -0.57883
 Alpha  occ. eigenvalues --   -0.57675  -0.57353  -0.57142  -0.56875  -0.56424
 Alpha  occ. eigenvalues --   -0.56235  -0.56118  -0.56081  -0.55735  -0.55508
 Alpha  occ. eigenvalues --   -0.55451  -0.55191  -0.54792  -0.54618  -0.54195
 Alpha  occ. eigenvalues --   -0.54030  -0.53741  -0.53493  -0.53304  -0.53153
 Alpha  occ. eigenvalues --   -0.52738  -0.52592  -0.52440  -0.52055  -0.51803
 Alpha  occ. eigenvalues --   -0.51632  -0.51383  -0.51310  -0.50959  -0.50842
 Alpha  occ. eigenvalues --   -0.50288  -0.50079  -0.49995  -0.49472  -0.49186
 Alpha  occ. eigenvalues --   -0.49062  -0.48845  -0.48739  -0.48362  -0.47904
 Alpha  occ. eigenvalues --   -0.47712  -0.47369  -0.47224  -0.46824  -0.46594
 Alpha  occ. eigenvalues --   -0.46442  -0.46343  -0.46178  -0.45936  -0.45846
 Alpha  occ. eigenvalues --   -0.45590  -0.45449  -0.44927  -0.44595  -0.44181
 Alpha  occ. eigenvalues --   -0.43564  -0.42593  -0.39149  -0.38212  -0.37799
 Alpha  occ. eigenvalues --   -0.37225  -0.36975  -0.36882  -0.36763  -0.36714
 Alpha  occ. eigenvalues --   -0.36553  -0.36206  -0.36024  -0.35945  -0.35643
 Alpha  occ. eigenvalues --   -0.35637  -0.35389  -0.35269  -0.35191  -0.34782
 Alpha  occ. eigenvalues --   -0.34278  -0.34181  -0.34113  -0.33660  -0.33573
 Alpha  occ. eigenvalues --   -0.33390  -0.32883  -0.32560  -0.32313  -0.31985
 Alpha virt. eigenvalues --   -0.09657  -0.09089  -0.08451  -0.08241  -0.07748
 Alpha virt. eigenvalues --   -0.07522  -0.07170  -0.06885  -0.06529  -0.06199
 Alpha virt. eigenvalues --   -0.05887  -0.05695  -0.05262  -0.04704  -0.04164

 Mulliken charges:
               1
     1  N   -0.756454
     2  H    0.417112
     3  H    0.397590
     4  H    0.451141
     5  C   -0.316953
     6  H    0.270372
     7  H    0.216335
     8  C    0.617070
     9  O   -0.522947
    10  N   -0.589998
    11  H    0.377710
    12  C   -0.209603
    13  H    0.196497
    14  H    0.198743
    15  C    0.597045
    16  O   -0.537955
    17  N   -0.592343
    18  H    0.379509
    19  C   -0.239570
    20  H    0.190931
    21  H    0.206802
    22  C    0.598341
    23  O   -0.544702
    24  N   -0.552665
    25  H    0.378561
    26  C   -0.255748
    27  H    0.192134
    28  H    0.212453
    29  C    0.625608
    30  O   -0.561282
    31  N   -0.585449
    32  H    0.364217
    33  C   -0.233074
    34  H    0.209470
    35  H    0.195473
    36  C    0.607330
    37  O   -0.513480
    38  N   -0.588100
    39  H    0.355065
    40  C   -0.265282
    41  H    0.198590
    42  H    0.214659
    43  C    0.646214
    44  O   -0.549715
    45  N   -0.560535
    46  H    0.352724
    47  C   -0.237650
    48  H    0.200810
    49  H    0.182287
    50  C    0.592789
    51  O   -0.503066
    52  N   -0.600740
    53  H    0.341787
    54  C   -0.226276
    55  H    0.189468
    56  H    0.223032
    57  C    0.608512
    58  O   -0.487476
    59  N   -0.658765
    60  H    0.388455
    61  C   -0.212408
    62  H    0.176501
    63  H    0.223236
    64  C    0.630379
    65  O   -0.621305
    66  N   -0.532803
    67  H    0.362221
    68  C   -0.289586
    69  H    0.212001
    70  H    0.229803
    71  C    0.617097
    72  O   -0.579399
    73  N   -0.610569
    74  H    0.397172
    75  C   -0.217832
    76  H    0.188708
    77  H    0.230250
    78  C    0.608448
    79  O   -0.556183
    80  N   -0.602486
    81  H    0.369055
    82  C   -0.200747
    83  H    0.199812
    84  H    0.198031
    85  C    0.610233
    86  O   -0.529668
    87  N   -0.622689
    88  H    0.362605
    89  C   -0.194236
    90  H    0.197061
    91  H    0.197575
    92  C    0.609528
    93  O   -0.525297
    94  N   -0.624906
    95  H    0.360454
    96  C   -0.177179
    97  H    0.213224
    98  H    0.213050
    99  C    0.568610
   100  O   -0.456103
   101  O   -0.554193
   102  H    0.427527
 Sum of Mulliken charges =   1.00000

 Dipole moment (field-independent basis, Debye):
    X=             -7.5954    Y=             20.0770    Z=            -30.1372  Tot=             37.0004
 Quadrupole moment (field-independent basis, Debye-Ang):
   XX=           -252.2923   YY=           -173.7728   ZZ=             50.1254
   XY=            -44.0896   XZ=             13.1362   YZ=           -237.6022

 Normal termination of Gaussian 16 at Thu Aug 11 11:21:53 2022.
