 Gaussian 16, Revision C.01,
 Gaussian 16:  ES64L-G16RevC.01  3-Jul-2019

 ----------------------------------------------------------------------
 # B3LYP/6-31G* empiricaldispersion=gd3 guess=read geom=check nosymm in
 tegral(ultrafinegrid)
 ----------------------------------------------------------------------

 ------------------------------------------------------
 Candidate Structure: Conf:333 Charge calc in gas phase
 ------------------------------------------------------
 Structure from the checkpoint file:  "conf-333.chk"
 Charge =  1 Multiplicity = 1

                          Input orientation:
 ---------------------------------------------------------------------
 Center     Atomic      Atomic             Coordinates (Angstroms)
 Number     Number       Type             X           Y           Z
 ---------------------------------------------------------------------
      1          7           0       11.244206    7.776409   -6.410618
      2          1           0       11.529978    8.336728   -7.217197
      3          1           0       11.984811    7.101619   -6.205791
      4          1           0       11.072169    8.415569   -5.562213
      5          6           0        9.881934    7.152801   -6.565630
      6          1           0        9.478868    7.329584   -7.561861
      7          1           0        9.936625    6.074841   -6.414730
      8          6           0        9.045243    7.844088   -5.458090
      9          8           0        9.644109    8.650772   -4.724152
     10          7           0        7.764802    7.513526   -5.408104
     11          1           0        7.450939    6.787880   -6.065539
     12          6           0        6.848435    8.020200   -4.391024
     13          1           0        5.912709    8.331862   -4.861380
     14          1           0        7.313994    8.880839   -3.908763
     15          6           0        6.508101    6.893736   -3.411453
     16          8           0        6.061734    5.819318   -3.833511
     17          7           0        6.781292    7.141242   -2.113761
     18          1           0        6.905732    8.107995   -1.838497
     19          6           0        6.375684    6.241083   -1.049174
     20          1           0        6.273106    5.230808   -1.448395
     21          1           0        7.159145    6.213753   -0.283116
     22          6           0        5.079241    6.752204   -0.398549
     23          8           0        4.760375    7.936002   -0.491131
     24          7           0        4.373097    5.814949    0.279181
     25          1           0        4.619786    4.832193    0.163296
     26          6           0        3.148410    6.154273    0.974435
     27          1           0        3.265425    5.992934    2.055486
     28          1           0        2.964255    7.219583    0.815989
     29          6           0        1.977017    5.281321    0.519189
     30          8           0        2.146731    4.099654    0.211133
     31          7           0        0.763047    5.875514    0.556440
     32          1           0        0.703889    6.865517    0.754614
     33          6           0       -0.488629    5.157806    0.335138
     34          1           0       -0.275506    4.090693    0.434665
     35          1           0       -1.213233    5.459201    1.094357
     36          6           0       -1.126873    5.456727   -1.033859
     37          8           0       -2.075464    6.218485   -1.133307
     38          7           0       -0.521027    4.827267   -2.090851
     39          1           0        0.138063    4.084481   -1.868104
     40          6           0       -1.244469    4.647186   -3.353871
     41          1           0       -2.152641    5.248130   -3.310867
     42          1           0       -0.624016    4.961548   -4.197161
     43          6           0       -1.606923    3.159476   -3.419929
     44          8           0       -2.591796    2.704471   -2.859856
     45          7           0       -0.662141    2.362003   -4.035960
     46          1           0        0.229481    2.813879   -4.231223
     47          6           0       -0.566867    1.002457   -3.555948
     48          1           0       -1.564600    0.556667   -3.533124
     49          1           0        0.060619    0.408060   -4.229646
     50          6           0        0.045182    0.988985   -2.142255
     51          8           0        0.545841    2.013613   -1.653257
     52          7           0        0.055169   -0.172977   -1.461887
     53          1           0       -0.333966   -1.008514   -1.876570
     54          6           0        0.595147   -0.232854   -0.102329
     55          1           0        0.415905   -1.235914    0.287010
     56          1           0        0.066004    0.493126    0.523726
     57          6           0        2.119911    0.002608   -0.089595
     58          8           0        2.893498   -0.858751   -0.482782
     59          7           0        2.506117    1.227287    0.380200
     60          1           0        1.812631    1.965472    0.430607
     61          6           0        3.878534    1.678148    0.300235
     62          1           0        4.120655    2.300544    1.163485
     63          1           0        4.528274    0.797245    0.306723
     64          6           0        4.217764    2.490646   -0.953593
     65          8           0        5.169736    3.284477   -0.954199
     66          7           0        3.474779    2.221299   -2.048530
     67          1           0        2.557123    1.815311   -1.897850
     68          6           0        3.690271    2.887623   -3.318202
     69          1           0        4.745006    3.169057   -3.382758
     70          1           0        3.446373    2.201535   -4.132625
     71          6           0        2.800122    4.120791   -3.474436
     72          8           0        1.752758    4.087358   -4.139704
     73          7           0        3.229054    5.218047   -2.824018
     74          1           0        4.161396    5.183646   -2.434109
     75          6           0        2.546225    6.510274   -2.884195
     76          1           0        2.935795    7.148241   -2.090704
     77          1           0        1.473655    6.345910   -2.745943
     78          6           0        2.871056    7.172537   -4.228923
     79          8           0        3.771682    8.004743   -4.345938
     80          7           0        2.157036    6.684985   -5.277431
     81          1           0        1.604956    5.850018   -5.093539
     82          6           0        2.546771    6.944239   -6.651760
     83          1           0        1.671967    6.914232   -7.303127
     84          1           0        2.986119    7.945581   -6.694444
     85          6           0        3.553689    5.928192   -7.207994
     86          8           0        3.409940    5.426202   -8.321196
     87          7           0        4.617695    5.630780   -6.409689
     88          1           0        4.752806    6.046454   -5.493666
     89          6           0        5.586298    4.630402   -6.825118
     90          1           0        5.064355    3.750234   -7.214396
     91          1           0        6.178181    4.355820   -5.951374
     92          6           0        6.541164    5.197772   -7.880292
     93          8           0        7.612704    5.750923   -7.554677
     94          7           0        6.146296    5.090433   -9.152657
     95          1           0        5.183329    4.810410   -9.342768
     96          6           0        6.912678    5.656839  -10.240978
     97          1           0        7.938152    5.272491  -10.230993
     98          1           0        6.984527    6.750095  -10.161651
     99          6           0        6.252127    5.303217  -11.561461
    100          8           0        5.213986    4.695289  -11.670668
    101          8           0        6.981235    5.771952  -12.591348
    102          1           0        6.511369    5.531842  -13.413014
 ---------------------------------------------------------------------

 SCF Done:  E(RB3LYP) =  -2989.15867559     A.U. after    2 cycles

 Alpha  occ. eigenvalues --  -19.28750 -19.26661 -19.23297 -19.23053 -19.22509
 Alpha  occ. eigenvalues --  -19.21794 -19.21093 -19.20903 -19.20447 -19.20399
 Alpha  occ. eigenvalues --  -19.20230 -19.19987 -19.18232 -19.17495 -19.17304
 Alpha  occ. eigenvalues --  -14.60099 -14.48707 -14.46529 -14.46186 -14.45637
 Alpha  occ. eigenvalues --  -14.45612 -14.45560 -14.44871 -14.44223 -14.44173
 Alpha  occ. eigenvalues --  -14.44044 -14.42640 -14.41735 -14.41288 -10.43265
 Alpha  occ. eigenvalues --  -10.41609 -10.39653 -10.39605 -10.39387 -10.38317
 Alpha  occ. eigenvalues --  -10.38101 -10.37772 -10.37451 -10.37318 -10.37286
 Alpha  occ. eigenvalues --  -10.37097 -10.35704 -10.34739 -10.34280 -10.33406
 Alpha  occ. eigenvalues --  -10.33187 -10.32143 -10.31521 -10.31506 -10.31360
 Alpha  occ. eigenvalues --  -10.30917 -10.30907 -10.30857 -10.30366 -10.29966
 Alpha  occ. eigenvalues --  -10.29677 -10.27976  -1.19785  -1.19015  -1.14342
 Alpha  occ. eigenvalues --   -1.14158  -1.13560  -1.13414  -1.13024  -1.12803
 Alpha  occ. eigenvalues --   -1.12354  -1.11799  -1.11764  -1.11627  -1.11067
 Alpha  occ. eigenvalues --   -1.10141  -1.09594  -1.08936  -1.05610  -1.02760
 Alpha  occ. eigenvalues --   -1.02588  -1.02031  -1.01435  -1.01334  -1.01172
 Alpha  occ. eigenvalues --   -1.00929  -1.00516  -1.00102  -0.98716  -0.98412
 Alpha  occ. eigenvalues --   -0.97589  -0.89715  -0.86390  -0.85719  -0.85153
 Alpha  occ. eigenvalues --   -0.84118  -0.83706  -0.82668  -0.81526  -0.80772
 Alpha  occ. eigenvalues --   -0.79652  -0.78502  -0.77595  -0.76664  -0.74792
 Alpha  occ. eigenvalues --   -0.74065  -0.73776  -0.71855  -0.71029  -0.69280
 Alpha  occ. eigenvalues --   -0.69015  -0.68637  -0.68357  -0.67884  -0.67226
 Alpha  occ. eigenvalues --   -0.66895  -0.66520  -0.66256  -0.66073  -0.65129
 Alpha  occ. eigenvalues --   -0.64331  -0.64195  -0.63356  -0.62991  -0.62803
 Alpha  occ. eigenvalues --   -0.62397  -0.61583  -0.61372  -0.61144  -0.60577
 Alpha  occ. eigenvalues --   -0.60081  -0.59444  -0.59214  -0.58510  -0.58364
 Alpha  occ. eigenvalues --   -0.58264  -0.57979  -0.57837  -0.57627  -0.56911
 Alpha  occ. eigenvalues --   -0.56600  -0.56410  -0.56155  -0.55951  -0.55750
 Alpha  occ. eigenvalues --   -0.55588  -0.55258  -0.54622  -0.54173  -0.53890
 Alpha  occ. eigenvalues --   -0.53858  -0.53275  -0.52984  -0.52406  -0.52287
 Alpha  occ. eigenvalues --   -0.52077  -0.51840  -0.51702  -0.51248  -0.51022
 Alpha  occ. eigenvalues --   -0.50824  -0.50709  -0.50593  -0.50140  -0.50038
 Alpha  occ. eigenvalues --   -0.49947  -0.49610  -0.49339  -0.49167  -0.48937
 Alpha  occ. eigenvalues --   -0.48435  -0.48381  -0.47990  -0.47880  -0.47650
 Alpha  occ. eigenvalues --   -0.47402  -0.47262  -0.46960  -0.46864  -0.46668
 Alpha  occ. eigenvalues --   -0.46425  -0.46098  -0.45849  -0.45304  -0.45173
 Alpha  occ. eigenvalues --   -0.45058  -0.44687  -0.44258  -0.44043  -0.43519
 Alpha  occ. eigenvalues --   -0.43065  -0.42290  -0.41779  -0.40968  -0.39655
 Alpha  occ. eigenvalues --   -0.38368  -0.37395  -0.37107  -0.36955  -0.36851
 Alpha  occ. eigenvalues --   -0.36670  -0.36367  -0.36164  -0.35909  -0.35776
 Alpha  occ. eigenvalues --   -0.35596  -0.35476  -0.35175  -0.34107  -0.34021
 Alpha  occ. eigenvalues --   -0.33530  -0.33327  -0.32842  -0.32807  -0.32416
 Alpha  occ. eigenvalues --   -0.32076  -0.31846  -0.31107  -0.30660  -0.29368
 Alpha virt. eigenvalues --   -0.11703  -0.11466  -0.09222  -0.08863  -0.08431
 Alpha virt. eigenvalues --   -0.07843  -0.07565  -0.07322  -0.06795  -0.06143
 Alpha virt. eigenvalues --   -0.06058  -0.05940  -0.05665  -0.05295  -0.04928

 Mulliken charges:
               1
     1  N   -0.755380
     2  H    0.417310
     3  H    0.417277
     4  H    0.435205
     5  C   -0.265541
     6  H    0.251329
     7  H    0.251142
     8  C    0.605768
     9  O   -0.538143
    10  N   -0.591596
    11  H    0.406652
    12  C   -0.269706
    13  H    0.245895
    14  H    0.197962
    15  C    0.646237
    16  O   -0.563658
    17  N   -0.554372
    18  H    0.357863
    19  C   -0.288343
    20  H    0.238963
    21  H    0.200594
    22  C    0.586502
    23  O   -0.525349
    24  N   -0.610154
    25  H    0.392887
    26  C   -0.238872
    27  H    0.199198
    28  H    0.200006
    29  C    0.619871
    30  O   -0.548586
    31  N   -0.582476
    32  H    0.352391
    33  C   -0.241961
    34  H    0.196322
    35  H    0.196610
    36  C    0.585275
    37  O   -0.482256
    38  N   -0.615883
    39  H    0.385766
    40  C   -0.221492
    41  H    0.216947
    42  H    0.156234
    43  C    0.555904
    44  O   -0.489278
    45  N   -0.574925
    46  H    0.367969
    47  C   -0.261939
    48  H    0.215825
    49  H    0.185279
    50  C    0.621281
    51  O   -0.559230
    52  N   -0.570721
    53  H    0.354263
    54  C   -0.221725
    55  H    0.194649
    56  H    0.181745
    57  C    0.573864
    58  O   -0.496756
    59  N   -0.598439
    60  H    0.376286
    61  C   -0.213357
    62  H    0.176657
    63  H    0.218469
    64  C    0.624034
    65  O   -0.574437
    66  N   -0.584903
    67  H    0.399453
    68  C   -0.245279
    69  H    0.202793
    70  H    0.180365
    71  C    0.619919
    72  O   -0.559610
    73  N   -0.577298
    74  H    0.379574
    75  C   -0.281985
    76  H    0.209611
    77  H    0.218337
    78  C    0.586790
    79  O   -0.536158
    80  N   -0.578783
    81  H    0.387310
    82  C   -0.242610
    83  H    0.201095
    84  H    0.205049
    85  C    0.594565
    86  O   -0.516877
    87  N   -0.625081
    88  H    0.396546
    89  C   -0.235125
    90  H    0.191740
    91  H    0.195631
    92  C    0.614639
    93  O   -0.591378
    94  N   -0.577551
    95  H    0.400869
    96  C   -0.189508
    97  H    0.200818
    98  H    0.196457
    99  C    0.573016
   100  O   -0.432717
   101  O   -0.562278
   102  H    0.430707
 Sum of Mulliken charges =   1.00000

 Dipole moment (field-independent basis, Debye):
    X=             41.8747    Y=             28.5262    Z=            -25.6714  Tot=             56.8001
 Quadrupole moment (field-independent basis, Debye-Ang):
   XX=             78.2941   YY=           -123.9668   ZZ=            -94.4191
   XY=            308.4857   XZ=           -280.4474   YZ=           -178.9457

 Normal termination of Gaussian 16 at Thu Aug 11 11:21:59 2022.
