 Gaussian 16, Revision C.01,
 Gaussian 16:  ES64L-G16RevC.01  3-Jul-2019

 ----------------------------------------------------------------------
 # B3LYP/6-31G* empiricaldispersion=gd3 guess=read geom=check nosymm in
 tegral(ultrafinegrid)
 ----------------------------------------------------------------------

 ------------------------------------------------------
 Candidate Structure: Conf:242 Charge calc in gas phase
 ------------------------------------------------------
 Structure from the checkpoint file:  "conf-242.chk"
 Charge =  1 Multiplicity = 1

                          Input orientation:
 ---------------------------------------------------------------------
 Center     Atomic      Atomic             Coordinates (Angstroms)
 Number     Number       Type             X           Y           Z
 ---------------------------------------------------------------------
      1          7           0        4.085443    7.697363    5.315892
      2          1           0        3.103348    7.448892    5.522648
      3          1           0        4.715498    7.574133    6.133914
      4          1           0        4.392522    7.032338    4.564774
      5          6           0        4.137747    9.103404    4.773548
      6          1           0        3.148607    9.325869    4.371040
      7          1           0        4.367684    9.782347    5.595290
      8          6           0        5.262180    9.121385    3.731263
      9          8           0        6.428366    8.979843    4.083048
     10          7           0        4.860109    9.178688    2.446337
     11          1           0        3.874273    9.231010    2.216358
     12          6           0        5.682134    8.660719    1.364944
     13          1           0        6.383772    7.922248    1.765163
     14          1           0        6.263168    9.457248    0.881749
     15          6           0        4.724368    8.067708    0.332816
     16          8           0        3.570139    8.507925    0.237136
     17          7           0        5.190443    7.102257   -0.485880
     18          1           0        6.033802    6.579043   -0.276402
     19          6           0        4.312599    6.548172   -1.502300
     20          1           0        4.093235    7.303762   -2.263909
     21          1           0        4.831444    5.701758   -1.954678
     22          6           0        3.029245    6.030825   -0.867404
     23          8           0        3.044878    5.426966    0.219741
     24          7           0        1.876997    6.283495   -1.505258
     25          1           0        1.896297    6.812664   -2.365753
     26          6           0        0.605881    5.795513   -0.986824
     27          1           0       -0.188045    6.087345   -1.678986
     28          1           0        0.634088    4.703549   -0.937753
     29          6           0        0.248358    6.305972    0.417519
     30          8           0       -0.562793    5.677088    1.093704
     31          7           0        0.880490    7.428817    0.856716
     32          1           0        1.655537    7.813191    0.324402
     33          6           0        0.739928    7.895738    2.224657
     34          1           0        1.140076    8.909792    2.295138
     35          1           0       -0.321612    7.939257    2.490426
     36          6           0        1.382483    7.017759    3.313641
     37          8           0        1.400319    7.402429    4.492666
     38          7           0        1.810902    5.813684    2.907884
     39          1           0        2.034500    5.697271    1.923860
     40          6           0        2.078228    4.697839    3.794453
     41          1           0        2.974602    4.843806    4.401770
     42          1           0        1.231583    4.574026    4.480482
     43          6           0        2.284802    3.426457    2.959373
     44          8           0        3.195586    2.636615    3.211859
     45          7           0        1.425158    3.263687    1.925221
     46          1           0        0.688361    3.943605    1.754782
     47          6           0        1.587301    2.169266    0.977506
     48          1           0        1.869389    1.269623    1.531512
     49          1           0        0.631050    1.999816    0.481117
     50          6           0        2.614843    2.466944   -0.137993
     51          8           0        2.258569    2.889311   -1.234413
     52          7           0        3.909021    2.184233    0.187832
     53          1           0        4.114625    1.965621    1.157034
     54          6           0        4.990712    2.219226   -0.790471
     55          1           0        4.559433    2.560150   -1.731906
     56          1           0        5.387739    1.205194   -0.934172
     57          6           0        6.127684    3.179125   -0.409794
     58          8           0        6.162228    4.348612   -0.808734
     59          7           0        7.064122    2.668188    0.414159
     60          1           0        7.077284    1.687900    0.674472
     61          6           0        8.110916    3.483109    0.999576
     62          1           0        8.895486    3.708320    0.263652
     63          1           0        7.692644    4.436108    1.335672
     64          6           0        8.735905    2.692828    2.154640
     65          8           0        8.775232    1.469298    2.140058
     66          7           0        9.263186    3.464431    3.149857
     67          1           0        9.005317    4.448137    3.171076
     68          6           0        9.769944    2.863385    4.363835
     69          1           0       10.184933    1.883588    4.104309
     70          1           0       10.575949    3.483359    4.772114
     71          6           0        8.651316    2.628391    5.397401
     72          8           0        7.519025    2.324935    5.069694
     73          7           0        9.006638    2.793589    6.721801
     74          1           0        9.987687    2.860711    6.958593
     75          6           0        8.064017    2.424692    7.783743
     76          1           0        8.627787    2.116057    8.669054
     77          1           0        7.434705    1.600356    7.441579
     78          6           0        7.148217    3.621201    8.066059
     79          8           0        6.127125    3.827732    7.415808
     80          7           0        7.596357    4.548307    8.965628
     81          1           0        8.352012    4.333148    9.601335
     82          6           0        6.864689    5.803670    9.096130
     83          1           0        5.825676    5.629341    9.385914
     84          1           0        7.346120    6.416417    9.863354
     85          6           0        6.823714    6.582661    7.769275
     86          8           0        5.868573    7.314737    7.500785
     87          7           0        7.899088    6.404874    6.967405
     88          1           0        8.565984    5.697862    7.248461
     89          6           0        8.001900    6.932487    5.619495
     90          1           0        9.048003    7.124622    5.373044
     91          1           0        7.463914    7.881727    5.557110
     92          6           0        7.421065    6.028710    4.530436
     93          8           0        7.832132    6.109283    3.365503
     94          7           0        6.408507    5.206035    4.886153
     95          1           0        6.251980    4.950652    5.856967
     96          6           0        5.809082    4.353679    3.883778
     97          1           0        5.072754    3.692999    4.349242
     98          1           0        6.539619    3.699213    3.411832
     99          6           0        5.105173    5.171852    2.828303
    100          8           0        4.648030    6.301824    3.008778
    101          8           0        4.984919    4.517031    1.703053
    102          1           0        4.373248    4.983158    1.053003
 ---------------------------------------------------------------------

 SCF Done:  E(RB3LYP) =  -2989.21632458     A.U. after    3 cycles

 Alpha  occ. eigenvalues --  -19.27479 -19.24189 -19.24044 -19.23785 -19.23689
 Alpha  occ. eigenvalues --  -19.23137 -19.22009 -19.21935 -19.21883 -19.21649
 Alpha  occ. eigenvalues --  -19.20707 -19.20491 -19.20159 -19.20139 -19.19243
 Alpha  occ. eigenvalues --  -14.52250 -14.48942 -14.47887 -14.47818 -14.47809
 Alpha  occ. eigenvalues --  -14.46815 -14.46196 -14.45720 -14.45064 -14.45052
 Alpha  occ. eigenvalues --  -14.44921 -14.44676 -14.44569 -14.43974 -10.41814
 Alpha  occ. eigenvalues --  -10.40915 -10.40905 -10.40535 -10.39986 -10.39457
 Alpha  occ. eigenvalues --  -10.39177 -10.39010 -10.38540 -10.38112 -10.38010
 Alpha  occ. eigenvalues --  -10.37450 -10.37331 -10.36562 -10.35113 -10.34526
 Alpha  occ. eigenvalues --  -10.34338 -10.32883 -10.32760 -10.32680 -10.32461
 Alpha  occ. eigenvalues --  -10.32275 -10.32240 -10.32228 -10.31232 -10.30970
 Alpha  occ. eigenvalues --  -10.30729 -10.30705  -1.20124  -1.16280  -1.16070
 Alpha  occ. eigenvalues --   -1.15060  -1.14728  -1.14180  -1.13946  -1.13577
 Alpha  occ. eigenvalues --   -1.13282  -1.12484  -1.12337  -1.12265  -1.11610
 Alpha  occ. eigenvalues --   -1.10899  -1.10742  -1.07402  -1.05217  -1.04005
 Alpha  occ. eigenvalues --   -1.03757  -1.03087  -1.02952  -1.02790  -1.02510
 Alpha  occ. eigenvalues --   -1.01743  -1.01214  -1.01148  -1.00755  -1.00121
 Alpha  occ. eigenvalues --   -0.99483  -0.87834  -0.87271  -0.86074  -0.85794
 Alpha  occ. eigenvalues --   -0.85022  -0.84367  -0.83419  -0.82587  -0.81612
 Alpha  occ. eigenvalues --   -0.80725  -0.79978  -0.78930  -0.78231  -0.76583
 Alpha  occ. eigenvalues --   -0.72945  -0.71913  -0.71252  -0.70117  -0.69939
 Alpha  occ. eigenvalues --   -0.69821  -0.68926  -0.68791  -0.68299  -0.67992
 Alpha  occ. eigenvalues --   -0.67832  -0.67684  -0.67325  -0.67079  -0.66934
 Alpha  occ. eigenvalues --   -0.65795  -0.65000  -0.64644  -0.64172  -0.63831
 Alpha  occ. eigenvalues --   -0.63142  -0.62868  -0.61878  -0.61555  -0.60906
 Alpha  occ. eigenvalues --   -0.60425  -0.60022  -0.59822  -0.59385  -0.59240
 Alpha  occ. eigenvalues --   -0.58884  -0.58618  -0.58403  -0.57675  -0.57179
 Alpha  occ. eigenvalues --   -0.57031  -0.56864  -0.56664  -0.56230  -0.56118
 Alpha  occ. eigenvalues --   -0.55870  -0.55551  -0.55459  -0.55097  -0.54801
 Alpha  occ. eigenvalues --   -0.54590  -0.54554  -0.54032  -0.53977  -0.53756
 Alpha  occ. eigenvalues --   -0.53545  -0.53309  -0.52995  -0.52792  -0.52554
 Alpha  occ. eigenvalues --   -0.52152  -0.51814  -0.51550  -0.51156  -0.50952
 Alpha  occ. eigenvalues --   -0.50760  -0.50540  -0.50362  -0.50201  -0.50024
 Alpha  occ. eigenvalues --   -0.49763  -0.49676  -0.49359  -0.49287  -0.48882
 Alpha  occ. eigenvalues --   -0.48572  -0.48165  -0.48044  -0.47914  -0.47429
 Alpha  occ. eigenvalues --   -0.47366  -0.47131  -0.46843  -0.46287  -0.46203
 Alpha  occ. eigenvalues --   -0.45707  -0.45642  -0.45416  -0.45135  -0.44724
 Alpha  occ. eigenvalues --   -0.44196  -0.43939  -0.41009  -0.39834  -0.39454
 Alpha  occ. eigenvalues --   -0.39225  -0.39111  -0.38756  -0.38358  -0.37791
 Alpha  occ. eigenvalues --   -0.37572  -0.36864  -0.36777  -0.36667  -0.36223
 Alpha  occ. eigenvalues --   -0.35982  -0.35917  -0.35807  -0.35545  -0.35190
 Alpha  occ. eigenvalues --   -0.35062  -0.34909  -0.34830  -0.34500  -0.34026
 Alpha  occ. eigenvalues --   -0.33842  -0.33241  -0.32972  -0.31996  -0.31858
 Alpha virt. eigenvalues --   -0.11271  -0.10139  -0.09735  -0.09195  -0.08881
 Alpha virt. eigenvalues --   -0.08550  -0.08292  -0.08114  -0.07833  -0.07526
 Alpha virt. eigenvalues --   -0.07172  -0.06643  -0.05821  -0.05298  -0.04841

 Mulliken charges:
               1
     1  N   -0.833403
     2  H    0.421363
     3  H    0.445312
     4  H    0.445744
     5  C   -0.251593
     6  H    0.207902
     7  H    0.224350
     8  C    0.588473
     9  O   -0.497880
    10  N   -0.571961
    11  H    0.354901
    12  C   -0.208113
    13  H    0.218361
    14  H    0.207040
    15  C    0.622268
    16  O   -0.561470
    17  N   -0.597894
    18  H    0.376909
    19  C   -0.235964
    20  H    0.178980
    21  H    0.243529
    22  C    0.671521
    23  O   -0.584605
    24  N   -0.593254
    25  H    0.358494
    26  C   -0.232876
    27  H    0.202263
    28  H    0.233888
    29  C    0.583134
    30  O   -0.525500
    31  N   -0.615235
    32  H    0.396176
    33  C   -0.225584
    34  H    0.177225
    35  H    0.227279
    36  C    0.604459
    37  O   -0.571200
    38  N   -0.628511
    39  H    0.418710
    40  C   -0.193480
    41  H    0.157921
    42  H    0.209486
    43  C    0.576086
    44  O   -0.535323
    45  N   -0.594233
    46  H    0.383108
    47  C   -0.237436
    48  H    0.193667
    49  H    0.194888
    50  C    0.616488
    51  O   -0.524039
    52  N   -0.588893
    53  H    0.364777
    54  C   -0.222237
    55  H    0.210185
    56  H    0.172146
    57  C    0.638482
    58  O   -0.567442
    59  N   -0.592056
    60  H    0.359250
    61  C   -0.205525
    62  H    0.199610
    63  H    0.192164
    64  C    0.584715
    65  O   -0.508628
    66  N   -0.607681
    67  H    0.375362
    68  C   -0.249487
    69  H    0.230569
    70  H    0.159321
    71  C    0.609723
    72  O   -0.470470
    73  N   -0.618687
    74  H    0.341036
    75  C   -0.223999
    76  H    0.172276
    77  H    0.230271
    78  C    0.603751
    79  O   -0.495695
    80  N   -0.608904
    81  H    0.349085
    82  C   -0.212696
    83  H    0.218638
    84  H    0.202020
    85  C    0.604863
    86  O   -0.549414
    87  N   -0.570368
    88  H    0.340600
    89  C   -0.259960
    90  H    0.189037
    91  H    0.256756
    92  C    0.594933
    93  O   -0.547284
    94  N   -0.625284
    95  H    0.413344
    96  C   -0.251412
    97  H    0.242758
    98  H    0.214091
    99  C    0.649018
   100  O   -0.551317
   101  O   -0.592561
   102  H    0.480841
 Sum of Mulliken charges =   1.00000

 Dipole moment (field-independent basis, Debye):
    X=             30.1670    Y=             28.3455    Z=             21.3379  Tot=             46.5706
 Quadrupole moment (field-independent basis, Debye-Ang):
   XX=            -83.2137   YY=           -135.1420   ZZ=           -117.7920
   XY=            150.3557   XZ=            195.3959   YZ=            101.3781

 Normal termination of Gaussian 16 at Thu Aug 11 11:22:59 2022.
