 Gaussian 16, Revision C.01,
 Gaussian 16:  ES64L-G16RevC.01  3-Jul-2019

 ----------------------------------------------------------------------
 # B3LYP/6-31G* empiricaldispersion=gd3 guess=read geom=check nosymm in
 tegral(ultrafinegrid)
 ----------------------------------------------------------------------

 ------------------------------------------------------
 Candidate Structure: Conf:702 Charge calc in gas phase
 ------------------------------------------------------
 Structure from the checkpoint file:  "conf-702.chk"
 Charge =  1 Multiplicity = 1

                          Input orientation:
 ---------------------------------------------------------------------
 Center     Atomic      Atomic             Coordinates (Angstroms)
 Number     Number       Type             X           Y           Z
 ---------------------------------------------------------------------
      1          7           0       -5.153340    2.510146   -2.909138
      2          1           0       -5.021200    1.513209   -3.096814
      3          1           0       -5.726082    2.910167   -3.656599
      4          1           0       -5.643040    2.649148   -1.965926
      5          6           0       -3.863183    3.246994   -2.671265
      6          1           0       -3.018761    2.548499   -2.629316
      7          1           0       -3.694810    3.988638   -3.453266
      8          6           0       -4.045747    3.857043   -1.267166
      9          8           0       -5.077227    3.559117   -0.646899
     10          7           0       -3.055970    4.623436   -0.819792
     11          1           0       -2.217933    4.778316   -1.374131
     12          6           0       -2.985566    5.092121    0.555917
     13          1           0       -3.996930    5.227535    0.944814
     14          1           0       -2.477432    6.057692    0.568688
     15          6           0       -2.249075    4.163984    1.527626
     16          8           0       -2.123036    4.530731    2.696222
     17          7           0       -1.797742    2.974062    1.063345
     18          1           0       -1.703216    2.785163    0.068042
     19          6           0       -1.193937    2.009455    1.979078
     20          1           0       -1.721955    2.073589    2.935293
     21          1           0       -1.314175    1.007243    1.566498
     22          6           0        0.308026    2.254652    2.179626
     23          8           0        1.149279    1.436839    1.823122
     24          7           0        0.608677    3.460956    2.738360
     25          1           0       -0.161638    4.038011    3.068570
     26          6           0        1.970602    3.950563    2.787406
     27          1           0        2.155745    4.468832    3.733836
     28          1           0        2.650118    3.097820    2.734210
     29          6           0        2.357766    4.907116    1.654295
     30          8           0        3.529478    5.228268    1.482344
     31          7           0        1.330927    5.408870    0.907675
     32          1           0        0.456705    4.898821    0.902439
     33          6           0        1.634088    6.190183   -0.265778
     34          1           0        1.514166    7.266130   -0.064879
     35          1           0        2.686913    6.035187   -0.525223
     36          6           0        0.715684    5.853638   -1.427237
     37          8           0       -0.433802    5.422722   -1.258305
     38          7           0        1.207369    6.131606   -2.656202
     39          1           0        2.157322    6.469262   -2.732461
     40          6           0        0.390424    6.091869   -3.869583
     41          1           0       -0.607679    6.468535   -3.623304
     42          1           0        0.844314    6.741550   -4.618057
     43          6           0        0.302223    4.678220   -4.477226
     44          8           0        0.908446    4.373898   -5.492010
     45          7           0       -0.516946    3.833997   -3.775526
     46          1           0       -0.712381    4.119833   -2.819932
     47          6           0       -0.510456    2.389145   -4.014172
     48          1           0       -1.449344    2.070665   -4.486248
     49          1           0        0.313306    2.142116   -4.687140
     50          6           0       -0.384105    1.749829   -2.631284
     51          8           0       -1.262044    2.000212   -1.776859
     52          7           0        0.708037    1.011666   -2.420368
     53          1           0        1.371076    0.915623   -3.196490
     54          6           0        1.245894    0.787405   -1.084772
     55          1           0        1.781593   -0.162275   -1.062938
     56          1           0        0.440505    0.770298   -0.354988
     57          6           0        2.169842    1.979512   -0.787062
     58          8           0        1.749187    3.140678   -0.914917
     59          7           0        3.447379    1.672726   -0.494538
     60          1           0        3.756321    0.720477   -0.701182
     61          6           0        4.494899    2.690033   -0.569552
     62          1           0        4.192308    3.588606   -0.028848
     63          1           0        5.405520    2.289262   -0.123009
     64          6           0        4.744212    2.931565   -2.058676
     65          8           0        5.515552    2.236872   -2.712863
     66          7           0        3.982838    3.926589   -2.629785
     67          1           0        3.151001    4.152998   -2.086975
     68          6           0        3.795285    3.914707   -4.083169
     69          1           0        3.170299    3.078439   -4.404369
     70          1           0        3.283531    4.834358   -4.381843
     71          6           0        5.104284    3.824310   -4.855280
     72          8           0        5.182182    3.148353   -5.893385
     73          7           0        6.137906    4.569905   -4.410266
     74          1           0        6.068905    4.923962   -3.464477
     75          6           0        7.479216    4.330998   -4.935385
     76          1           0        8.139021    5.116483   -4.563737
     77          1           0        7.438629    4.384210   -6.025165
     78          6           0        8.045360    2.985427   -4.443604
     79          8           0        8.551517    2.874787   -3.330293
     80          7           0        7.955168    1.958187   -5.329984
     81          1           0        7.317534    2.054650   -6.110201
     82          6           0        8.582379    0.668322   -5.081338
     83          1           0        8.857077    0.215414   -6.035182
     84          1           0        9.488051    0.853153   -4.495262
     85          6           0        7.712874   -0.358507   -4.343357
     86          8           0        7.456783   -1.455197   -4.852745
     87          7           0        7.290178   -0.003299   -3.108357
     88          1           0        7.398227    0.960458   -2.808000
     89          6           0        6.503615   -0.904951   -2.275581
     90          1           0        6.550576   -0.559892   -1.242671
     91          1           0        6.941723   -1.906878   -2.340083
     92          6           0        5.025048   -0.970335   -2.682120
     93          8           0        4.106614   -0.596443   -1.942853
     94          7           0        4.797881   -1.464445   -3.922215
     95          1           0        5.622184   -1.656750   -4.497197
     96          6           0        3.524689   -1.219098   -4.573302
     97          1           0        2.702428   -1.454033   -3.897215
     98          1           0        3.455604   -1.849382   -5.464406
     99          6           0        3.424124    0.249420   -4.986300
    100          8           0        2.502960    0.990101   -4.652198
    101          8           0        4.455785    0.621284   -5.715804
    102          1           0        4.495343    1.614486   -5.854732
 ---------------------------------------------------------------------

 SCF Done:  E(RB3LYP) =  -2989.18219422     A.U. after    3 cycles

 Alpha  occ. eigenvalues --  -19.27118 -19.26544 -19.25160 -19.23283 -19.23152
 Alpha  occ. eigenvalues --  -19.22093 -19.21931 -19.21427 -19.21153 -19.20748
 Alpha  occ. eigenvalues --  -19.20488 -19.19717 -19.19358 -19.18845 -19.18790
 Alpha  occ. eigenvalues --  -14.60574 -14.49549 -14.49340 -14.46278 -14.45870
 Alpha  occ. eigenvalues --  -14.45757 -14.45351 -14.45215 -14.44259 -14.44122
 Alpha  occ. eigenvalues --  -14.43803 -14.43587 -14.43334 -14.42886 -10.43809
 Alpha  occ. eigenvalues --  -10.41838 -10.40992 -10.39819 -10.39552 -10.39217
 Alpha  occ. eigenvalues --  -10.38770 -10.38735 -10.37926 -10.37559 -10.36950
 Alpha  occ. eigenvalues --  -10.36859 -10.36653 -10.36135 -10.35752 -10.34383
 Alpha  occ. eigenvalues --  -10.33651 -10.33007 -10.32947 -10.31422 -10.31376
 Alpha  occ. eigenvalues --  -10.31328 -10.30862 -10.30805 -10.30550 -10.30243
 Alpha  occ. eigenvalues --  -10.30212 -10.29598  -1.19566  -1.18585  -1.16675
 Alpha  occ. eigenvalues --   -1.14476  -1.14145  -1.13888  -1.13685  -1.13283
 Alpha  occ. eigenvalues --   -1.12944  -1.12023  -1.11901  -1.11599  -1.11163
 Alpha  occ. eigenvalues --   -1.10853  -1.10215  -1.09805  -1.06515  -1.05095
 Alpha  occ. eigenvalues --   -1.02708  -1.02332  -1.02156  -1.01741  -1.01226
 Alpha  occ. eigenvalues --   -1.01058  -1.00530  -1.00203  -0.99700  -0.99568
 Alpha  occ. eigenvalues --   -0.98626  -0.90153  -0.87723  -0.85590  -0.85092
 Alpha  occ. eigenvalues --   -0.84566  -0.84015  -0.83019  -0.82149  -0.81087
 Alpha  occ. eigenvalues --   -0.80191  -0.79092  -0.77881  -0.77344  -0.76346
 Alpha  occ. eigenvalues --   -0.74428  -0.74365  -0.72998  -0.71358  -0.70850
 Alpha  occ. eigenvalues --   -0.69087  -0.68878  -0.68752  -0.68470  -0.67342
 Alpha  occ. eigenvalues --   -0.67128  -0.66953  -0.66829  -0.66361  -0.66208
 Alpha  occ. eigenvalues --   -0.65456  -0.65240  -0.64767  -0.63967  -0.63079
 Alpha  occ. eigenvalues --   -0.62330  -0.62137  -0.61525  -0.61150  -0.60845
 Alpha  occ. eigenvalues --   -0.60753  -0.60481  -0.60059  -0.59673  -0.59282
 Alpha  occ. eigenvalues --   -0.58877  -0.58401  -0.57989  -0.57739  -0.57618
 Alpha  occ. eigenvalues --   -0.57488  -0.56987  -0.56829  -0.56396  -0.56094
 Alpha  occ. eigenvalues --   -0.55961  -0.55349  -0.54949  -0.54789  -0.54164
 Alpha  occ. eigenvalues --   -0.54049  -0.53905  -0.53775  -0.53574  -0.53260
 Alpha  occ. eigenvalues --   -0.52664  -0.52427  -0.52056  -0.51756  -0.51660
 Alpha  occ. eigenvalues --   -0.51540  -0.51475  -0.51008  -0.50631  -0.50468
 Alpha  occ. eigenvalues --   -0.49985  -0.49645  -0.49535  -0.49370  -0.49178
 Alpha  occ. eigenvalues --   -0.48897  -0.48787  -0.48539  -0.48368  -0.48311
 Alpha  occ. eigenvalues --   -0.48127  -0.47772  -0.47585  -0.47250  -0.47036
 Alpha  occ. eigenvalues --   -0.46753  -0.46595  -0.46120  -0.46086  -0.45725
 Alpha  occ. eigenvalues --   -0.45346  -0.45156  -0.44772  -0.44693  -0.44408
 Alpha  occ. eigenvalues --   -0.44075  -0.43138  -0.42119  -0.40611  -0.40214
 Alpha  occ. eigenvalues --   -0.40018  -0.39351  -0.38338  -0.37820  -0.37526
 Alpha  occ. eigenvalues --   -0.37140  -0.36718  -0.36654  -0.36175  -0.35863
 Alpha  occ. eigenvalues --   -0.35769  -0.35616  -0.35374  -0.34825  -0.34761
 Alpha  occ. eigenvalues --   -0.34704  -0.34043  -0.33905  -0.33097  -0.32839
 Alpha  occ. eigenvalues --   -0.32423  -0.31968  -0.31782  -0.31680  -0.31084
 Alpha virt. eigenvalues --   -0.12135  -0.11866  -0.11076  -0.09978  -0.08703
 Alpha virt. eigenvalues --   -0.08494  -0.07980  -0.07876  -0.07675  -0.06623
 Alpha virt. eigenvalues --   -0.06374  -0.06213  -0.05713  -0.05475  -0.05030

 Mulliken charges:
               1
     1  N   -0.751757
     2  H    0.420574
     3  H    0.417404
     4  H    0.435824
     5  C   -0.310764
     6  H    0.278722
     7  H    0.229776
     8  C    0.631223
     9  O   -0.523558
    10  N   -0.620978
    11  H    0.405703
    12  C   -0.237185
    13  H    0.230739
    14  H    0.208690
    15  C    0.602334
    16  O   -0.523536
    17  N   -0.620465
    18  H    0.394289
    19  C   -0.245330
    20  H    0.208325
    21  H    0.186094
    22  C    0.605284
    23  O   -0.514342
    24  N   -0.619805
    25  H    0.377269
    26  C   -0.232209
    27  H    0.201376
    28  H    0.221678
    29  C    0.607677
    30  O   -0.520436
    31  N   -0.591067
    32  H    0.359776
    33  C   -0.200646
    34  H    0.200555
    35  H    0.193233
    36  C    0.649276
    37  O   -0.584851
    38  N   -0.589712
    39  H    0.357285
    40  C   -0.248285
    41  H    0.185883
    42  H    0.204070
    43  C    0.595690
    44  O   -0.482734
    45  N   -0.643030
    46  H    0.389235
    47  C   -0.216299
    48  H    0.148666
    49  H    0.235238
    50  C    0.591121
    51  O   -0.577570
    52  N   -0.593086
    53  H    0.409811
    54  C   -0.258481
    55  H    0.203752
    56  H    0.210482
    57  C    0.637694
    58  O   -0.585180
    59  N   -0.573263
    60  H    0.392652
    61  C   -0.271699
    62  H    0.227776
    63  H    0.190589
    64  C    0.582780
    65  O   -0.513488
    66  N   -0.635110
    67  H    0.373490
    68  C   -0.258616
    69  H    0.231886
    70  H    0.175760
    71  C    0.643516
    72  O   -0.579587
    73  N   -0.548155
    74  H    0.352845
    75  C   -0.237553
    76  H    0.195327
    77  H    0.191730
    78  C    0.611076
    79  O   -0.524997
    80  N   -0.576067
    81  H    0.358135
    82  C   -0.233052
    83  H    0.192240
    84  H    0.208506
    85  C    0.599655
    86  O   -0.539522
    87  N   -0.567862
    88  H    0.388787
    89  C   -0.235511
    90  H    0.179740
    91  H    0.204336
    92  C    0.619938
    93  O   -0.559109
    94  N   -0.577756
    95  H    0.395995
    96  C   -0.216725
    97  H    0.190225
    98  H    0.198704
    99  C    0.609149
   100  O   -0.506511
   101  O   -0.570780
   102  H    0.467089
 Sum of Mulliken charges =   1.00000

 Dipole moment (field-independent basis, Debye):
    X=             -8.0618    Y=             16.4725    Z=            -16.2207  Tot=             24.4836
 Quadrupole moment (field-independent basis, Debye-Ang):
   XX=           -216.5576   YY=           -234.2869   ZZ=           -274.4760
   XY=             -9.8571   XZ=             22.7777   YZ=            -55.4772

 Normal termination of Gaussian 16 at Thu Aug 11 11:22:33 2022.
