 Gaussian 16, Revision C.01,
 Gaussian 16:  ES64L-G16RevC.01  3-Jul-2019

 ----------------------------------------------------------------------
 # B3LYP/6-31G* empiricaldispersion=gd3 guess=read geom=check nosymm in
 tegral(ultrafinegrid)
 ----------------------------------------------------------------------

 ------------------------------------------------------
 Candidate Structure: Conf:156 Charge calc in gas phase
 ------------------------------------------------------
 Structure from the checkpoint file:  "conf-156.chk"
 Charge =  1 Multiplicity = 1

                          Input orientation:
 ---------------------------------------------------------------------
 Center     Atomic      Atomic             Coordinates (Angstroms)
 Number     Number       Type             X           Y           Z
 ---------------------------------------------------------------------
      1          7           0        9.753540    0.364234   -2.353678
      2          1           0       10.409975   -0.326927   -1.986161
      3          1           0        8.844718   -0.111567   -2.541962
      4          1           0        9.586807    1.056674   -1.586027
      5          6           0       10.224715    0.985774   -3.624491
      6          1           0       11.223761    1.399079   -3.466905
      7          1           0       10.255064    0.208463   -4.388815
      8          6           0        9.250681    2.126200   -3.940568
      9          8           0        8.981213    2.928380   -3.051712
     10          7           0        8.782905    2.172839   -5.206120
     11          1           0        8.810180    1.316583   -5.752683
     12          6           0        7.650700    3.023332   -5.541992
     13          1           0        7.903849    3.688663   -6.376014
     14          1           0        7.402666    3.633269   -4.670426
     15          6           0        6.486918    2.114160   -5.959487
     16          8           0        6.692044    1.016076   -6.475158
     17          7           0        5.253988    2.609691   -5.716388
     18          1           0        5.135190    3.449769   -5.160078
     19          6           0        4.056212    1.814686   -5.923359
     20          1           0        3.636744    1.975669   -6.925775
     21          1           0        4.308982    0.752491   -5.843005
     22          6           0        3.023096    2.278836   -4.902364
     23          8           0        2.872162    3.472146   -4.662801
     24          7           0        2.285371    1.315855   -4.280136
     25          1           0        2.527314    0.332805   -4.346585
     26          6           0        1.194080    1.700499   -3.407367
     27          1           0        0.791165    2.653001   -3.767496
     28          1           0        0.396816    0.955827   -3.457501
     29          6           0        1.530168    1.878006   -1.925906
     30          8           0        0.674473    1.554949   -1.080197
     31          7           0        2.730636    2.377746   -1.584180
     32          1           0        3.402946    2.692571   -2.284246
     33          6           0        3.069408    2.631066   -0.182717
     34          1           0        3.961678    3.255613   -0.170098
     35          1           0        2.246509    3.165840    0.302550
     36          6           0        3.379081    1.313582    0.550850
     37          8           0        4.525741    0.867804    0.650585
     38          7           0        2.294003    0.659564    1.035582
     39          1           0        1.392862    1.060727    0.792322
     40          6           0        2.356682   -0.740825    1.410516
     41          1           0        3.357507   -0.964740    1.782463
     42          1           0        1.644477   -0.946827    2.216122
     43          6           0        2.069718   -1.720364    0.262911
     44          8           0        2.372629   -2.913927    0.371084
     45          7           0        1.461888   -1.219895   -0.835315
     46          1           0        1.134711   -0.255495   -0.859793
     47          6           0        1.083725   -2.080470   -1.942784
     48          1           0        0.444008   -2.897002   -1.589203
     49          1           0        0.514250   -1.480752   -2.655406
     50          6           0        2.324570   -2.622286   -2.667586
     51          8           0        3.012907   -1.892615   -3.394370
     52          7           0        2.574968   -3.927915   -2.426611
     53          1           0        1.995085   -4.374333   -1.727284
     54          6           0        3.745603   -4.648207   -2.878401
     55          1           0        4.257672   -4.042751   -3.624428
     56          1           0        3.453781   -5.578265   -3.377404
     57          6           0        4.751108   -5.037935   -1.786970
     58          8           0        5.725775   -5.744560   -2.094790
     59          7           0        4.529245   -4.613941   -0.533796
     60          1           0        3.761317   -3.977092   -0.319672
     61          6           0        5.379852   -5.026384    0.580381
     62          1           0        4.791352   -4.984585    1.497066
     63          1           0        5.705208   -6.056525    0.403485
     64          6           0        6.616167   -4.141613    0.798996
     65          8           0        6.868137   -3.653851    1.900354
     66          7           0        7.412324   -3.952889   -0.281542
     67          1           0        7.198115   -4.355728   -1.188332
     68          6           0        8.592721   -3.119522   -0.163830
     69          1           0        9.239999   -3.486531    0.639967
     70          1           0        9.122914   -3.170057   -1.115624
     71          6           0        8.191278   -1.658895    0.064202
     72          8           0        7.728084   -0.995510   -0.874488
     73          7           0        8.382727   -1.164222    1.302351
     74          1           0        8.490878   -1.857787    2.034090
     75          6           0        7.883611    0.141361    1.719381
     76          1           0        8.406802    0.417925    2.639743
     77          1           0        6.810040    0.081311    1.935760
     78          6           0        8.161084    1.229464    0.670200
     79          8           0        9.270635    1.348949    0.139201
     80          7           0        7.094959    2.022669    0.429757
     81          1           0        6.190420    1.702407    0.776199
     82          6           0        7.004070    2.958622   -0.679382
     83          1           0        6.544729    3.895880   -0.355378
     84          1           0        8.004270    3.174460   -1.059308
     85          6           0        6.151862    2.393860   -1.828531
     86          8           0        5.440860    3.127782   -2.528506
     87          7           0        6.248059    1.060846   -1.990610
     88          1           0        6.763281    0.497090   -1.319159
     89          6           0        5.516835    0.322879   -2.982343
     90          1           0        5.058656    1.044507   -3.657720
     91          1           0        4.711370   -0.265894   -2.526870
     92          6           0        6.448100   -0.580801   -3.792685
     93          8           0        7.660460   -0.366021   -3.884487
     94          7           0        5.832014   -1.593176   -4.436452
     95          1           0        4.856473   -1.789117   -4.216865
     96          6           0        6.600812   -2.584125   -5.177096
     97          1           0        7.509648   -2.101526   -5.539097
     98          1           0        6.016995   -2.953017   -6.021590
     99          6           0        6.957874   -3.721604   -4.217266
    100          8           0        7.625486   -3.557863   -3.213420
    101          8           0        6.360977   -4.869795   -4.553081
    102          1           0        6.377206   -5.468812   -3.759327
 ---------------------------------------------------------------------

 SCF Done:  E(RB3LYP) =  -2989.23640296     A.U. after    1 cycles

 Alpha  occ. eigenvalues --  -19.27684 -19.25178 -19.23593 -19.23466 -19.23193
 Alpha  occ. eigenvalues --  -19.23066 -19.22987 -19.22877 -19.22329 -19.22027
 Alpha  occ. eigenvalues --  -19.21841 -19.21671 -19.21102 -19.20600 -19.20451
 Alpha  occ. eigenvalues --  -14.53214 -14.49091 -14.47634 -14.47349 -14.47162
 Alpha  occ. eigenvalues --  -14.46935 -14.46818 -14.46804 -14.46346 -14.45861
 Alpha  occ. eigenvalues --  -14.45460 -14.45182 -14.44711 -14.44543 -10.41956
 Alpha  occ. eigenvalues --  -10.41210 -10.40643 -10.40436 -10.40237 -10.40190
 Alpha  occ. eigenvalues --  -10.39600 -10.39506 -10.39388 -10.39366 -10.39116
 Alpha  occ. eigenvalues --  -10.38239 -10.37846 -10.37580 -10.35499 -10.35073
 Alpha  occ. eigenvalues --  -10.34406 -10.33764 -10.33717 -10.33360 -10.33069
 Alpha  occ. eigenvalues --  -10.32500 -10.32461 -10.32255 -10.32223 -10.32047
 Alpha  occ. eigenvalues --  -10.31632 -10.31245  -1.19162  -1.16489  -1.15600
 Alpha  occ. eigenvalues --   -1.14987  -1.14933  -1.14636  -1.14612  -1.14454
 Alpha  occ. eigenvalues --   -1.13998  -1.13971  -1.13258  -1.12465  -1.12438
 Alpha  occ. eigenvalues --   -1.12129  -1.10269  -1.08311  -1.05623  -1.04709
 Alpha  occ. eigenvalues --   -1.03712  -1.03112  -1.02977  -1.02852  -1.02693
 Alpha  occ. eigenvalues --   -1.02599  -1.02295  -1.02243  -1.01486  -1.00966
 Alpha  occ. eigenvalues --   -1.00745  -0.88546  -0.87278  -0.86919  -0.86286
 Alpha  occ. eigenvalues --   -0.85720  -0.85258  -0.84062  -0.83101  -0.82020
 Alpha  occ. eigenvalues --   -0.81295  -0.80223  -0.79550  -0.78315  -0.77874
 Alpha  occ. eigenvalues --   -0.72712  -0.71522  -0.71210  -0.70446  -0.70141
 Alpha  occ. eigenvalues --   -0.69880  -0.69598  -0.69078  -0.68955  -0.68703
 Alpha  occ. eigenvalues --   -0.68185  -0.67963  -0.67702  -0.67422  -0.67316
 Alpha  occ. eigenvalues --   -0.66650  -0.66020  -0.65459  -0.65016  -0.63751
 Alpha  occ. eigenvalues --   -0.63525  -0.62931  -0.62466  -0.61771  -0.61396
 Alpha  occ. eigenvalues --   -0.60917  -0.60856  -0.60043  -0.59786  -0.59658
 Alpha  occ. eigenvalues --   -0.59547  -0.59035  -0.58918  -0.58085  -0.57789
 Alpha  occ. eigenvalues --   -0.57477  -0.57253  -0.57237  -0.56893  -0.56734
 Alpha  occ. eigenvalues --   -0.56339  -0.56261  -0.56041  -0.55621  -0.55506
 Alpha  occ. eigenvalues --   -0.55204  -0.54786  -0.54251  -0.54170  -0.53802
 Alpha  occ. eigenvalues --   -0.53778  -0.53484  -0.53256  -0.53010  -0.52873
 Alpha  occ. eigenvalues --   -0.52593  -0.52374  -0.52102  -0.51929  -0.51700
 Alpha  occ. eigenvalues --   -0.51397  -0.51264  -0.50904  -0.50880  -0.50592
 Alpha  occ. eigenvalues --   -0.50278  -0.49928  -0.49813  -0.49582  -0.49376
 Alpha  occ. eigenvalues --   -0.49139  -0.48822  -0.48628  -0.48514  -0.48437
 Alpha  occ. eigenvalues --   -0.48184  -0.47565  -0.47526  -0.47108  -0.47065
 Alpha  occ. eigenvalues --   -0.46961  -0.46790  -0.46412  -0.45977  -0.45281
 Alpha  occ. eigenvalues --   -0.44811  -0.44435  -0.41037  -0.40581  -0.40329
 Alpha  occ. eigenvalues --   -0.39745  -0.39471  -0.38577  -0.38466  -0.37934
 Alpha  occ. eigenvalues --   -0.37648  -0.37449  -0.37193  -0.36970  -0.36844
 Alpha  occ. eigenvalues --   -0.36693  -0.36664  -0.36475  -0.35993  -0.35801
 Alpha  occ. eigenvalues --   -0.35662  -0.35254  -0.34967  -0.34924  -0.34763
 Alpha  occ. eigenvalues --   -0.34509  -0.33934  -0.33641  -0.33562  -0.33402
 Alpha virt. eigenvalues --   -0.11239  -0.10414  -0.10156  -0.09890  -0.09368
 Alpha virt. eigenvalues --   -0.09311  -0.09063  -0.08943  -0.08595  -0.08124
 Alpha virt. eigenvalues --   -0.06815  -0.06767  -0.06452  -0.06080  -0.04093

 Mulliken charges:
               1
     1  N   -0.793341
     2  H    0.389059
     3  H    0.468729
     4  H    0.446912
     5  C   -0.247913
     6  H    0.223605
     7  H    0.204875
     8  C    0.628771
     9  O   -0.514478
    10  N   -0.569027
    11  H    0.360750
    12  C   -0.250066
    13  H    0.204981
    14  H    0.216517
    15  C    0.609969
    16  O   -0.532780
    17  N   -0.596012
    18  H    0.375922
    19  C   -0.206395
    20  H    0.209180
    21  H    0.179150
    22  C    0.580063
    23  O   -0.509059
    24  N   -0.606353
    25  H    0.357584
    26  C   -0.234770
    27  H    0.235498
    28  H    0.183780
    29  C    0.605411
    30  O   -0.563947
    31  N   -0.592878
    32  H    0.419480
    33  C   -0.237223
    34  H    0.196525
    35  H    0.201875
    36  C    0.600136
    37  O   -0.534454
    38  N   -0.581825
    39  H    0.373075
    40  C   -0.242356
    41  H    0.223629
    42  H    0.212194
    43  C    0.609991
    44  O   -0.550985
    45  N   -0.615009
    46  H    0.401112
    47  C   -0.235522
    48  H    0.189003
    49  H    0.192511
    50  C    0.614306
    51  O   -0.537779
    52  N   -0.570139
    53  H    0.359625
    54  C   -0.241706
    55  H    0.206858
    56  H    0.217398
    57  C    0.614005
    58  O   -0.564685
    59  N   -0.616395
    60  H    0.411595
    61  C   -0.245323
    62  H    0.201016
    63  H    0.212916
    64  C    0.598955
    65  O   -0.530486
    66  N   -0.595059
    67  H    0.395688
    68  C   -0.209365
    69  H    0.180426
    70  H    0.189280
    71  C    0.593086
    72  O   -0.554621
    73  N   -0.552932
    74  H    0.370375
    75  C   -0.227141
    76  H    0.204219
    77  H    0.196516
    78  C    0.604816
    79  O   -0.561960
    80  N   -0.600334
    81  H    0.388277
    82  C   -0.264208
    83  H    0.188560
    84  H    0.254860
    85  C    0.609454
    86  O   -0.577394
    87  N   -0.602364
    88  H    0.405746
    89  C   -0.268171
    90  H    0.205458
    91  H    0.186683
    92  C    0.679348
    93  O   -0.592195
    94  N   -0.629923
    95  H    0.389683
    96  C   -0.205864
    97  H    0.213803
    98  H    0.194357
    99  C    0.570835
   100  O   -0.469031
   101  O   -0.577429
   102  H    0.450467
 Sum of Mulliken charges =   1.00000

 Dipole moment (field-independent basis, Debye):
    X=             25.1529    Y=             -4.8892    Z=             -9.1826  Tot=             27.2193
 Quadrupole moment (field-independent basis, Debye-Ang):
   XX=           -108.1154   YY=           -299.0536   ZZ=           -273.0400
   XY=            -12.4844   XZ=            -55.8503   YZ=             11.0832

 Normal termination of Gaussian 16 at Thu Aug 11 11:21:37 2022.
