 Gaussian 16, Revision C.01,
 Gaussian 16:  ES64L-G16RevC.01  3-Jul-2019

 ----------------------------------------------------------------------
 # B3LYP/6-31G* empiricaldispersion=gd3 guess=read geom=check nosymm in
 tegral(ultrafinegrid)
 ----------------------------------------------------------------------

 ------------------------------------------------------
 Candidate Structure: Conf:746 Charge calc in gas phase
 ------------------------------------------------------
 Structure from the checkpoint file:  "conf-746.chk"
 Charge =  1 Multiplicity = 1

                          Input orientation:
 ---------------------------------------------------------------------
 Center     Atomic      Atomic             Coordinates (Angstroms)
 Number     Number       Type             X           Y           Z
 ---------------------------------------------------------------------
      1          7           0        5.791997    1.519537   -5.019729
      2          1           0        6.154244    1.343343   -4.033219
      3          1           0        5.190039    2.375478   -5.014062
      4          1           0        6.593395    1.680592   -5.632729
      5          6           0        4.876222    0.445458   -5.524472
      6          1           0        5.270636   -0.007215   -6.433621
      7          1           0        4.764625   -0.320172   -4.763885
      8          6           0        3.513332    1.126332   -5.753061
      9          8           0        3.404686    2.331090   -5.471599
     10          7           0        2.538850    0.350869   -6.231033
     11          1           0        2.714194   -0.652793   -6.340682
     12          6           0        1.172227    0.829285   -6.430908
     13          1           0        0.970565    0.961585   -7.501008
     14          1           0        1.056447    1.797948   -5.941914
     15          6           0        0.220682   -0.238226   -5.891620
     16          8           0        0.428656   -1.425068   -6.171268
     17          7           0       -0.796289    0.166596   -5.100690
     18          1           0       -0.778561    1.101247   -4.685498
     19          6           0       -1.600760   -0.826019   -4.377599
     20          1           0       -2.553709   -0.381389   -4.093006
     21          1           0       -1.764928   -1.687966   -5.027492
     22          6           0       -0.819430   -1.186946   -3.106827
     23          8           0       -1.132040   -0.732270   -1.998673
     24          7           0        0.329726   -1.873917   -3.325367
     25          1           0        0.534897   -2.106959   -4.294516
     26          6           0        1.480342   -1.737355   -2.434795
     27          1           0        1.167193   -1.832242   -1.394232
     28          1           0        2.192660   -2.518768   -2.678850
     29          6           0        2.160824   -0.365780   -2.641209
     30          8           0        3.314734   -0.234695   -3.067356
     31          7           0        1.349350    0.673485   -2.357186
     32          1           0        0.460161    0.427760   -1.937723
     33          6           0        1.554842    2.081657   -2.691768
     34          1           0        2.285820    2.536639   -2.020581
     35          1           0        1.908427    2.192141   -3.718903
     36          6           0        0.166437    2.695040   -2.501168
     37          8           0       -0.779517    2.362267   -3.216627
     38          7           0        0.021318    3.473451   -1.394610
     39          1           0        0.857779    3.636628   -0.845235
     40          6           0       -1.210083    3.415879   -0.594090
     41          1           0       -1.437909    4.388795   -0.158097
     42          1           0       -2.024147    3.093991   -1.245369
     43          6           0       -0.863461    2.426471    0.531529
     44          8           0       -0.408387    2.837899    1.600010
     45          7           0       -0.872448    1.114693    0.184338
     46          1           0       -1.306502    0.797748   -0.677662
     47          6           0       -0.263498    0.087367    1.027762
     48          1           0       -0.601431    0.219048    2.060976
     49          1           0       -0.590604   -0.882052    0.655403
     50          6           0        1.282097    0.099377    0.982830
     51          8           0        1.928929   -0.793987    0.426080
     52          7           0        1.868768    1.145803    1.609670
     53          1           0        1.261287    1.864465    1.999840
     54          6           0        3.309979    1.237632    1.790957
     55          1           0        3.719930    0.222220    1.791693
     56          1           0        3.520278    1.712565    2.750304
     57          6           0        4.037554    2.062082    0.723153
     58          8           0        4.597496    3.125691    0.996934
     59          7           0        4.031615    1.543520   -0.535965
     60          1           0        3.825178    0.555374   -0.648373
     61          6           0        4.767910    2.190960   -1.613677
     62          1           0        4.364028    1.823505   -2.554798
     63          1           0        4.611368    3.271676   -1.534072
     64          6           0        6.269281    1.891583   -1.587627
     65          8           0        6.831223    1.267295   -2.516943
     66          7           0        6.924574    2.349101   -0.513768
     67          1           0        6.359225    2.797070    0.210250
     68          6           0        8.284390    1.936352   -0.171284
     69          1           0        8.866293    1.835282   -1.090275
     70          1           0        8.733596    2.693559    0.471283
     71          6           0        8.182977    0.619285    0.613111
     72          8           0        8.114946    0.596139    1.830391
     73          7           0        8.097701   -0.496936   -0.184418
     74          1           0        7.924473   -0.325666   -1.169286
     75          6           0        7.550386   -1.719044    0.356224
     76          1           0        7.616047   -1.654988    1.447444
     77          1           0        8.139502   -2.586799    0.034351
     78          6           0        6.087044   -1.893709   -0.072279
     79          8           0        5.455315   -0.969531   -0.595782
     80          7           0        5.549613   -3.118713    0.126016
     81          1           0        6.143234   -3.867793    0.458208
     82          6           0        4.224696   -3.471779   -0.380420
     83          1           0        3.844087   -4.330464    0.172943
     84          1           0        3.556270   -2.619070   -0.219068
     85          6           0        4.267654   -3.860561   -1.868228
     86          8           0        3.914004   -4.971284   -2.264194
     87          7           0        4.743668   -2.893807   -2.696252
     88          1           0        4.800443   -1.940114   -2.349795
     89          6           0        5.014011   -3.144234   -4.102016
     90          1           0        5.433432   -4.151546   -4.201502
     91          1           0        5.756827   -2.425291   -4.450589
     92          6           0        3.801418   -3.048728   -5.039948
     93          8           0        3.764197   -2.227213   -5.961163
     94          7           0        2.812365   -3.939925   -4.780358
     95          1           0        3.039716   -4.651543   -4.085172
     96          6           0        1.843365   -4.277614   -5.803777
     97          1           0        1.502451   -3.371326   -6.307798
     98          1           0        0.970022   -4.755322   -5.351182
     99          6           0        2.460687   -5.213119   -6.840247
    100          8           0        3.624354   -5.538200   -6.870372
    101          8           0        1.529221   -5.617017   -7.725326
    102          1           0        1.974086   -6.199481   -8.370200
 ---------------------------------------------------------------------

 SCF Done:  E(RB3LYP) =  -2989.19175740     A.U. after    1 cycles

 Alpha  occ. eigenvalues --  -19.27485 -19.24877 -19.24676 -19.24219 -19.23682
 Alpha  occ. eigenvalues --  -19.23318 -19.23060 -19.23024 -19.22410 -19.22220
 Alpha  occ. eigenvalues --  -19.22165 -19.22052 -19.21966 -19.21944 -19.20571
 Alpha  occ. eigenvalues --  -14.55262 -14.47988 -14.47724 -14.47476 -14.47132
 Alpha  occ. eigenvalues --  -14.47013 -14.46954 -14.46414 -14.46397 -14.46239
 Alpha  occ. eigenvalues --  -14.45795 -14.45769 -14.45340 -14.44954 -10.41754
 Alpha  occ. eigenvalues --  -10.41056 -10.40741 -10.40209 -10.40171 -10.40041
 Alpha  occ. eigenvalues --  -10.39992 -10.39906 -10.39290 -10.39093 -10.39015
 Alpha  occ. eigenvalues --  -10.38897 -10.38792 -10.37756 -10.36305 -10.34070
 Alpha  occ. eigenvalues --  -10.33961 -10.33533 -10.33247 -10.33093 -10.32783
 Alpha  occ. eigenvalues --  -10.32742 -10.32629 -10.32454 -10.32407 -10.32282
 Alpha  occ. eigenvalues --  -10.32254 -10.31690  -1.18422  -1.16821  -1.16093
 Alpha  occ. eigenvalues --   -1.15610  -1.15375  -1.14928  -1.14834  -1.14300
 Alpha  occ. eigenvalues --   -1.14217  -1.13974  -1.13860  -1.13287  -1.13187
 Alpha  occ. eigenvalues --   -1.12461  -1.09878  -1.09627  -1.04464  -1.04287
 Alpha  occ. eigenvalues --   -1.03946  -1.03780  -1.03466  -1.03282  -1.02645
 Alpha  occ. eigenvalues --   -1.02480  -1.02294  -1.02163  -1.01551  -1.01448
 Alpha  occ. eigenvalues --   -1.01255  -0.88340  -0.87715  -0.87204  -0.86487
 Alpha  occ. eigenvalues --   -0.85581  -0.84853  -0.84238  -0.83182  -0.82061
 Alpha  occ. eigenvalues --   -0.81256  -0.80290  -0.79402  -0.78662  -0.78147
 Alpha  occ. eigenvalues --   -0.71573  -0.71129  -0.70962  -0.70608  -0.70583
 Alpha  occ. eigenvalues --   -0.70161  -0.69951  -0.69814  -0.69052  -0.68799
 Alpha  occ. eigenvalues --   -0.68480  -0.68064  -0.68056  -0.67485  -0.67169
 Alpha  occ. eigenvalues --   -0.66968  -0.65403  -0.65144  -0.64661  -0.64189
 Alpha  occ. eigenvalues --   -0.63601  -0.63290  -0.62787  -0.62023  -0.61204
 Alpha  occ. eigenvalues --   -0.60920  -0.60578  -0.60227  -0.59849  -0.59428
 Alpha  occ. eigenvalues --   -0.59062  -0.58888  -0.58806  -0.58641  -0.58384
 Alpha  occ. eigenvalues --   -0.58050  -0.57793  -0.57541  -0.57055  -0.56604
 Alpha  occ. eigenvalues --   -0.56573  -0.56459  -0.56367  -0.56152  -0.55546
 Alpha  occ. eigenvalues --   -0.55437  -0.55082  -0.54803  -0.54489  -0.54315
 Alpha  occ. eigenvalues --   -0.53912  -0.53510  -0.53101  -0.52620  -0.52454
 Alpha  occ. eigenvalues --   -0.52347  -0.52142  -0.51799  -0.51574  -0.51483
 Alpha  occ. eigenvalues --   -0.51242  -0.50998  -0.50930  -0.50805  -0.50760
 Alpha  occ. eigenvalues --   -0.50404  -0.50080  -0.49755  -0.49712  -0.49368
 Alpha  occ. eigenvalues --   -0.48980  -0.48909  -0.48880  -0.48454  -0.48305
 Alpha  occ. eigenvalues --   -0.48079  -0.48020  -0.47845  -0.47588  -0.47358
 Alpha  occ. eigenvalues --   -0.47337  -0.46971  -0.46922  -0.46826  -0.46337
 Alpha  occ. eigenvalues --   -0.46087  -0.45897  -0.39973  -0.39842  -0.39704
 Alpha  occ. eigenvalues --   -0.39403  -0.39028  -0.38885  -0.38686  -0.38429
 Alpha  occ. eigenvalues --   -0.38296  -0.38170  -0.37985  -0.37845  -0.37727
 Alpha  occ. eigenvalues --   -0.37154  -0.36853  -0.36673  -0.36401  -0.35720
 Alpha  occ. eigenvalues --   -0.35507  -0.35353  -0.35164  -0.35103  -0.35000
 Alpha  occ. eigenvalues --   -0.34527  -0.34217  -0.34004  -0.33885  -0.33449
 Alpha virt. eigenvalues --   -0.12419  -0.12097  -0.11002  -0.10033  -0.09769
 Alpha virt. eigenvalues --   -0.09481  -0.08919  -0.08883  -0.07890  -0.07426
 Alpha virt. eigenvalues --   -0.07189  -0.07016  -0.06859  -0.06515  -0.06484

 Mulliken charges:
               1
     1  N   -0.801394
     2  H    0.453340
     3  H    0.409247
     4  H    0.398764
     5  C   -0.263981
     6  H    0.228593
     7  H    0.263896
     8  C    0.620701
     9  O   -0.552237
    10  N   -0.613381
    11  H    0.415830
    12  C   -0.214638
    13  H    0.214004
    14  H    0.201169
    15  C    0.594022
    16  O   -0.537002
    17  N   -0.598607
    18  H    0.393974
    19  C   -0.237488
    20  H    0.203284
    21  H    0.210571
    22  C    0.584002
    23  O   -0.547136
    24  N   -0.579160
    25  H    0.395183
    26  C   -0.290757
    27  H    0.237724
    28  H    0.198256
    29  C    0.624665
    30  O   -0.573952
    31  N   -0.622934
    32  H    0.394253
    33  C   -0.220025
    34  H    0.180743
    35  H    0.220610
    36  C    0.550943
    37  O   -0.512072
    38  N   -0.552020
    39  H    0.351742
    40  C   -0.225790
    41  H    0.209605
    42  H    0.211771
    43  C    0.576695
    44  O   -0.516040
    45  N   -0.606066
    46  H    0.386925
    47  C   -0.229364
    48  H    0.203495
    49  H    0.204925
    50  C    0.590320
    51  O   -0.542235
    52  N   -0.589428
    53  H    0.389359
    54  C   -0.233927
    55  H    0.203021
    56  H    0.204960
    57  C    0.585974
    58  O   -0.520247
    59  N   -0.583786
    60  H    0.394081
    61  C   -0.261015
    62  H    0.181705
    63  H    0.198547
    64  C    0.642983
    65  O   -0.602883
    66  N   -0.569624
    67  H    0.399099
    68  C   -0.244691
    69  H    0.192101
    70  H    0.206802
    71  C    0.586561
    72  O   -0.481238
    73  N   -0.564382
    74  H    0.349058
    75  C   -0.251517
    76  H    0.234661
    77  H    0.181448
    78  C    0.609030
    79  O   -0.551575
    80  N   -0.574886
    81  H    0.352705
    82  C   -0.264654
    83  H    0.200363
    84  H    0.234522
    85  C    0.579216
    86  O   -0.516751
    87  N   -0.593680
    88  H    0.389481
    89  C   -0.240891
    90  H    0.218488
    91  H    0.166298
    92  C    0.616206
    93  O   -0.549453
    94  N   -0.582119
    95  H    0.383709
    96  C   -0.274504
    97  H    0.254264
    98  H    0.197499
    99  C    0.585356
   100  O   -0.448500
   101  O   -0.555627
   102  H    0.424913
 Sum of Mulliken charges =   1.00000

 Dipole moment (field-independent basis, Debye):
    X=             16.8533    Y=              0.0404    Z=            -16.4369  Tot=             23.5416
 Quadrupole moment (field-independent basis, Debye-Ang):
   XX=           -202.8291   YY=           -294.5650   ZZ=           -236.8096
   XY=              1.1730   XZ=            -65.0714   YZ=            -10.3931

 Normal termination of Gaussian 16 at Thu Aug 11 11:21:28 2022.
