 Gaussian 16, Revision C.01,
 Gaussian 16:  ES64L-G16RevC.01  3-Jul-2019

 ----------------------------------------------------------------------
 # B3LYP/6-31G* empiricaldispersion=gd3 guess=read geom=check nosymm in
 tegral(ultrafinegrid)
 ----------------------------------------------------------------------

 ------------------------------------------------------
 Candidate Structure: Conf:584 Charge calc in gas phase
 ------------------------------------------------------
 Structure from the checkpoint file:  "conf-584.chk"
 Charge =  1 Multiplicity = 1

                          Input orientation:
 ---------------------------------------------------------------------
 Center     Atomic      Atomic             Coordinates (Angstroms)
 Number     Number       Type             X           Y           Z
 ---------------------------------------------------------------------
      1          7           0      -10.230908   14.574819   -0.746764
      2          1           0      -11.108104   14.638767   -1.270191
      3          1           0       -9.758746   15.481597   -0.793473
      4          1           0      -10.430874   14.312008    0.278995
      5          6           0       -9.363063   13.417801   -1.161502
      6          1           0       -9.824458   12.887337   -1.996193
      7          1           0       -8.380290   13.782311   -1.465384
      8          6           0       -9.291601   12.544395    0.121496
      9          8           0       -9.902812   12.965296    1.116847
     10          7           0       -8.590404   11.429850    0.043361
     11          1           0       -8.107471   11.116017   -0.804866
     12          6           0       -8.425997   10.484168    1.137845
     13          1           0       -9.398210   10.207819    1.557590
     14          1           0       -7.809638   10.919251    1.932232
     15          6           0       -7.686588    9.278222    0.534673
     16          8           0       -7.249186    9.351761   -0.616181
     17          7           0       -7.579366    8.209327    1.341779
     18          1           0       -7.778932    8.340115    2.330085
     19          6           0       -6.612444    7.154274    1.085883
     20          1           0       -7.117128    6.204133    0.874732
     21          1           0       -6.003388    7.422547    0.217982
     22          6           0       -5.705802    7.011520    2.316883
     23          8           0       -5.903535    7.681135    3.344791
     24          7           0       -4.710552    6.133736    2.175925
     25          1           0       -4.524729    5.724744    1.264369
     26          6           0       -3.600060    6.061564    3.109049
     27          1           0       -3.294058    7.070121    3.405907
     28          1           0       -3.886418    5.512790    4.015537
     29          6           0       -2.472006    5.308360    2.403514
     30          8           0       -2.706245    4.484941    1.518876
     31          7           0       -1.219123    5.639601    2.800472
     32          1           0       -1.077587    6.227811    3.625050
     33          6           0       -0.047181    5.037408    2.171401
     34          1           0       -0.239465    4.934339    1.099573
     35          1           0        0.795671    5.711265    2.309105
     36          6           0        0.328442    3.669814    2.744188
     37          8           0        1.304629    3.497202    3.488479
     38          7           0       -0.501706    2.678185    2.362623
     39          1           0       -1.268578    2.927005    1.741101
     40          6           0       -0.242008    1.274130    2.643235
     41          1           0        0.530099    1.224744    3.413577
     42          1           0       -1.151298    0.782318    2.995116
     43          6           0        0.187163    0.582225    1.344194
     44          8           0       -0.618528   -0.069106    0.676401
     45          7           0        1.472522    0.796035    0.957427
     46          1           0        1.972025    1.577798    1.369656
     47          6           0        1.943151    0.334881   -0.345584
     48          1           0        3.028226    0.230622   -0.322032
     49          1           0        1.488388   -0.641071   -0.537859
     50          6           0        1.604001    1.311076   -1.480848
     51          8           0        2.479772    1.802561   -2.195062
     52          7           0        0.283914    1.603873   -1.610011
     53          1           0       -0.373609    1.141566   -0.989185
     54          6           0       -0.176332    2.701621   -2.452599
     55          1           0       -1.262113    2.650329   -2.534550
     56          1           0        0.271577    2.609731   -3.447341
     57          6           0        0.195671    4.042688   -1.798923
     58          8           0       -0.599271    4.668259   -1.099524
     59          7           0        1.479431    4.437367   -2.045355
     60          1           0        2.081835    3.693804   -2.402426
     61          6           0        2.115271    5.406442   -1.187899
     62          1           0        2.933204    5.899375   -1.723998
     63          1           0        1.381475    6.171561   -0.912833
     64          6           0        2.627296    4.758537    0.112057
     65          8           0        2.200702    3.673253    0.500606
     66          7           0        3.544464    5.494817    0.790630
     67          1           0        3.782636    6.422633    0.460530
     68          6           0        3.945435    5.186974    2.157064
     69          1           0        3.515958    4.221180    2.424079
     70          1           0        5.037208    5.133634    2.228170
     71          6           0        3.456848    6.321664    3.056891
     72          8           0        3.796785    7.488364    2.820060
     73          7           0        2.619614    5.966959    4.054032
     74          1           0        2.217767    5.021453    4.041864
     75          6           0        2.030192    6.963983    4.938788
     76          1           0        2.811297    7.669933    5.238522
     77          1           0        1.639859    6.459672    5.823023
     78          6           0        0.856495    7.730626    4.299920
     79          8           0       -0.307968    7.555630    4.679510
     80          7           0        1.197585    8.579766    3.302152
     81          1           0        2.183120    8.607765    3.038924
     82          6           0        0.264976    9.528015    2.715931
     83          1           0       -0.661686    9.490476    3.299047
     84          1           0        0.679485   10.537547    2.773804
     85          6           0       -0.114549    9.308595    1.248524
     86          8           0       -0.091613   10.254999    0.457965
     87          7           0       -0.525482    8.059416    0.898549
     88          1           0       -0.776978    7.425634    1.650760
     89          6           0       -1.192759    7.814977   -0.386768
     90          1           0       -1.190301    6.745232   -0.595581
     91          1           0       -0.633801    8.343566   -1.163536
     92          6           0       -2.639721    8.316607   -0.310806
     93          8           0       -3.595725    7.563054   -0.138818
     94          7           0       -2.769547    9.679345   -0.357185
     95          1           0       -1.896670   10.199704   -0.276250
     96          6           0       -3.949650   10.262249    0.236799
     97          1           0       -4.853273    9.934831   -0.284582
     98          1           0       -3.893989   11.353301    0.164546
     99          6           0       -4.077299    9.854895    1.708237
    100          8           0       -3.193203    9.349519    2.364912
    101          8           0       -5.320023   10.084137    2.182365
    102          1           0       -5.432587    9.514190    2.981151
 ---------------------------------------------------------------------

 SCF Done:  E(RB3LYP) =  -2989.15986443     A.U. after    1 cycles

 Alpha  occ. eigenvalues --  -19.28597 -19.26674 -19.22843 -19.21767 -19.20201
 Alpha  occ. eigenvalues --  -19.19571 -19.19463 -19.19186 -19.19133 -19.19061
 Alpha  occ. eigenvalues --  -19.18920 -19.18837 -19.17776 -19.17709 -19.17187
 Alpha  occ. eigenvalues --  -14.62086 -14.50960 -14.45947 -14.43696 -14.43638
 Alpha  occ. eigenvalues --  -14.43531 -14.43378 -14.43148 -14.43003 -14.42808
 Alpha  occ. eigenvalues --  -14.41972 -14.41857 -14.41325 -14.41120 -10.45391
 Alpha  occ. eigenvalues --  -10.42567 -10.39923 -10.39689 -10.37140 -10.36640
 Alpha  occ. eigenvalues --  -10.36510 -10.36150 -10.36049 -10.35934 -10.35896
 Alpha  occ. eigenvalues --  -10.35335 -10.34983 -10.34728 -10.34560 -10.34155
 Alpha  occ. eigenvalues --  -10.30920 -10.30611 -10.29933 -10.29894 -10.29515
 Alpha  occ. eigenvalues --  -10.29487 -10.29378 -10.29126 -10.28689 -10.28477
 Alpha  occ. eigenvalues --  -10.28349 -10.27914  -1.21079  -1.17825  -1.15688
 Alpha  occ. eigenvalues --   -1.14684  -1.12006  -1.11566  -1.11278  -1.11130
 Alpha  occ. eigenvalues --   -1.10878  -1.10427  -1.10414  -1.10054  -1.09663
 Alpha  occ. eigenvalues --   -1.09256  -1.08912  -1.08469  -1.07463  -1.02526
 Alpha  occ. eigenvalues --   -1.00337  -1.00092  -0.99981  -0.99715  -0.99348
 Alpha  occ. eigenvalues --   -0.99197  -0.98946  -0.98263  -0.98234  -0.98010
 Alpha  occ. eigenvalues --   -0.96942  -0.91961  -0.86383  -0.84089  -0.83988
 Alpha  occ. eigenvalues --   -0.82928  -0.82345  -0.81632  -0.80527  -0.79547
 Alpha  occ. eigenvalues --   -0.78344  -0.77157  -0.76130  -0.76022  -0.75838
 Alpha  occ. eigenvalues --   -0.75395  -0.74002  -0.73334  -0.69388  -0.69057
 Alpha  occ. eigenvalues --   -0.67667  -0.67419  -0.66751  -0.66128  -0.65985
 Alpha  occ. eigenvalues --   -0.65475  -0.65342  -0.64957  -0.64728  -0.64294
 Alpha  occ. eigenvalues --   -0.63977  -0.63889  -0.62804  -0.62665  -0.62460
 Alpha  occ. eigenvalues --   -0.61269  -0.61044  -0.60535  -0.59811  -0.59614
 Alpha  occ. eigenvalues --   -0.59278  -0.59065  -0.58634  -0.58197  -0.57789
 Alpha  occ. eigenvalues --   -0.57306  -0.56970  -0.56413  -0.56328  -0.56030
 Alpha  occ. eigenvalues --   -0.55603  -0.55290  -0.55156  -0.54797  -0.54420
 Alpha  occ. eigenvalues --   -0.53973  -0.53882  -0.53686  -0.53404  -0.53076
 Alpha  occ. eigenvalues --   -0.52952  -0.52780  -0.52406  -0.52189  -0.51826
 Alpha  occ. eigenvalues --   -0.51763  -0.51421  -0.50915  -0.50077  -0.49941
 Alpha  occ. eigenvalues --   -0.49764  -0.49320  -0.49073  -0.48793  -0.48446
 Alpha  occ. eigenvalues --   -0.48321  -0.48007  -0.47880  -0.47696  -0.47289
 Alpha  occ. eigenvalues --   -0.47195  -0.46996  -0.46877  -0.46634  -0.46558
 Alpha  occ. eigenvalues --   -0.46390  -0.45763  -0.45609  -0.45312  -0.45133
 Alpha  occ. eigenvalues --   -0.44909  -0.44811  -0.44425  -0.44262  -0.43794
 Alpha  occ. eigenvalues --   -0.43706  -0.43690  -0.43392  -0.43227  -0.43118
 Alpha  occ. eigenvalues --   -0.42998  -0.42543  -0.41906  -0.40800  -0.39272
 Alpha  occ. eigenvalues --   -0.37259  -0.36390  -0.35965  -0.35698  -0.35179
 Alpha  occ. eigenvalues --   -0.34803  -0.34721  -0.34555  -0.34396  -0.34159
 Alpha  occ. eigenvalues --   -0.33836  -0.33760  -0.33298  -0.33062  -0.32904
 Alpha  occ. eigenvalues --   -0.32642  -0.32199  -0.31887  -0.31614  -0.31490
 Alpha  occ. eigenvalues --   -0.31153  -0.30666  -0.30461  -0.29631  -0.29354
 Alpha virt. eigenvalues --   -0.13614  -0.13310  -0.08335  -0.07668  -0.07474
 Alpha virt. eigenvalues --   -0.07022  -0.06453  -0.06399  -0.06285  -0.06021
 Alpha virt. eigenvalues --   -0.05532  -0.05106  -0.04732  -0.04442  -0.04102

 Mulliken charges:
               1
     1  N   -0.750981
     2  H    0.423841
     3  H    0.423486
     4  H    0.441052
     5  C   -0.277012
     6  H    0.249983
     7  H    0.248676
     8  C    0.640565
     9  O   -0.524283
    10  N   -0.604888
    11  H    0.378919
    12  C   -0.216479
    13  H    0.211065
    14  H    0.227115
    15  C    0.623640
    16  O   -0.530659
    17  N   -0.582320
    18  H    0.350494
    19  C   -0.257851
    20  H    0.198899
    21  H    0.248952
    22  C    0.627092
    23  O   -0.579593
    24  N   -0.583783
    25  H    0.379893
    26  C   -0.202535
    27  H    0.218493
    28  H    0.200508
    29  C    0.594966
    30  O   -0.525118
    31  N   -0.664337
    32  H    0.404710
    33  C   -0.307500
    34  H    0.252783
    35  H    0.165155
    36  C    0.651355
    37  O   -0.563155
    38  N   -0.586428
    39  H    0.383045
    40  C   -0.228544
    41  H    0.203570
    42  H    0.191221
    43  C    0.579609
    44  O   -0.523127
    45  N   -0.564144
    46  H    0.371327
    47  C   -0.242948
    48  H    0.188600
    49  H    0.206203
    50  C    0.621485
    51  O   -0.540164
    52  N   -0.589542
    53  H    0.374325
    54  C   -0.231328
    55  H    0.185253
    56  H    0.188437
    57  C    0.586699
    58  O   -0.510932
    59  N   -0.559387
    60  H    0.379199
    61  C   -0.267495
    62  H    0.178752
    63  H    0.209535
    64  C    0.624235
    65  O   -0.536536
    66  N   -0.582989
    67  H    0.348670
    68  C   -0.232421
    69  H    0.215505
    70  H    0.194156
    71  C    0.588525
    72  O   -0.549181
    73  N   -0.606240
    74  H    0.402368
    75  C   -0.230597
    76  H    0.199065
    77  H    0.195418
    78  C    0.572032
    79  O   -0.541721
    80  N   -0.581984
    81  H    0.384600
    82  C   -0.253889
    83  H    0.228796
    84  H    0.191030
    85  C    0.606414
    86  O   -0.534842
    87  N   -0.600427
    88  H    0.380888
    89  C   -0.290895
    90  H    0.245020
    91  H    0.185995
    92  C    0.597823
    93  O   -0.531522
    94  N   -0.570536
    95  H    0.376632
    96  C   -0.255283
    97  H    0.219395
    98  H    0.178636
    99  C    0.607294
   100  O   -0.465145
   101  O   -0.615787
   102  H    0.443125
 Sum of Mulliken charges =   1.00000

 Dipole moment (field-independent basis, Debye):
    X=            -35.4569    Y=             59.1586    Z=             -0.8204  Tot=             68.9754
 Quadrupole moment (field-independent basis, Debye-Ang):
   XX=             69.4621   YY=            471.7428   ZZ=           -310.8306
   XY=           -526.3718   XZ=             47.6185   YZ=            -46.8512

 Normal termination of Gaussian 16 at Thu Aug 11 11:21:21 2022.
