 Gaussian 16, Revision C.01,
 Gaussian 16:  ES64L-G16RevC.01  3-Jul-2019

 ----------------------------------------------------------------------
 # B3LYP/6-31G* empiricaldispersion=gd3bj guess=read geom=check nosymm
 integral(ultrafinegrid)
 ----------------------------------------------------------------------

 ------------------------------------------------------
 Candidate Structure: Conf:876 Charge calc in gas phase
 ------------------------------------------------------
 Structure from the checkpoint file:  "conf-876.chk"
 Charge =  1 Multiplicity = 1

                          Input orientation:
 ---------------------------------------------------------------------
 Center     Atomic      Atomic             Coordinates (Angstroms)
 Number     Number       Type             X           Y           Z
 ---------------------------------------------------------------------
      1          7           0       -1.667642   -1.960187    7.272921
      2          1           0       -2.273403   -2.535937    7.862733
      3          1           0       -1.447614   -2.488310    6.367911
      4          1           0       -0.812482   -1.741551    7.790536
      5          6           0       -2.359439   -0.726301    6.727344
      6          1           0       -3.294117   -0.590182    7.275788
      7          6           0       -2.616741   -1.131274    5.253632
      8          6           0       -1.448933    0.513341    6.891914
      9          1           0       -1.178178    0.535639    7.958666
     10          8           0       -2.017750   -2.135415    4.827655
     11          6           0       -0.168827    0.404736    6.051821
     12          1           0       -0.394910    0.450123    4.982504
     13          1           0        0.494008    1.242320    6.283238
     14          1           0        0.396992   -0.516304    6.239711
     15          6           0       -2.213518    1.810443    6.592738
     16          1           0       -2.422943    1.934208    5.527310
     17          1           0       -3.155732    1.863927    7.150380
     18          1           0       -1.602416    2.665060    6.895226
     19          7           0       -3.433553   -0.366028    4.552297
     20          1           0       -3.871602    0.471428    4.935672
     21          6           0       -3.670106   -0.521386    3.117746
     22          1           0       -2.734705   -0.828013    2.642703
     23          6           0       -4.066002    0.888063    2.655657
     24          6           0       -4.765304   -1.590733    2.837182
     25          1           0       -4.410683   -2.490588    3.358749
     26          8           0       -4.526119    1.699467    3.465219
     27          6           0       -4.849093   -1.928813    1.337309
     28          1           0       -3.830751   -2.074250    0.957253
     29          1           0       -5.268297   -1.077354    0.788637
     30          6           0       -6.120743   -1.181497    3.423782
     31          1           0       -6.533351   -0.312972    2.899308
     32          1           0       -6.041645   -0.923413    4.485221
     33          1           0       -6.840719   -1.999447    3.338111
     34          6           0       -5.674378   -3.184898    1.043626
     35          1           0       -5.644630   -3.423409   -0.025014
     36          1           0       -5.287216   -4.053452    1.589925
     37          1           0       -6.726364   -3.057282    1.317326
     38          7           0       -3.895540    1.123885    1.345375
     39          1           0       -3.408557    0.423998    0.792922
     40          6           0       -4.215508    2.393663    0.732348
     41          1           0       -4.896619    2.907364    1.417530
     42          6           0       -4.928245    2.100784   -0.606685
     43          6           0       -2.938858    3.264111    0.528633
     44          1           0       -3.248971    4.296447    0.323096
     45          1           0       -2.405900    2.913410   -0.363195
     46          8           0       -5.375723    0.985166   -0.860914
     47          6           0       -2.000398    3.259743    1.711295
     48          6           0       -2.225673    4.096837    2.810143
     49          1           0       -3.097917    4.745194    2.822600
     50          6           0       -0.880249    2.422584    1.718357
     51          1           0       -0.682071    1.757081    0.886273
     52          6           0       -1.333838    4.116583    3.881267
     53          1           0       -1.511702    4.786815    4.717498
     54          6           0        0.016097    2.438990    2.787329
     55          1           0        0.895996    1.803331    2.748357
     56          6           0       -0.205309    3.292947    3.868591
     57          1           0        0.504676    3.330749    4.690163
     58          7           0       -4.958547    3.124893   -1.512773
     59          1           0       -4.417314    3.948963   -1.284230
     60          6           0       -5.005151    2.843868   -2.966016
     61          1           0       -5.832747    2.155330   -3.140987
     62          6           0       -3.650751    2.150494   -3.206425
     63          6           0       -5.174487    4.128577   -3.766885
     64          1           0       -5.212722    3.850949   -4.828643
     65          1           0       -4.266966    4.732894   -3.643235
     66          8           0       -2.606065    2.804651   -3.253961
     67          6           0       -6.420865    4.956797   -3.410126
     68          1           0       -6.339842    5.257662   -2.355766
     69          6           0       -6.454219    6.229743   -4.264496
     70          1           0       -6.554309    5.982720   -5.328699
     71          1           0       -5.538128    6.819294   -4.142701
     72          1           0       -7.303165    6.864222   -3.989056
     73          6           0       -7.716646    4.152296   -3.569912
     74          1           0       -7.815334    3.768862   -4.593563
     75          1           0       -8.589148    4.782155   -3.367202
     76          1           0       -7.761131    3.301200   -2.881613
     77          7           0       -3.678237    0.791345   -3.130010
     78          1           0       -4.590470    0.414466   -2.894903
     79          6           0       -2.600837    0.123302   -2.400265
     80          1           0       -2.543815    0.591147   -1.413119
     81          6           0       -1.230259    0.277961   -3.065263
     82          6           0       -2.951238   -1.356680   -2.191964
     83          1           0       -3.171791   -1.805933   -3.165012
     84          1           0       -3.858831   -1.400143   -1.580461
     85          8           0       -0.968407   -0.115895   -4.189907
     86          6           0       -1.821873   -2.168342   -1.534666
     87          1           0       -2.215970   -3.133263   -1.191702
     88          1           0       -1.033667   -2.391448   -2.257865
     89          6           0       -1.186756   -1.471961   -0.350777
     90          8           0       -1.766126   -0.690011    0.395130
     91          8           0        0.104545   -1.766324   -0.211957
     92          7           0       -0.319560    0.829100   -2.210855
     93          1           0       -0.601286    1.094888   -1.276768
     94          6           0        1.096083    0.914552   -2.453230
     95          1           0        1.338872    0.235565   -3.276132
     96          6           0        1.830804    0.500297   -1.167438
     97          6           0        1.530765    2.365645   -2.810158
     98          1           0        0.997627    3.053618   -2.145903
     99          1           0        2.601386    2.487701   -2.631345
    100          8           0        1.309509    0.672375   -0.050128
    101          6           0        1.275336    2.708039   -4.270981
    102          7           0        0.013800    3.002979   -4.613427
    103          1           0       -0.185813    3.101619   -5.600609
    104          1           0       -0.782530    2.876931   -3.990327
    105          8           0        2.206500    2.704542   -5.097210
    106          7           0        3.054599    0.020757   -1.366546
    107          1           0        3.424189   -0.092148   -2.309950
    108          6           0        4.111748   -0.053375   -0.369330
    109          1           0        3.970704    0.767896    0.341223
    110          6           0        5.407549    0.163836   -1.175466
    111          6           0        4.136286   -1.393378    0.406673
    112          1           0        4.865665   -1.297193    1.218232
    113          1           0        3.150490   -1.516453    0.870383
    114          8           0        5.345267    0.139097   -2.430809
    115          6           0        4.488081   -2.568186   -0.469887
    116          6           0        3.513261   -3.210510   -1.244649
    117          1           0        2.472899   -2.903951   -1.161644
    118          6           0        5.819887   -2.989757   -0.574775
    119          1           0        6.592678   -2.506527    0.021475
    120          6           0        3.852215   -4.243112   -2.113294
    121          1           0        3.102276   -4.749608   -2.712393
    122          6           0        6.168516   -4.021883   -1.442758
    123          1           0        7.206924   -4.339522   -1.513338
    124          8           0        5.469225   -5.664888   -3.085717
    125          1           0        6.420969   -5.849192   -3.052140
    126          6           0        5.187311   -4.648300   -2.216986
    127          7           0        6.513616    0.349613   -0.485283
    128          1           0        6.614983   -0.001315    0.496898
    129          6           0        7.854486    0.233733   -1.058330
    130          1           0        7.796104   -0.363203   -1.973731
    131          6           0        8.683347   -0.577176    0.020950
    132          6           0        8.499532    1.594973   -1.332729
    133          1           0        8.623176    2.117383   -0.376272
    134          1           0        9.509538    1.396509   -1.706768
    135          8           0        9.870222   -0.769175   -0.256303
    136          6           0        7.722150    2.521269   -2.280358
    137          1           0        6.698370    2.652973   -1.907067
    138          1           0        8.187110    3.516841   -2.272537
    139          6           0        7.661336    2.025806   -3.728879
    140          1           0        8.666765    1.920424   -4.146796
    141          1           0        7.181443    1.048152   -3.790724
    142          7           0        6.930609    2.954415   -4.613638
    143          1           0        7.405328    3.818415   -4.841095
    144          7           0        4.814440    2.023220   -4.286294
    145          1           0        3.823527    2.055763   -4.550996
    146          1           0        5.132509    1.336704   -3.586922
    147          7           0        5.031395    3.949985   -5.526143
    148          1           0        4.036453    3.859548   -5.709798
    149          1           0        5.579042    4.403958   -6.243147
    150          6           0        5.601352    2.953504   -4.797061
    151          8           0        7.995234   -0.915486    1.038383
    152          1           0        0.520036   -1.078634    0.360185
 ---------------------------------------------------------------------

 SCF Done:  E(RB3LYP) =  -3586.97786063     A.U. after    1 cycles

 Alpha  occ. eigenvalues --  -19.28096 -19.26317 -19.23920 -19.22081 -19.22016
 Alpha  occ. eigenvalues --  -19.21398 -19.21099 -19.21092 -19.20827 -19.19586
 Alpha  occ. eigenvalues --  -19.18422 -19.08516 -19.07072 -14.59350 -14.48792
 Alpha  occ. eigenvalues --  -14.46099 -14.45993 -14.45452 -14.45104 -14.44910
 Alpha  occ. eigenvalues --  -14.44553 -14.44002 -14.43382 -14.43188 -14.39245
 Alpha  occ. eigenvalues --  -10.42910 -10.41888 -10.41549 -10.40049 -10.38943
 Alpha  occ. eigenvalues --  -10.38300 -10.38285 -10.38118 -10.37843 -10.37059
 Alpha  occ. eigenvalues --  -10.34522 -10.34072 -10.33176 -10.33026 -10.32895
 Alpha  occ. eigenvalues --  -10.32476 -10.32212 -10.30099 -10.29837 -10.29264
 Alpha  occ. eigenvalues --  -10.29237 -10.29045 -10.29029 -10.28821 -10.28604
 Alpha  occ. eigenvalues --  -10.28286 -10.28191 -10.27773 -10.26941 -10.26877
 Alpha  occ. eigenvalues --  -10.26820 -10.26654 -10.26545 -10.26401 -10.26231
 Alpha  occ. eigenvalues --  -10.26065 -10.25692 -10.25486 -10.24741 -10.24698
 Alpha  occ. eigenvalues --  -10.24115 -10.23962 -10.23788 -10.23385 -10.22657
 Alpha  occ. eigenvalues --  -10.22501 -10.21949 -10.21884 -10.21713 -10.21610
 Alpha  occ. eigenvalues --   -1.19833  -1.18840  -1.14456  -1.13628  -1.13241
 Alpha  occ. eigenvalues --   -1.12935  -1.12742  -1.11980  -1.11543  -1.10719
 Alpha  occ. eigenvalues --   -1.10265  -1.09568  -1.09144  -1.05619  -1.02569
 Alpha  occ. eigenvalues --   -1.02377  -1.01992  -1.01551  -1.01506  -1.00884
 Alpha  occ. eigenvalues --   -0.99933  -0.98585  -0.97636  -0.96474  -0.94861
 Alpha  occ. eigenvalues --   -0.93621  -0.92546  -0.90617  -0.90059  -0.89110
 Alpha  occ. eigenvalues --   -0.88981  -0.87507  -0.87434  -0.85979  -0.84961
 Alpha  occ. eigenvalues --   -0.84099  -0.83786  -0.83023  -0.82212  -0.81766
 Alpha  occ. eigenvalues --   -0.80907  -0.80725  -0.78971  -0.78913  -0.78215
 Alpha  occ. eigenvalues --   -0.77933  -0.76644  -0.75411  -0.75006  -0.74801
 Alpha  occ. eigenvalues --   -0.74287  -0.73749  -0.73321  -0.72987  -0.72663
 Alpha  occ. eigenvalues --   -0.71283  -0.70621  -0.70270  -0.69255  -0.68843
 Alpha  occ. eigenvalues --   -0.68640  -0.68507  -0.68056  -0.67588  -0.67359
 Alpha  occ. eigenvalues --   -0.67237  -0.66927  -0.66689  -0.66031  -0.65631
 Alpha  occ. eigenvalues --   -0.65569  -0.65058  -0.64690  -0.63983  -0.63416
 Alpha  occ. eigenvalues --   -0.62717  -0.62165  -0.62056  -0.61842  -0.61359
 Alpha  occ. eigenvalues --   -0.61129  -0.60786  -0.60074  -0.59479  -0.59376
 Alpha  occ. eigenvalues --   -0.59117  -0.58979  -0.58874  -0.58256  -0.57872
 Alpha  occ. eigenvalues --   -0.57701  -0.57529  -0.57110  -0.57005  -0.56618
 Alpha  occ. eigenvalues --   -0.56313  -0.56097  -0.55857  -0.55618  -0.55593
 Alpha  occ. eigenvalues --   -0.54787  -0.54344  -0.54191  -0.53989  -0.53890
 Alpha  occ. eigenvalues --   -0.53642  -0.53332  -0.53109  -0.52705  -0.52533
 Alpha  occ. eigenvalues --   -0.52371  -0.52152  -0.52064  -0.51835  -0.51750
 Alpha  occ. eigenvalues --   -0.51500  -0.51361  -0.51190  -0.51003  -0.50519
 Alpha  occ. eigenvalues --   -0.50350  -0.49986  -0.49817  -0.49655  -0.49498
 Alpha  occ. eigenvalues --   -0.49270  -0.49254  -0.49087  -0.48821  -0.48670
 Alpha  occ. eigenvalues --   -0.48631  -0.48078  -0.47920  -0.47747  -0.47530
 Alpha  occ. eigenvalues --   -0.47417  -0.47264  -0.47120  -0.47009  -0.46894
 Alpha  occ. eigenvalues --   -0.46742  -0.46617  -0.46571  -0.46423  -0.46197
 Alpha  occ. eigenvalues --   -0.46081  -0.45730  -0.45468  -0.45237  -0.45176
 Alpha  occ. eigenvalues --   -0.45005  -0.44808  -0.44563  -0.44491  -0.43951
 Alpha  occ. eigenvalues --   -0.43916  -0.43857  -0.43680  -0.43551  -0.43468
 Alpha  occ. eigenvalues --   -0.43410  -0.42772  -0.42637  -0.42362  -0.42200
 Alpha  occ. eigenvalues --   -0.41864  -0.41384  -0.41286  -0.40914  -0.40275
 Alpha  occ. eigenvalues --   -0.40035  -0.39848  -0.39785  -0.39776  -0.39604
 Alpha  occ. eigenvalues --   -0.39010  -0.38726  -0.38541  -0.38010  -0.37646
 Alpha  occ. eigenvalues --   -0.37508  -0.37440  -0.36881  -0.36602  -0.36428
 Alpha  occ. eigenvalues --   -0.36280  -0.35915  -0.35750  -0.35507  -0.35354
 Alpha  occ. eigenvalues --   -0.35325  -0.34956  -0.34874  -0.34256  -0.34095
 Alpha  occ. eigenvalues --   -0.33726  -0.33364  -0.32822  -0.32665  -0.32589
 Alpha  occ. eigenvalues --   -0.32235  -0.30831  -0.28398  -0.25167  -0.23504
 Alpha  occ. eigenvalues --   -0.23332  -0.21189
 Alpha virt. eigenvalues --   -0.11775  -0.10758  -0.09827  -0.09522  -0.08695
 Alpha virt. eigenvalues --   -0.08211  -0.08031  -0.07727  -0.07000  -0.06368
 Alpha virt. eigenvalues --   -0.06149  -0.05952  -0.05800  -0.04405  -0.04307

 Mulliken charges:
               1
     1  N   -0.762975
     2  H    0.414671
     3  H    0.436170
     4  H    0.410962
     5  C   -0.106487
     6  H    0.208253
     7  C    0.657933
     8  C   -0.110652
     9  H    0.155991
    10  O   -0.554900
    11  C   -0.474706
    12  H    0.195651
    13  H    0.187650
    14  H    0.137889
    15  C   -0.482654
    16  H    0.201575
    17  H    0.159547
    18  H    0.182075
    19  N   -0.604321
    20  H    0.379389
    21  C   -0.091110
    22  H    0.208121
    23  C    0.641068
    24  C   -0.069125
    25  H    0.145312
    26  O   -0.562112
    27  C   -0.302369
    28  H    0.135831
    29  H    0.178590
    30  C   -0.464750
    31  H    0.169829
    32  H    0.132820
    33  H    0.166017
    34  C   -0.455042
    35  H    0.151084
    36  H    0.147013
    37  H    0.159227
    38  N   -0.619824
    39  H    0.407526
    40  C   -0.061418
    41  H    0.213866
    42  C    0.612226
    43  C   -0.418185
    44  H    0.159603
    45  H    0.163511
    46  O   -0.522125
    47  C    0.180941
    48  C   -0.158352
    49  H    0.135192
    50  C   -0.199594
    51  H    0.163527
    52  C   -0.140042
    53  H    0.139117
    54  C   -0.154546
    55  H    0.148547
    56  C   -0.139559
    57  H    0.131511
    58  N   -0.589302
    59  H    0.347614
    60  C   -0.065146
    61  H    0.182634
    62  C    0.603941
    63  C   -0.289575
    64  H    0.157406
    65  H    0.156463
    66  O   -0.550282
    67  C   -0.072945
    68  H    0.125976
    69  C   -0.444469
    70  H    0.149694
    71  H    0.143681
    72  H    0.155684
    73  C   -0.456106
    74  H    0.147419
    75  H    0.158452
    76  H    0.150789
    77  N   -0.570946
    78  H    0.360299
    79  C   -0.059642
    80  H    0.145320
    81  C    0.633410
    82  C   -0.310254
    83  H    0.193041
    84  H    0.182566
    85  O   -0.515967
    86  C   -0.383802
    87  H    0.202051
    88  H    0.210101
    89  C    0.607058
    90  O   -0.504486
    91  O   -0.561448
    92  N   -0.631057
    93  H    0.376451
    94  C   -0.078717
    95  H    0.206728
    96  C    0.626167
    97  C   -0.366839
    98  H    0.181846
    99  H    0.178296
   100  O   -0.593710
   101  C    0.608486
   102  N   -0.746295
   103  H    0.351591
   104  H    0.417823
   105  O   -0.559990
   106  N   -0.578718
   107  H    0.365335
   108  C   -0.053586
   109  H    0.175514
   110  C    0.624560
   111  C   -0.369229
   112  H    0.186228
   113  H    0.140510
   114  O   -0.611773
   115  C    0.140042
   116  C   -0.201126
   117  H    0.121692
   118  C   -0.210660
   119  H    0.200159
   120  C   -0.163067
   121  H    0.132065
   122  C   -0.206833
   123  H    0.139917
   124  O   -0.643090
   125  H    0.411562
   126  C    0.353749
   127  N   -0.587217
   128  H    0.368793
   129  C   -0.097541
   130  H    0.159252
   131  C    0.597352
   132  C   -0.258192
   133  H    0.147747
   134  H    0.172581
   135  O   -0.561329
   136  C   -0.262883
   137  H    0.136293
   138  H    0.131929
   139  C   -0.178793
   140  H    0.177682
   141  H    0.206545
   142  N   -0.596087
   143  H    0.346416
   144  N   -0.843278
   145  H    0.401123
   146  H    0.446135
   147  N   -0.783053
   148  H    0.390253
   149  H    0.355349
   150  C    0.777421
   151  O   -0.618923
   152  H    0.445778
 Sum of Mulliken charges =   1.00000

 Dipole moment (field-independent basis, Debye):
    X=            -18.6422    Y=              9.5886    Z=             11.6284  Tot=             23.9727
 Quadrupole moment (field-independent basis, Debye-Ang):
   XX=           -483.7636   YY=           -375.1607   ZZ=           -190.0591
   XY=             54.2395   XZ=           -101.2621   YZ=            -83.2434

 Normal termination of Gaussian 16 at Sat Aug 13 18:51:41 2022.
