 Gaussian 16, Revision C.01,
 Gaussian 16:  ES64L-G16RevC.01  3-Jul-2019

 ----------------------------------------------------------------------
 # B3LYP/6-31G* empiricaldispersion=gd3bj guess=read geom=check nosymm
 integral(ultrafinegrid)
 ----------------------------------------------------------------------

 ------------------------------------------------------
 Candidate Structure: Conf:234 Charge calc in gas phase
 ------------------------------------------------------
 Structure from the checkpoint file:  "conf-234.chk"
 Charge =  1 Multiplicity = 1

                          Input orientation:
 ---------------------------------------------------------------------
 Center     Atomic      Atomic             Coordinates (Angstroms)
 Number     Number       Type             X           Y           Z
 ---------------------------------------------------------------------
      1          7           0      -10.109636   -1.309643    5.395239
      2          1           0      -10.864264   -1.755921    4.869585
      3          1           0       -9.404948   -2.044435    5.726644
      4          1           0      -10.514635   -0.817283    6.195578
      5          6           0       -9.226118   -0.418544    4.547070
      6          1           0       -9.635104   -0.415142    3.533836
      7          6           0       -7.867421   -1.165094    4.583953
      8          6           0       -9.153458    1.018387    5.102279
      9          1           0       -8.466294    1.547445    4.430178
     10          8           0       -7.781258   -2.167539    5.311695
     11          6           0      -10.517632    1.715927    5.023784
     12          1           0      -11.255353    1.264435    5.701167
     13          1           0      -10.420411    2.763374    5.322020
     14          1           0      -10.928918    1.691999    4.008954
     15          6           0       -8.554340    1.067261    6.514779
     16          1           0       -9.192428    0.573512    7.260421
     17          1           0       -7.564495    0.603421    6.557405
     18          1           0       -8.451125    2.107431    6.834562
     19          7           0       -6.905383   -0.653517    3.833671
     20          1           0       -7.013134    0.254018    3.378295
     21          6           0       -5.501671   -1.067284    3.865024
     22          1           0       -5.327010   -1.606830    4.801091
     23          6           0       -4.745521    0.274376    3.836324
     24          6           0       -5.126796   -1.983997    2.660551
     25          1           0       -5.186331   -1.364003    1.755626
     26          8           0       -5.304838    1.277881    3.386179
     27          6           0       -6.138625   -3.139499    2.530187
     28          1           0       -7.150204   -2.720336    2.478778
     29          1           0       -6.104298   -3.755292    3.438813
     30          6           0       -3.688094   -2.500877    2.796926
     31          1           0       -3.542474   -3.018860    3.754712
     32          1           0       -2.957301   -1.698390    2.695906
     33          1           0       -3.465488   -3.219387    2.005355
     34          6           0       -5.922134   -4.015452    1.292438
     35          1           0       -6.740357   -4.735219    1.186620
     36          1           0       -5.890354   -3.408490    0.379843
     37          1           0       -4.991855   -4.587838    1.345836
     38          7           0       -3.487414    0.289542    4.323983
     39          1           0       -3.051452   -0.601224    4.524901
     40          6           0       -2.593349    1.389063    3.978792
     41          1           0       -3.010245    2.310079    4.394659
     42          6           0       -2.547510    1.523075    2.443240
     43          6           0       -1.204375    1.113657    4.590077
     44          1           0       -0.815579    0.178431    4.174462
     45          1           0       -1.352133    0.965300    5.667883
     46          8           0       -2.758676    0.534640    1.718033
     47          6           0       -0.206857    2.222811    4.344211
     48          6           0        0.988473    1.958055    3.668511
     49          1           0        1.181968    0.954042    3.304523
     50          6           0       -0.458022    3.526869    4.793609
     51          1           0       -1.370411    3.743960    5.346214
     52          6           0        1.921420    2.975114    3.461416
     53          1           0        2.860775    2.757817    2.963415
     54          6           0        0.457454    4.550560    4.552597
     55          1           0        0.243182    5.558858    4.894277
     56          6           0        1.651648    4.274385    3.886402
     57          1           0        2.369968    5.066350    3.699444
     58          7           0       -2.288930    2.743515    1.966249
     59          1           0       -1.937785    3.468436    2.585411
     60          6           0       -2.196157    3.032920    0.539127
     61          1           0       -2.316404    2.082570    0.019524
     62          6           0       -0.799650    3.610404    0.303265
     63          6           0       -3.286879    4.026672    0.106287
     64          1           0       -3.181543    4.191534   -0.974739
     65          1           0       -3.079936    4.988723    0.592034
     66          8           0       -0.329697    4.440305    1.079936
     67          6           0       -4.722702    3.577608    0.427795
     68          1           0       -4.792873    3.424426    1.512904
     69          6           0       -5.707589    4.685321    0.033898
     70          1           0       -5.684119    4.865193   -1.048209
     71          1           0       -5.469562    5.631167    0.534192
     72          1           0       -6.734479    4.410918    0.301777
     73          6           0       -5.088170    2.251169   -0.251992
     74          1           0       -4.973059    2.323269   -1.341476
     75          1           0       -6.134355    1.994756   -0.047226
     76          1           0       -4.470295    1.423703    0.108627
     77          7           0       -0.157540    3.149018   -0.791131
     78          1           0       -0.531233    2.386706   -1.344544
     79          6           0        1.239977    3.445308   -1.030045
     80          1           0        1.413483    4.500482   -0.807972
     81          6           0        1.536383    3.128150   -2.491128
     82          6           0        2.101804    2.549280   -0.100771
     83          1           0        1.892370    1.503023   -0.334700
     84          1           0        1.750627    2.739227    0.915050
     85          8           0        0.881711    2.272762   -3.096746
     86          6           0        3.630125    2.753116   -0.157004
     87          1           0        4.090727    2.121403    0.606636
     88          1           0        4.033254    2.458501   -1.128598
     89          6           0        4.005659    4.193302    0.073731
     90          8           0        3.997372    5.064002   -0.783060
     91          8           0        4.315998    4.463384    1.354535
     92          7           0        2.606215    3.767254   -3.011509
     93          1           0        3.150611    4.371550   -2.393034
     94          6           0        3.241733    3.295816   -4.243858
     95          1           0        2.445909    3.039289   -4.945758
     96          6           0        4.059167    2.056596   -3.853020
     97          6           0        4.103452    4.396905   -4.842753
     98          1           0        4.838302    4.746182   -4.110061
     99          1           0        4.669669    3.986037   -5.686714
    100          8           0        5.274087    2.146561   -3.581191
    101          6           0        3.216985    5.524111   -5.374390
    102          7           0        3.713859    6.780691   -5.202776
    103          1           0        3.205322    7.555956   -5.604945
    104          1           0        4.619190    6.956475   -4.795140
    105          8           0        2.147611    5.298995   -5.920404
    106          7           0        3.350557    0.930154   -3.714782
    107          1           0        2.344377    1.002558   -3.843420
    108          6           0        3.890883   -0.251114   -3.063195
    109          1           0        4.324550    0.056845   -2.105070
    110          6           0        4.983873   -0.967481   -3.874061
    111          6           0        2.778640   -1.294061   -2.791876
    112          1           0        2.150018   -1.369802   -3.686551
    113          1           0        3.276647   -2.260344   -2.667239
    114          8           0        4.958771   -1.040083   -5.106165
    115          6           0        1.952812   -1.037930   -1.553162
    116          6           0        2.501101   -1.335869   -0.293276
    117          1           0        3.509453   -1.745801   -0.235285
    118          6           0        0.632093   -0.586239   -1.618337
    119          1           0        0.188144   -0.354615   -2.582073
    120          6           0        1.744637   -1.186231    0.865322
    121          1           0        2.154329   -1.448876    1.835926
    122          6           0       -0.139455   -0.443969   -0.462386
    123          1           0       -1.179357   -0.132051   -0.523277
    124          8           0       -0.310356   -0.682366    1.940073
    125          1           0       -1.214479   -0.364743    1.733020
    126          6           0        0.414724   -0.757485    0.783102
    127          7           0        5.881486   -1.549895   -3.049874
    128          1           0        5.628767   -1.496490   -2.039737
    129          6           0        6.349140   -2.939301   -3.164521
    130          1           0        5.745027   -3.467700   -3.909300
    131          6           0        6.060030   -3.572085   -1.726576
    132          6           0        7.829337   -3.102578   -3.511562
    133          1           0        8.057018   -4.159249   -3.352795
    134          1           0        7.986481   -2.891171   -4.577574
    135          8           0        6.437365   -4.737258   -1.576823
    136          6           0        8.741580   -2.213794   -2.639463
    137          1           0        8.126060   -1.618041   -1.956675
    138          1           0        9.392828   -2.822420   -2.003655
    139          6           0        9.636773   -1.281943   -3.464077
    140          1           0       10.191531   -0.578353   -2.831481
    141          1           0       10.388630   -1.854496   -4.013216
    142          7           0        8.903573   -0.523077   -4.490790
    143          1           0        8.889782   -0.911595   -5.423721
    144          7           0        7.930480    1.108002   -3.125842
    145          1           0        7.031480    1.532008   -2.902628
    146          1           0        8.530720    0.844679   -2.359331
    147          7           0        7.126314    0.732819   -5.270341
    148          1           0        6.439522    1.432941   -4.992263
    149          1           0        6.651392   -0.069104   -5.693308
    150          6           0        7.973866    0.408573   -4.268127
    151          8           0        5.495019   -2.772661   -0.910324
    152          1           0        4.491598    5.422873    1.408985
 ---------------------------------------------------------------------

 SCF Done:  E(RB3LYP) =  -3586.96870319     A.U. after    1 cycles

 Alpha  occ. eigenvalues --  -19.27707 -19.27192 -19.22653 -19.22233 -19.21604
 Alpha  occ. eigenvalues --  -19.20573 -19.19789 -19.18963 -19.17825 -19.16260
 Alpha  occ. eigenvalues --  -19.15676 -19.08525 -19.06974 -14.59962 -14.49511
 Alpha  occ. eigenvalues --  -14.46189 -14.45109 -14.44407 -14.44307 -14.42673
 Alpha  occ. eigenvalues --  -14.42638 -14.42384 -14.41990 -14.41190 -14.36608
 Alpha  occ. eigenvalues --  -10.43690 -10.40753 -10.40346 -10.40143 -10.39364
 Alpha  occ. eigenvalues --  -10.37572 -10.36057 -10.35658 -10.35009 -10.34933
 Alpha  occ. eigenvalues --  -10.34363 -10.34352 -10.32551 -10.32116 -10.31369
 Alpha  occ. eigenvalues --  -10.31181 -10.29986 -10.29960 -10.29845 -10.29603
 Alpha  occ. eigenvalues --  -10.29117 -10.28738 -10.28244 -10.27476 -10.27035
 Alpha  occ. eigenvalues --  -10.26614 -10.26264 -10.26041 -10.25863 -10.25712
 Alpha  occ. eigenvalues --  -10.25367 -10.25323 -10.25106 -10.25035 -10.24866
 Alpha  occ. eigenvalues --  -10.24862 -10.24776 -10.24698 -10.24627 -10.23794
 Alpha  occ. eigenvalues --  -10.23390 -10.23186 -10.23154 -10.23110 -10.22971
 Alpha  occ. eigenvalues --  -10.22958 -10.22864 -10.22493 -10.22309 -10.20925
 Alpha  occ. eigenvalues --   -1.19641  -1.18643  -1.14881  -1.13891  -1.12367
 Alpha  occ. eigenvalues --   -1.11454  -1.10578  -1.09794  -1.09564  -1.09418
 Alpha  occ. eigenvalues --   -1.09253  -1.08314  -1.06817  -1.06496  -1.02874
 Alpha  occ. eigenvalues --   -1.01209  -1.00939  -0.99984  -0.99203  -0.99142
 Alpha  occ. eigenvalues --   -0.98889  -0.96639  -0.95895  -0.95773  -0.94789
 Alpha  occ. eigenvalues --   -0.92136  -0.92125  -0.90982  -0.89475  -0.88206
 Alpha  occ. eigenvalues --   -0.87382  -0.87031  -0.86621  -0.85183  -0.84031
 Alpha  occ. eigenvalues --   -0.83324  -0.83147  -0.82638  -0.82464  -0.80505
 Alpha  occ. eigenvalues --   -0.80327  -0.79431  -0.78989  -0.78854  -0.78553
 Alpha  occ. eigenvalues --   -0.77065  -0.74579  -0.74269  -0.74212  -0.74158
 Alpha  occ. eigenvalues --   -0.73926  -0.73255  -0.72694  -0.72270  -0.72104
 Alpha  occ. eigenvalues --   -0.71401  -0.70536  -0.70060  -0.68954  -0.68439
 Alpha  occ. eigenvalues --   -0.67458  -0.67167  -0.66856  -0.66691  -0.66383
 Alpha  occ. eigenvalues --   -0.66333  -0.65845  -0.65439  -0.64944  -0.64643
 Alpha  occ. eigenvalues --   -0.64193  -0.63934  -0.63655  -0.63366  -0.62926
 Alpha  occ. eigenvalues --   -0.62679  -0.61458  -0.61132  -0.60503  -0.60105
 Alpha  occ. eigenvalues --   -0.59300  -0.58998  -0.58833  -0.58699  -0.58576
 Alpha  occ. eigenvalues --   -0.58456  -0.58267  -0.57986  -0.57642  -0.57434
 Alpha  occ. eigenvalues --   -0.57061  -0.56558  -0.56130  -0.56031  -0.55539
 Alpha  occ. eigenvalues --   -0.55314  -0.55049  -0.54931  -0.54483  -0.54262
 Alpha  occ. eigenvalues --   -0.54092  -0.53805  -0.53246  -0.52999  -0.52770
 Alpha  occ. eigenvalues --   -0.52667  -0.52432  -0.52370  -0.51875  -0.51734
 Alpha  occ. eigenvalues --   -0.51636  -0.51400  -0.51375  -0.51270  -0.50846
 Alpha  occ. eigenvalues --   -0.50617  -0.50423  -0.50120  -0.49828  -0.49662
 Alpha  occ. eigenvalues --   -0.49454  -0.49284  -0.48947  -0.48894  -0.48713
 Alpha  occ. eigenvalues --   -0.48337  -0.48231  -0.48080  -0.48024  -0.47984
 Alpha  occ. eigenvalues --   -0.47898  -0.47496  -0.47359  -0.47233  -0.47085
 Alpha  occ. eigenvalues --   -0.46676  -0.46599  -0.46503  -0.46428  -0.46082
 Alpha  occ. eigenvalues --   -0.46017  -0.45879  -0.45669  -0.45570  -0.45233
 Alpha  occ. eigenvalues --   -0.45032  -0.44886  -0.44610  -0.44509  -0.44213
 Alpha  occ. eigenvalues --   -0.44068  -0.43932  -0.43444  -0.43340  -0.43057
 Alpha  occ. eigenvalues --   -0.42844  -0.42745  -0.42627  -0.42375  -0.42126
 Alpha  occ. eigenvalues --   -0.41900  -0.41822  -0.41713  -0.41056  -0.40917
 Alpha  occ. eigenvalues --   -0.40891  -0.40860  -0.40495  -0.40362  -0.39887
 Alpha  occ. eigenvalues --   -0.39613  -0.39406  -0.39043  -0.38981  -0.38717
 Alpha  occ. eigenvalues --   -0.38518  -0.38423  -0.38232  -0.37423  -0.37168
 Alpha  occ. eigenvalues --   -0.36769  -0.36639  -0.36276  -0.36184  -0.35827
 Alpha  occ. eigenvalues --   -0.35656  -0.35236  -0.34880  -0.34458  -0.34347
 Alpha  occ. eigenvalues --   -0.33782  -0.33397  -0.33113  -0.31994  -0.31832
 Alpha  occ. eigenvalues --   -0.31586  -0.31230  -0.30893  -0.30354  -0.30244
 Alpha  occ. eigenvalues --   -0.29820  -0.29265  -0.28544  -0.25964  -0.23404
 Alpha  occ. eigenvalues --   -0.23319  -0.20943
 Alpha virt. eigenvalues --   -0.12542  -0.11500  -0.08772  -0.07332  -0.07157
 Alpha virt. eigenvalues --   -0.07120  -0.06757  -0.06499  -0.06157  -0.06075
 Alpha virt. eigenvalues --   -0.05004  -0.04433  -0.04222  -0.03722  -0.03552

 Mulliken charges:
               1
     1  N   -0.763563
     2  H    0.416323
     3  H    0.436799
     4  H    0.409189
     5  C   -0.101474
     6  H    0.216228
     7  C    0.649529
     8  C   -0.129699
     9  H    0.193682
    10  O   -0.546841
    11  C   -0.462676
    12  H    0.139336
    13  H    0.200157
    14  H    0.173031
    15  C   -0.475392
    16  H    0.142051
    17  H    0.186914
    18  H    0.199250
    19  N   -0.595568
    20  H    0.374929
    21  C   -0.092850
    22  H    0.185540
    23  C    0.656216
    24  C   -0.067187
    25  H    0.158042
    26  O   -0.549526
    27  C   -0.253039
    28  H    0.114710
    29  H    0.149891
    30  C   -0.500188
    31  H    0.141364
    32  H    0.179555
    33  H    0.182447
    34  C   -0.454338
    35  H    0.154092
    36  H    0.153478
    37  H    0.166712
    38  N   -0.603249
    39  H    0.350427
    40  C   -0.049662
    41  H    0.181304
    42  C    0.656493
    43  C   -0.402682
    44  H    0.195216
    45  H    0.172286
    46  O   -0.587498
    47  C    0.155357
    48  C   -0.187281
    49  H    0.167850
    50  C   -0.215431
    51  H    0.123431
    52  C   -0.140104
    53  H    0.150648
    54  C   -0.111755
    55  H    0.139843
    56  C   -0.104787
    57  H    0.128922
    58  N   -0.572882
    59  H    0.366514
    60  C   -0.095301
    61  H    0.183999
    62  C    0.647577
    63  C   -0.261236
    64  H    0.150831
    65  H    0.152845
    66  O   -0.545712
    67  C   -0.076236
    68  H    0.141902
    69  C   -0.442284
    70  H    0.148670
    71  H    0.144493
    72  H    0.133468
    73  C   -0.464872
    74  H    0.141087
    75  H    0.126461
    76  H    0.170921
    77  N   -0.610735
    78  H    0.356671
    79  C   -0.061940
    80  H    0.191812
    81  C    0.633427
    82  C   -0.318305
    83  H    0.204031
    84  H    0.199135
    85  O   -0.559854
    86  C   -0.382370
    87  H    0.190338
    88  H    0.189030
    89  C    0.599523
    90  O   -0.483825
    91  O   -0.545110
    92  N   -0.629268
    93  H    0.389710
    94  C   -0.063991
    95  H    0.218386
    96  C    0.641921
    97  C   -0.394411
    98  H    0.164285
    99  H    0.191093
   100  O   -0.612691
   101  C    0.617922
   102  N   -0.750757
   103  H    0.350423
   104  H    0.341723
   105  O   -0.499947
   106  N   -0.588023
   107  H    0.381390
   108  C   -0.037437
   109  H    0.163425
   110  C    0.579250
   111  C   -0.408721
   112  H    0.164059
   113  H    0.207893
   114  O   -0.565602
   115  C    0.143522
   116  C   -0.213972
   117  H    0.218571
   118  C   -0.189063
   119  H    0.138344
   120  C   -0.188343
   121  H    0.143395
   122  C   -0.235861
   123  H    0.133993
   124  O   -0.718313
   125  H    0.467098
   126  C    0.353385
   127  N   -0.615922
   128  H    0.359588
   129  C   -0.095552
   130  H    0.155446
   131  C    0.589561
   132  C   -0.260716
   133  H    0.190067
   134  H    0.095706
   135  O   -0.557803
   136  C   -0.262850
   137  H    0.154540
   138  H    0.171187
   139  C   -0.187973
   140  H    0.160295
   141  H    0.181003
   142  N   -0.566305
   143  H    0.362739
   144  N   -0.754413
   145  H    0.402410
   146  H    0.362960
   147  N   -0.763336
   148  H    0.380346
   149  H    0.383286
   150  C    0.746336
   151  O   -0.623207
   152  H    0.420694
 Sum of Mulliken charges =   1.00000

 Dipole moment (field-independent basis, Debye):
    X=            -29.6652    Y=             12.2946    Z=             18.0559  Tot=             36.8402
 Quadrupole moment (field-independent basis, Debye-Ang):
   XX=             43.6640   YY=           -430.6558   ZZ=           -312.0685
   XY=            104.7145   XZ=           -250.8394   YZ=            -13.6041

 Normal termination of Gaussian 16 at Sat Aug 13 18:46:35 2022.
