 Gaussian 16, Revision C.01,
 Gaussian 16:  ES64L-G16RevC.01  3-Jul-2019

 ----------------------------------------------------------------------
 # B3LYP/6-31G* empiricaldispersion=gd3bj guess=read geom=check nosymm
 integral(ultrafinegrid)
 ----------------------------------------------------------------------

 -----------------------------------------------------
 Candidate Structure: Conf:12 Charge calc in gas phase
 -----------------------------------------------------
 Structure from the checkpoint file:  "conf-12.chk"
 Charge =  1 Multiplicity = 1

                          Input orientation:
 ---------------------------------------------------------------------
 Center     Atomic      Atomic             Coordinates (Angstroms)
 Number     Number       Type             X           Y           Z
 ---------------------------------------------------------------------
      1          7           0       -3.768638    7.652831    3.434765
      2          1           0       -2.975941    7.894103    2.663021
      3          1           0       -4.702058    7.641038    3.006602
      4          1           0       -3.750145    8.359372    4.171917
      5          6           0       -3.491456    6.278738    3.970112
      6          1           0       -2.407648    6.205905    4.067537
      7          6           0       -4.015826    5.340122    2.875725
      8          6           0       -4.196863    6.004970    5.308158
      9          1           0       -5.276004    6.115691    5.138979
     10          8           0       -5.194899    5.431063    2.528458
     11          6           0       -3.920857    4.558245    5.739594
     12          1           0       -2.843969    4.377700    5.843691
     13          1           0       -4.388537    4.357104    6.706662
     14          1           0       -4.321123    3.831611    5.028342
     15          6           0       -3.746831    6.987475    6.397779
     16          1           0       -2.663869    6.928307    6.559240
     17          1           0       -4.000957    8.032331    6.175750
     18          1           0       -4.238818    6.747391    7.345242
     19          7           0       -3.120859    4.459616    2.391941
     20          1           0       -2.134314    4.650405    2.553708
     21          6           0       -3.468604    3.456864    1.395427
     22          1           0       -4.559954    3.381574    1.406265
     23          6           0       -2.817028    2.149492    1.857970
     24          6           0       -2.995752    3.818158   -0.031343
     25          1           0       -1.900525    3.872276   -0.011741
     26          8           0       -1.589380    2.050840    1.934295
     27          6           0       -3.549898    5.186015   -0.469183
     28          1           0       -3.144161    5.958692    0.193345
     29          1           0       -4.637531    5.202626   -0.320646
     30          6           0       -3.392070    2.696059   -0.998430
     31          1           0       -4.482073    2.637931   -1.116430
     32          1           0       -3.039753    1.721228   -0.649486
     33          1           0       -2.949959    2.878991   -1.980437
     34          6           0       -3.221162    5.547454   -1.922706
     35          1           0       -3.475180    6.594153   -2.124609
     36          1           0       -2.158893    5.400190   -2.138403
     37          1           0       -3.789965    4.932306   -2.628490
     38          7           0       -3.664755    1.140545    2.161253
     39          1           0       -4.658981    1.323409    2.151467
     40          6           0       -3.217962   -0.132520    2.733902
     41          1           0       -2.353076    0.093683    3.366648
     42          6           0       -2.778626   -1.084800    1.598447
     43          6           0       -4.342296   -0.771585    3.558337
     44          1           0       -3.944602   -1.693311    3.994563
     45          1           0       -5.135198   -1.084975    2.871905
     46          8           0       -3.457492   -2.044542    1.244894
     47          6           0       -4.887749    0.137785    4.632901
     48          6           0       -4.180104    0.345773    5.823817
     49          1           0       -3.231520   -0.163315    5.977950
     50          6           0       -6.110197    0.796995    4.457638
     51          1           0       -6.684975    0.625654    3.549328
     52          6           0       -4.689740    1.176111    6.820185
     53          1           0       -4.136146    1.312189    7.744871
     54          6           0       -6.621897    1.636476    5.449189
     55          1           0       -7.577643    2.130105    5.299077
     56          6           0       -5.915338    1.821073    6.636773
     57          1           0       -6.318635    2.458766    7.418052
     58          7           0       -1.598166   -0.750634    1.022220
     59          1           0       -1.134271    0.121389    1.278127
     60          6           0       -1.131412   -1.427662   -0.172631
     61          1           0       -1.181841   -2.508304   -0.009062
     62          6           0        0.300729   -0.967581   -0.410882
     63          6           0       -2.024124   -1.044235   -1.386366
     64          1           0       -1.936883    0.041028   -1.517308
     65          1           0       -3.051377   -1.249739   -1.068155
     66          8           0        0.711887    0.087012    0.086876
     67          6           0       -1.779067   -1.746970   -2.731932
     68          1           0       -0.781539   -1.480842   -3.107382
     69          6           0       -1.874034   -3.275224   -2.617390
     70          1           0       -2.843530   -3.570656   -2.199881
     71          1           0       -1.105354   -3.706412   -1.963355
     72          1           0       -1.767735   -3.747998   -3.599201
     73          6           0       -2.797579   -1.233352   -3.759091
     74          1           0       -3.820801   -1.480486   -3.452733
     75          1           0       -2.622779   -1.676611   -4.744887
     76          1           0       -2.736146   -0.143043   -3.867345
     77          7           0        1.055346   -1.712878   -1.258559
     78          1           0        0.621263   -2.498969   -1.724620
     79          6           0        2.303188   -1.187333   -1.828090
     80          1           0        2.815395   -0.674456   -1.011383
     81          6           0        1.945671   -0.145187   -2.912352
     82          6           0        3.198683   -2.286876   -2.378130
     83          1           0        4.099772   -1.794649   -2.755784
     84          1           0        2.729013   -2.759858   -3.246238
     85          8           0        1.945109   -0.375810   -4.114119
     86          6           0        3.571620   -3.335885   -1.304823
     87          1           0        3.545135   -2.874548   -0.312052
     88          1           0        2.883620   -4.182763   -1.310941
     89          6           0        4.962105   -3.879821   -1.519727
     90          8           0        5.271474   -4.997571   -1.840800
     91          8           0        5.913977   -2.902422   -1.308364
     92          7           0        1.594673    1.050751   -2.358255
     93          1           0        1.420525    1.024656   -1.351489
     94          6           0        1.006232    2.150355   -3.110150
     95          1           0        1.683792    2.409846   -3.931298
     96          6           0        0.908981    3.320438   -2.116586
     97          6           0       -0.360949    1.803282   -3.697892
     98          1           0       -0.232100    0.920089   -4.334114
     99          1           0       -1.054330    1.545065   -2.893636
    100          8           0       -0.132407    3.939137   -1.916721
    101          6           0       -0.940574    2.916427   -4.547628
    102          7           0       -2.279796    2.888121   -4.708642
    103          1           0       -2.723994    3.562319   -5.316577
    104          1           0       -2.858542    2.195629   -4.256612
    105          8           0       -0.236169    3.769605   -5.107602
    106          7           0        2.077104    3.575003   -1.473675
    107          1           0        2.812526    2.885493   -1.598943
    108          6           0        2.120295    4.283907   -0.201303
    109          1           0        1.433173    3.788177    0.496371
    110          6           0        1.679222    5.739265   -0.385880
    111          6           0        3.557419    4.193283    0.356974
    112          1           0        4.222650    4.746725   -0.314138
    113          1           0        3.573349    4.702907    1.326555
    114          8           0        2.158343    6.440901   -1.294590
    115          6           0        3.995430    2.751745    0.493128
    116          6           0        3.431807    1.931597    1.483556
    117          1           0        2.718589    2.351901    2.188163
    118          6           0        4.893293    2.169623   -0.408603
    119          1           0        5.353801    2.782643   -1.180445
    120          6           0        3.758408    0.587475    1.580194
    121          1           0        3.317519   -0.044793    2.342947
    122          6           0        5.229699    0.814895   -0.328254
    123          1           0        5.935859    0.381911   -1.032278
    124          8           0        4.942019   -1.303641    0.824136
    125          1           0        5.518638   -1.629095    0.106182
    126          6           0        4.666093    0.020084    0.674840
    127          7           0        0.784031    6.145748    0.514143
    128          1           0        0.465230    5.508884    1.242489
    129          6           0        0.031057    7.393994    0.537518
    130          1           0        0.687974    8.218901    0.845277
    131          6           0       -1.020360    7.222350    1.665547
    132          6           0       -0.620311    7.727800   -0.825002
    133          1           0       -0.487499    6.858975   -1.473288
    134          1           0       -1.693917    7.853491   -0.675039
    135          8           0       -1.931145    8.107764    1.691082
    136          6           0       -0.063234    8.988728   -1.506627
    137          1           0       -0.643300    9.871753   -1.217904
    138          1           0        0.967720    9.177453   -1.180478
    139          6           0       -0.059991    8.863114   -3.033213
    140          1           0       -1.047592    8.551784   -3.389707
    141          1           0        0.186010    9.818367   -3.508805
    142          7           0        0.933772    7.853841   -3.416797
    143          1           0        1.680193    7.737573   -2.732685
    144          7           0       -0.374793    6.601017   -4.903979
    145          1           0       -0.566339    5.681494   -5.300032
    146          1           0       -0.877914    7.409764   -5.231424
    147          7           0        1.548678    5.705672   -3.981659
    148          1           0        1.265920    4.834165   -4.424199
    149          1           0        2.067419    5.650730   -3.102593
    150          6           0        0.685950    6.725223   -4.092825
    151          8           0       -0.887036    6.247059    2.440236
    152          1           0        6.779660   -3.323808   -1.470235
 ---------------------------------------------------------------------

 SCF Done:  E(RB3LYP) =  -3587.07102324     A.U. after    3 cycles

 Alpha  occ. eigenvalues --  -19.27937 -19.24166 -19.23030 -19.22072 -19.21658
 Alpha  occ. eigenvalues --  -19.21486 -19.20937 -19.20442 -19.20062 -19.19813
 Alpha  occ. eigenvalues --  -19.19587 -19.18949 -19.18160 -14.50100 -14.46640
 Alpha  occ. eigenvalues --  -14.46565 -14.46210 -14.45949 -14.45252 -14.44640
 Alpha  occ. eigenvalues --  -14.44617 -14.44201 -14.44046 -14.44018 -14.42128
 Alpha  occ. eigenvalues --  -10.42473 -10.40353 -10.39740 -10.38537 -10.38254
 Alpha  occ. eigenvalues --  -10.37626 -10.37139 -10.37109 -10.36915 -10.36738
 Alpha  occ. eigenvalues --  -10.35191 -10.33128 -10.32279 -10.32274 -10.32207
 Alpha  occ. eigenvalues --  -10.32121 -10.31867 -10.31335 -10.30796 -10.30756
 Alpha  occ. eigenvalues --  -10.30725 -10.29185 -10.28244 -10.27850 -10.27777
 Alpha  occ. eigenvalues --  -10.27565 -10.27364 -10.27247 -10.26890 -10.26835
 Alpha  occ. eigenvalues --  -10.26499 -10.26373 -10.26357 -10.26331 -10.26325
 Alpha  occ. eigenvalues --  -10.26189 -10.26171 -10.25855 -10.25671 -10.25551
 Alpha  occ. eigenvalues --  -10.25394 -10.25321 -10.25310 -10.25195 -10.25179
 Alpha  occ. eigenvalues --  -10.25172 -10.25149 -10.24877 -10.24877 -10.24247
 Alpha  occ. eigenvalues --   -1.18043  -1.14518  -1.13825  -1.13613  -1.12946
 Alpha  occ. eigenvalues --   -1.12457  -1.12294  -1.12079  -1.11943  -1.11598
 Alpha  occ. eigenvalues --   -1.11229  -1.09988  -1.09270  -1.05576  -1.03843
 Alpha  occ. eigenvalues --   -1.03108  -1.02252  -1.01526  -1.01034  -1.01016
 Alpha  occ. eigenvalues --   -1.00915  -1.00754  -1.00603  -0.99160  -0.98978
 Alpha  occ. eigenvalues --   -0.92941  -0.91998  -0.89854  -0.89460  -0.88749
 Alpha  occ. eigenvalues --   -0.88460  -0.88316  -0.87844  -0.86779  -0.86081
 Alpha  occ. eigenvalues --   -0.83643  -0.83371  -0.82359  -0.82164  -0.81621
 Alpha  occ. eigenvalues --   -0.80767  -0.80696  -0.79733  -0.79506  -0.77965
 Alpha  occ. eigenvalues --   -0.76781  -0.76560  -0.76328  -0.76174  -0.74358
 Alpha  occ. eigenvalues --   -0.73363  -0.72899  -0.72586  -0.71809  -0.70975
 Alpha  occ. eigenvalues --   -0.70337  -0.69771  -0.69153  -0.68762  -0.68364
 Alpha  occ. eigenvalues --   -0.68054  -0.67720  -0.67548  -0.67224  -0.66828
 Alpha  occ. eigenvalues --   -0.66576  -0.66407  -0.66261  -0.66126  -0.65733
 Alpha  occ. eigenvalues --   -0.65372  -0.64756  -0.64664  -0.64192  -0.64112
 Alpha  occ. eigenvalues --   -0.63933  -0.63641  -0.63160  -0.61856  -0.61557
 Alpha  occ. eigenvalues --   -0.61111  -0.60514  -0.59879  -0.59658  -0.59114
 Alpha  occ. eigenvalues --   -0.58985  -0.58172  -0.58026  -0.57795  -0.57401
 Alpha  occ. eigenvalues --   -0.57166  -0.56864  -0.56753  -0.56540  -0.56355
 Alpha  occ. eigenvalues --   -0.56040  -0.56005  -0.55655  -0.55531  -0.55194
 Alpha  occ. eigenvalues --   -0.55041  -0.54721  -0.54470  -0.54175  -0.53884
 Alpha  occ. eigenvalues --   -0.53797  -0.53418  -0.52828  -0.52518  -0.52463
 Alpha  occ. eigenvalues --   -0.52375  -0.52184  -0.51928  -0.51827  -0.51628
 Alpha  occ. eigenvalues --   -0.51474  -0.51085  -0.51080  -0.50841  -0.50540
 Alpha  occ. eigenvalues --   -0.50183  -0.50155  -0.50029  -0.49849  -0.49789
 Alpha  occ. eigenvalues --   -0.49605  -0.49511  -0.49473  -0.49100  -0.48816
 Alpha  occ. eigenvalues --   -0.48723  -0.48545  -0.48354  -0.48298  -0.48143
 Alpha  occ. eigenvalues --   -0.47856  -0.47672  -0.47633  -0.47451  -0.47263
 Alpha  occ. eigenvalues --   -0.46952  -0.46901  -0.46622  -0.46499  -0.46374
 Alpha  occ. eigenvalues --   -0.46278  -0.46159  -0.46043  -0.45893  -0.45619
 Alpha  occ. eigenvalues --   -0.45512  -0.45154  -0.45075  -0.45011  -0.44895
 Alpha  occ. eigenvalues --   -0.44757  -0.44379  -0.43881  -0.43711  -0.43601
 Alpha  occ. eigenvalues --   -0.43221  -0.43021  -0.42792  -0.42643  -0.42533
 Alpha  occ. eigenvalues --   -0.42360  -0.42274  -0.42220  -0.41644  -0.41308
 Alpha  occ. eigenvalues --   -0.41142  -0.40874  -0.40752  -0.40727  -0.40476
 Alpha  occ. eigenvalues --   -0.40209  -0.40172  -0.40040  -0.39742  -0.39576
 Alpha  occ. eigenvalues --   -0.39156  -0.38063  -0.37830  -0.37326  -0.37059
 Alpha  occ. eigenvalues --   -0.36757  -0.35868  -0.35705  -0.35540  -0.35297
 Alpha  occ. eigenvalues --   -0.35084  -0.35053  -0.34939  -0.34663  -0.34483
 Alpha  occ. eigenvalues --   -0.34055  -0.33769  -0.33617  -0.33106  -0.32768
 Alpha  occ. eigenvalues --   -0.32540  -0.32323  -0.31853  -0.31475  -0.31193
 Alpha  occ. eigenvalues --   -0.30430  -0.29122
 Alpha virt. eigenvalues --   -0.08989  -0.08294  -0.08234  -0.08003  -0.07575
 Alpha virt. eigenvalues --   -0.07414  -0.06886  -0.06834  -0.06815  -0.06553
 Alpha virt. eigenvalues --   -0.06156  -0.05868  -0.05607  -0.04471  -0.04084

 Mulliken charges:
               1
     1  N   -0.796122
     2  H    0.459056
     3  H    0.386256
     4  H    0.378080
     5  C   -0.076355
     6  H    0.205518
     7  C    0.614984
     8  C   -0.088827
     9  H    0.157101
    10  O   -0.548670
    11  C   -0.461344
    12  H    0.151017
    13  H    0.159826
    14  H    0.179061
    15  C   -0.470362
    16  H    0.164217
    17  H    0.132243
    18  H    0.176266
    19  N   -0.606362
    20  H    0.384571
    21  C   -0.056543
    22  H    0.168261
    23  C    0.636545
    24  C   -0.077839
    25  H    0.163086
    26  O   -0.556170
    27  C   -0.274895
    28  H    0.144975
    29  H    0.148763
    30  C   -0.503308
    31  H    0.143337
    32  H    0.163903
    33  H    0.152539
    34  C   -0.475058
    35  H    0.135435
    36  H    0.181649
    37  H    0.130327
    38  N   -0.604884
    39  H    0.344352
    40  C   -0.055294
    41  H    0.182960
    42  C    0.641231
    43  C   -0.400331
    44  H    0.180954
    45  H    0.179389
    46  O   -0.531611
    47  C    0.182279
    48  C   -0.179040
    49  H    0.132920
    50  C   -0.207543
    51  H    0.128026
    52  C   -0.126937
    53  H    0.140631
    54  C   -0.127039
    55  H    0.142250
    56  C   -0.132346
    57  H    0.137718
    58  N   -0.646193
    59  H    0.394835
    60  C   -0.048874
    61  H    0.185709
    62  C    0.621673
    63  C   -0.288650
    64  H    0.144966
    65  H    0.185833
    66  O   -0.548386
    67  C   -0.104622
    68  H    0.130598
    69  C   -0.461643
    70  H    0.174385
    71  H    0.133716
    72  H    0.162949
    73  C   -0.449093
    74  H    0.160186
    75  H    0.162574
    76  H    0.112693
    77  N   -0.605127
    78  H    0.352874
    79  C   -0.099551
    80  H    0.210724
    81  C    0.633517
    82  C   -0.305307
    83  H    0.182648
    84  H    0.183560
    85  O   -0.525113
    86  C   -0.359800
    87  H    0.207068
    88  H    0.181216
    89  C    0.572999
    90  O   -0.423561
    91  O   -0.599961
    92  N   -0.680517
    93  H    0.398931
    94  C   -0.021687
    95  H    0.196860
    96  C    0.588101
    97  C   -0.402412
    98  H    0.226485
    99  H    0.184891
   100  O   -0.525410
   101  C    0.672647
   102  N   -0.748073
   103  H    0.354500
   104  H    0.370482
   105  O   -0.569451
   106  N   -0.614722
   107  H    0.361287
   108  C   -0.050685
   109  H    0.180879
   110  C    0.680425
   111  C   -0.386561
   112  H    0.176013
   113  H    0.175704
   114  O   -0.603319
   115  C    0.138597
   116  C   -0.170715
   117  H    0.142929
   118  C   -0.213019
   119  H    0.140468
   120  C   -0.142945
   121  H    0.154912
   122  C   -0.198713
   123  H    0.140441
   124  O   -0.672273
   125  H    0.442384
   126  C    0.342413
   127  N   -0.623354
   128  H    0.368600
   129  C   -0.015004
   130  H    0.181745
   131  C    0.618159
   132  C   -0.299012
   133  H    0.173730
   134  H    0.184883
   135  O   -0.624517
   136  C   -0.300816
   137  H    0.170498
   138  H    0.162035
   139  C   -0.159954
   140  H    0.157907
   141  H    0.179809
   142  N   -0.589101
   143  H    0.389589
   144  N   -0.779736
   145  H    0.396254
   146  H    0.362469
   147  N   -0.798891
   148  H    0.393678
   149  H    0.395675
   150  C    0.767045
   151  O   -0.588783
   152  H    0.426561
 Sum of Mulliken charges =   1.00000

 Dipole moment (field-independent basis, Debye):
    X=             -5.7207    Y=             22.2898    Z=             -2.7810  Tot=             23.1796
 Quadrupole moment (field-independent basis, Debye-Ang):
   XX=           -370.8352   YY=           -274.6226   ZZ=           -349.9208
   XY=            -52.7498   XZ=            -18.8983   YZ=             -1.7553

 Normal termination of Gaussian 16 at Sat Aug 13 18:49:58 2022.
