 Gaussian 16, Revision C.01,
 Gaussian 16:  ES64L-G16RevC.01  3-Jul-2019

 ----------------------------------------------------------------------
 # B3LYP/6-31G* empiricaldispersion=gd3bj guess=read geom=check nosymm
 integral(ultrafinegrid)
 ----------------------------------------------------------------------

 ------------------------------------------------------
 Candidate Structure: Conf:535 Charge calc in gas phase
 ------------------------------------------------------
 Structure from the checkpoint file:  "conf-535.chk"
 Charge =  1 Multiplicity = 1

                          Input orientation:
 ---------------------------------------------------------------------
 Center     Atomic      Atomic             Coordinates (Angstroms)
 Number     Number       Type             X           Y           Z
 ---------------------------------------------------------------------
      1          7           0       -3.849260   -5.435832    6.897117
      2          1           0       -3.752016   -6.454311    6.909514
      3          1           0       -2.965657   -5.009760    6.480078
      4          1           0       -4.012572   -5.110969    7.852842
      5          6           0       -4.902949   -4.945210    5.922439
      6          1           0       -5.556106   -5.786533    5.674957
      7          6           0       -4.029882   -4.519074    4.711999
      8          6           0       -5.725977   -3.797466    6.555344
      9          1           0       -5.026439   -2.980310    6.776963
     10          8           0       -2.819837   -4.358223    4.922198
     11          6           0       -6.772147   -3.264309    5.564991
     12          1           0       -7.405864   -4.074603    5.179205
     13          1           0       -7.431544   -2.561643    6.081951
     14          1           0       -6.296455   -2.724680    4.744690
     15          6           0       -6.411825   -4.262558    7.850513
     16          1           0       -7.100232   -5.093502    7.656344
     17          1           0       -5.720284   -4.576997    8.644355
     18          1           0       -6.994749   -3.438304    8.269932
     19          7           0       -4.627161   -4.412106    3.524065
     20          1           0       -5.638140   -4.456199    3.507070
     21          6           0       -3.993672   -3.680428    2.425439
     22          1           0       -2.932893   -3.943241    2.456262
     23          6           0       -4.066432   -2.168890    2.770547
     24          6           0       -4.603989   -4.145170    1.080592
     25          1           0       -4.602941   -5.241674    1.151294
     26          8           0       -4.433386   -1.788469    3.884333
     27          6           0       -3.762392   -3.792104   -0.167538
     28          1           0       -3.936978   -2.752686   -0.471233
     29          1           0       -4.166723   -4.395579   -0.989130
     30          6           0       -6.052149   -3.666757    0.908526
     31          1           0       -6.098143   -2.573793    0.859788
     32          1           0       -6.712809   -3.994195    1.722415
     33          1           0       -6.475139   -4.062896   -0.019693
     34          6           0       -2.257914   -4.056842   -0.044143
     35          1           0       -1.772058   -3.924507   -1.015310
     36          1           0       -1.758597   -3.375254    0.652806
     37          1           0       -2.058544   -5.081876    0.290853
     38          7           0       -3.644802   -1.344235    1.799876
     39          1           0       -3.271202   -1.712035    0.931222
     40          6           0       -3.233400    0.029708    2.025411
     41          1           0       -4.073578    0.617871    2.408793
     42          6           0       -2.800420    0.551972    0.645665
     43          6           0       -2.051493    0.103834    3.042110
     44          1           0       -2.460151   -0.082656    4.036998
     45          1           0       -1.644544    1.120610    3.049637
     46          8           0       -2.643966   -0.222855   -0.299766
     47          6           0       -0.982196   -0.914097    2.726684
     48          6           0       -0.867442   -2.074528    3.499676
     49          1           0       -1.521875   -2.211072    4.354369
     50          6           0       -0.132378   -0.760755    1.624921
     51          1           0       -0.186989    0.133821    1.014805
     52          6           0        0.070490   -3.059030    3.181190
     53          1           0        0.136850   -3.952715    3.795557
     54          6           0        0.802491   -1.742075    1.304701
     55          1           0        1.452088   -1.607124    0.449771
     56          6           0        0.913129   -2.897461    2.079467
     57          1           0        1.648198   -3.652920    1.819665
     58          7           0       -2.550710    1.879482    0.582923
     59          1           0       -2.591603    2.425704    1.437464
     60          6           0       -1.673857    2.465113   -0.436670
     61          1           0       -1.406957    1.656063   -1.118117
     62          6           0       -0.450728    2.962062    0.348061
     63          6           0       -2.344726    3.617911   -1.192786
     64          1           0       -1.624976    3.999622   -1.930894
     65          1           0       -2.524378    4.432436   -0.480447
     66          8           0       -0.612024    3.667979    1.344996
     67          6           0       -3.655555    3.240345   -1.901115
     68          1           0       -4.356944    2.889289   -1.131460
     69          6           0       -4.259331    4.483703   -2.565426
     70          1           0       -3.598129    4.865973   -3.353405
     71          1           0       -4.415952    5.290537   -1.840210
     72          1           0       -5.225538    4.251628   -3.026655
     73          6           0       -3.463521    2.108946   -2.919854
     74          1           0       -2.703548    2.380414   -3.664785
     75          1           0       -4.397692    1.916179   -3.459181
     76          1           0       -3.159363    1.173117   -2.440587
     77          7           0        0.751136    2.515754   -0.074699
     78          1           0        0.849675    2.020330   -0.955981
     79          6           0        2.016081    2.866942    0.551764
     80          1           0        1.946221    3.886390    0.945027
     81          6           0        3.090401    2.767822   -0.541150
     82          6           0        2.403607    1.877603    1.678201
     83          1           0        3.448771    2.043327    1.959034
     84          1           0        2.349054    0.869984    1.259678
     85          8           0        2.870124    2.150762   -1.592409
     86          6           0        1.520911    1.968605    2.923842
     87          1           0        1.740464    2.882013    3.490287
     88          1           0        0.465219    2.048843    2.663003
     89          6           0        1.636209    0.802246    3.881952
     90          8           0        0.896046    0.618598    4.823727
     91          8           0        2.656707   -0.036442    3.582491
     92          7           0        4.270346    3.320951   -0.216112
     93          1           0        4.420391    3.733727    0.709312
     94          6           0        5.516567    3.071626   -0.944555
     95          1           0        5.320671    3.190947   -2.014790
     96          6           0        5.991150    1.629749   -0.653690
     97          6           0        6.582839    4.073831   -0.487760
     98          1           0        7.517043    3.863496   -1.013679
     99          1           0        6.261777    5.083829   -0.765663
    100          8           0        6.861574    1.398949    0.183248
    101          6           0        6.780547    4.071000    1.028170
    102          7           0        8.062309    3.999205    1.468324
    103          1           0        8.175011    3.887316    2.468660
    104          1           0        8.742905    3.523713    0.892304
    105          8           0        5.829149    4.231393    1.797903
    106          7           0        5.340969    0.679821   -1.366523
    107          1           0        4.545427    0.969789   -1.930667
    108          6           0        5.354944   -0.716188   -0.969410
    109          1           0        6.283699   -0.900355   -0.426440
    110          6           0        5.270233   -1.584253   -2.224670
    111          6           0        4.140885   -1.008652   -0.034643
    112          1           0        4.279455   -0.418468    0.876777
    113          1           0        3.245110   -0.635195   -0.544057
    114          8           0        4.547467   -1.208033   -3.168824
    115          6           0        4.039151   -2.478238    0.257054
    116          6           0        3.282912   -3.314913   -0.573095
    117          1           0        2.620152   -2.868767   -1.312552
    118          6           0        4.878142   -3.065911    1.211296
    119          1           0        5.454363   -2.428354    1.878778
    120          6           0        3.434658   -4.696820   -0.527303
    121          1           0        2.920437   -5.345759   -1.227318
    122          6           0        5.050950   -4.447593    1.253548
    123          1           0        5.762323   -4.906729    1.932429
    124          8           0        4.732602   -6.577402    0.206344
    125          1           0        5.300185   -6.587791   -0.607280
    126          6           0        4.387794   -5.261458    0.329313
    127          7           0        5.964068   -2.736247   -2.228702
    128          1           0        6.395412   -3.086722   -1.378883
    129          6           0        5.785469   -3.707394   -3.303973
    130          1           0        4.877114   -3.397562   -3.786249
    131          6           0        5.554775   -5.136121   -2.740891
    132          6           0        6.952489   -3.645099   -4.308912
    133          1           0        7.184097   -2.590576   -4.508176
    134          1           0        7.834782   -4.082190   -3.828742
    135          8           0        4.653547   -5.832863   -3.304000
    136          6           0        6.669859   -4.383410   -5.627439
    137          1           0        7.618219   -4.636308   -6.116111
    138          1           0        6.182829   -5.337412   -5.404839
    139          6           0        5.873606   -3.587067   -6.681951
    140          1           0        6.480781   -2.754135   -7.045309
    141          1           0        5.668115   -4.220817   -7.552963
    142          7           0        4.611953   -2.966295   -6.228880
    143          1           0        4.588855   -1.956156   -6.167663
    144          7           0        3.544372   -4.948752   -5.540212
    145          1           0        3.790281   -5.374253   -4.579934
    146          1           0        4.070868   -5.409434   -6.273876
    147          7           0        2.844459   -2.885360   -4.746009
    148          1           0        2.137305   -3.421259   -4.258990
    149          1           0        3.266657   -2.109370   -4.219237
    150          6           0        3.670805   -3.610127   -5.526826
    151          8           0        6.279534   -5.477197   -1.783416
    152          1           0        2.594810   -0.778118    4.213111
 ---------------------------------------------------------------------

 SCF Done:  E(RB3LYP) =  -3586.97820433     A.U. after    2 cycles

 Alpha  occ. eigenvalues --  -19.26380 -19.24512 -19.20557 -19.19941 -19.19336
 Alpha  occ. eigenvalues --  -19.18436 -19.18286 -19.18209 -19.17937 -19.17564
 Alpha  occ. eigenvalues --  -19.16418 -19.13879 -19.13142 -14.59142 -14.49029
 Alpha  occ. eigenvalues --  -14.46243 -14.44105 -14.43802 -14.43568 -14.42980
 Alpha  occ. eigenvalues --  -14.42435 -14.41971 -14.41818 -14.41236 -14.41234
 Alpha  occ. eigenvalues --  -10.43031 -10.40531 -10.39987 -10.37577 -10.36866
 Alpha  occ. eigenvalues --  -10.36763 -10.35976 -10.35531 -10.35438 -10.35134
 Alpha  occ. eigenvalues --  -10.34536 -10.33628 -10.33061 -10.31467 -10.31444
 Alpha  occ. eigenvalues --  -10.31145 -10.30699 -10.30508 -10.30196 -10.29870
 Alpha  occ. eigenvalues --  -10.29022 -10.28987 -10.28719 -10.27178 -10.26654
 Alpha  occ. eigenvalues --  -10.26634 -10.26529 -10.26329 -10.26086 -10.25619
 Alpha  occ. eigenvalues --  -10.25606 -10.25260 -10.25004 -10.24820 -10.24709
 Alpha  occ. eigenvalues --  -10.24581 -10.24579 -10.24506 -10.24494 -10.24449
 Alpha  occ. eigenvalues --  -10.24373 -10.24338 -10.24131 -10.23522 -10.23306
 Alpha  occ. eigenvalues --  -10.23137 -10.22211 -10.22103 -10.22078 -10.21979
 Alpha  occ. eigenvalues --   -1.18961  -1.15198  -1.13323  -1.12528  -1.11688
 Alpha  occ. eigenvalues --   -1.11241  -1.10189  -1.10025  -1.09700  -1.09545
 Alpha  occ. eigenvalues --   -1.08966  -1.06783  -1.06011  -1.05780  -1.05095
 Alpha  occ. eigenvalues --   -1.01096  -1.00203  -0.99693  -0.99450  -0.99361
 Alpha  occ. eigenvalues --   -0.98423  -0.98199  -0.97733  -0.96388  -0.96323
 Alpha  occ. eigenvalues --   -0.94631  -0.91617  -0.90693  -0.89641  -0.87602
 Alpha  occ. eigenvalues --   -0.86640  -0.86257  -0.86092  -0.85482  -0.84823
 Alpha  occ. eigenvalues --   -0.83466  -0.82218  -0.81860  -0.80813  -0.80577
 Alpha  occ. eigenvalues --   -0.80492  -0.80207  -0.79407  -0.78670  -0.78418
 Alpha  occ. eigenvalues --   -0.77541  -0.74492  -0.74348  -0.73658  -0.73415
 Alpha  occ. eigenvalues --   -0.73357  -0.73069  -0.72017  -0.71758  -0.71037
 Alpha  occ. eigenvalues --   -0.70570  -0.69824  -0.69460  -0.69344  -0.67686
 Alpha  occ. eigenvalues --   -0.66977  -0.66752  -0.66490  -0.66326  -0.65808
 Alpha  occ. eigenvalues --   -0.65639  -0.65358  -0.65287  -0.65165  -0.64959
 Alpha  occ. eigenvalues --   -0.64477  -0.64185  -0.63590  -0.63514  -0.63110
 Alpha  occ. eigenvalues --   -0.62432  -0.62294  -0.62167  -0.61202  -0.60437
 Alpha  occ. eigenvalues --   -0.59672  -0.59542  -0.58722  -0.58222  -0.57941
 Alpha  occ. eigenvalues --   -0.57806  -0.57375  -0.56994  -0.56231  -0.56154
 Alpha  occ. eigenvalues --   -0.56002  -0.55837  -0.55574  -0.54984  -0.54781
 Alpha  occ. eigenvalues --   -0.54623  -0.54243  -0.54165  -0.54016  -0.53610
 Alpha  occ. eigenvalues --   -0.53426  -0.53208  -0.53113  -0.52759  -0.52544
 Alpha  occ. eigenvalues --   -0.52400  -0.52063  -0.52013  -0.51748  -0.51610
 Alpha  occ. eigenvalues --   -0.51488  -0.51262  -0.51225  -0.51030  -0.50842
 Alpha  occ. eigenvalues --   -0.50768  -0.50672  -0.50333  -0.50154  -0.49796
 Alpha  occ. eigenvalues --   -0.49634  -0.49239  -0.48834  -0.48779  -0.48577
 Alpha  occ. eigenvalues --   -0.48506  -0.48095  -0.47929  -0.47716  -0.47489
 Alpha  occ. eigenvalues --   -0.47385  -0.47205  -0.47065  -0.46838  -0.46565
 Alpha  occ. eigenvalues --   -0.46469  -0.46348  -0.46252  -0.46061  -0.45941
 Alpha  occ. eigenvalues --   -0.45911  -0.45664  -0.45585  -0.45434  -0.45171
 Alpha  occ. eigenvalues --   -0.45032  -0.44741  -0.44549  -0.44358  -0.44188
 Alpha  occ. eigenvalues --   -0.44096  -0.43935  -0.43875  -0.43662  -0.43453
 Alpha  occ. eigenvalues --   -0.43092  -0.42997  -0.42722  -0.42552  -0.42245
 Alpha  occ. eigenvalues --   -0.42080  -0.41941  -0.41606  -0.41506  -0.41451
 Alpha  occ. eigenvalues --   -0.41264  -0.41177  -0.40860  -0.40705  -0.40534
 Alpha  occ. eigenvalues --   -0.40418  -0.40395  -0.39644  -0.39438  -0.38883
 Alpha  occ. eigenvalues --   -0.38814  -0.38562  -0.37916  -0.37724  -0.37638
 Alpha  occ. eigenvalues --   -0.37213  -0.36411  -0.36301  -0.35073  -0.34907
 Alpha  occ. eigenvalues --   -0.34759  -0.34371  -0.33906  -0.33631  -0.33356
 Alpha  occ. eigenvalues --   -0.33028  -0.32874  -0.32712  -0.32454  -0.31656
 Alpha  occ. eigenvalues --   -0.31553  -0.31313  -0.31072  -0.30715  -0.30436
 Alpha  occ. eigenvalues --   -0.30202  -0.29968  -0.29316  -0.28843  -0.27787
 Alpha  occ. eigenvalues --   -0.27602  -0.25968
 Alpha virt. eigenvalues --   -0.11963  -0.10459  -0.08068  -0.07642  -0.06495
 Alpha virt. eigenvalues --   -0.05991  -0.05958  -0.05899  -0.05744  -0.04947
 Alpha virt. eigenvalues --   -0.04858  -0.04335  -0.03930  -0.03842  -0.03673

 Mulliken charges:
               1
     1  N   -0.760881
     2  H    0.413900
     3  H    0.435020
     4  H    0.409118
     5  C   -0.117856
     6  H    0.200813
     7  C    0.677168
     8  C   -0.096869
     9  H    0.185247
    10  O   -0.538333
    11  C   -0.501940
    12  H    0.143290
    13  H    0.184963
    14  H    0.218664
    15  C   -0.474922
    16  H    0.172131
    17  H    0.136459
    18  H    0.202001
    19  N   -0.587011
    20  H    0.353175
    21  C   -0.108108
    22  H    0.224723
    23  C    0.642693
    24  C   -0.097535
    25  H    0.148183
    26  O   -0.549657
    27  C   -0.298787
    28  H    0.171750
    29  H    0.154409
    30  C   -0.472916
    31  H    0.175166
    32  H    0.126225
    33  H    0.174634
    34  C   -0.473432
    35  H    0.163762
    36  H    0.176476
    37  H    0.148227
    38  N   -0.632594
    39  H    0.398675
    40  C   -0.041853
    41  H    0.183233
    42  C    0.627570
    43  C   -0.394638
    44  H    0.189521
    45  H    0.176432
    46  O   -0.542641
    47  C    0.172272
    48  C   -0.192861
    49  H    0.142430
    50  C   -0.194668
    51  H    0.132823
    52  C   -0.152588
    53  H    0.128826
    54  C   -0.122277
    55  H    0.136539
    56  C   -0.151331
    57  H    0.164643
    58  N   -0.595959
    59  H    0.350923
    60  C   -0.076387
    61  H    0.179753
    62  C    0.618458
    63  C   -0.262843
    64  H    0.142750
    65  H    0.157405
    66  O   -0.545807
    67  C   -0.067231
    68  H    0.129902
    69  C   -0.443781
    70  H    0.144138
    71  H    0.145272
    72  H    0.147679
    73  C   -0.470926
    74  H    0.135955
    75  H    0.145894
    76  H    0.170447
    77  N   -0.608758
    78  H    0.356893
    79  C   -0.062509
    80  H    0.190417
    81  C    0.628740
    82  C   -0.281955
    83  H    0.175897
    84  H    0.174235
    85  O   -0.565454
    86  C   -0.379147
    87  H    0.193474
    88  H    0.204850
    89  C    0.603079
    90  O   -0.481683
    91  O   -0.563827
    92  N   -0.622200
    93  H    0.393813
    94  C   -0.074887
    95  H    0.180653
    96  C    0.628021
    97  C   -0.374090
    98  H    0.166335
    99  H    0.192808
   100  O   -0.536792
   101  C    0.626805
   102  N   -0.721556
   103  H    0.348363
   104  H    0.351148
   105  O   -0.535589
   106  N   -0.605316
   107  H    0.376315
   108  C   -0.063627
   109  H    0.186779
   110  C    0.647295
   111  C   -0.372692
   112  H    0.180911
   113  H    0.149459
   114  O   -0.604611
   115  C    0.149660
   116  C   -0.195926
   117  H    0.104035
   118  C   -0.216566
   119  H    0.131672
   120  C   -0.174629
   121  H    0.145667
   122  C   -0.157800
   123  H    0.142406
   124  O   -0.698201
   125  H    0.440825
   126  C    0.357162
   127  N   -0.590067
   128  H    0.359863
   129  C   -0.037312
   130  H    0.125787
   131  C    0.639171
   132  C   -0.266286
   133  H    0.138039
   134  H    0.173311
   135  O   -0.620026
   136  C   -0.295250
   137  H    0.164377
   138  H    0.169357
   139  C   -0.165657
   140  H    0.176276
   141  H    0.175666
   142  N   -0.539967
   143  H    0.362218
   144  N   -0.736059
   145  H    0.416308
   146  H    0.340869
   147  N   -0.731135
   148  H    0.362668
   149  H    0.407975
   150  C    0.620032
   151  O   -0.585316
   152  H    0.412144
 Sum of Mulliken charges =   1.00000

 Dipole moment (field-independent basis, Debye):
    X=            -12.1626    Y=            -14.6762    Z=             11.6734  Tot=             22.3514
 Quadrupole moment (field-independent basis, Debye-Ang):
   XX=           -274.9349   YY=           -360.8410   ZZ=           -217.9842
   XY=            132.3460   XZ=           -158.5595   YZ=           -111.1482

 Normal termination of Gaussian 16 at Sat Aug 13 18:47:31 2022.
