 Gaussian 16, Revision C.01,
 Gaussian 16:  ES64L-G16RevC.01  3-Jul-2019

 ----------------------------------------------------------------------
 # B3LYP/6-31G* empiricaldispersion=gd3bj guess=read geom=check nosymm
 integral(ultrafinegrid)
 ----------------------------------------------------------------------

 ------------------------------------------------------
 Candidate Structure: Conf:472 Charge calc in gas phase
 ------------------------------------------------------
 Structure from the checkpoint file:  "conf-472.chk"
 Charge =  1 Multiplicity = 1

                          Input orientation:
 ---------------------------------------------------------------------
 Center     Atomic      Atomic             Coordinates (Angstroms)
 Number     Number       Type             X           Y           Z
 ---------------------------------------------------------------------
      1          7           0        0.558783   -4.654736    2.309473
      2          1           0        0.520724   -5.512780    2.860001
      3          1           0       -0.033239   -4.765668    1.464825
      4          1           0        1.626062   -4.495563    1.954273
      5          6           0       -0.022348   -3.477368    3.042729
      6          1           0       -0.347806   -3.817770    4.030008
      7          6           0       -1.242569   -3.038265    2.197643
      8          6           0        1.040935   -2.354407    3.198388
      9          1           0        1.989492   -2.875882    3.366240
     10          8           0       -1.388494   -3.537640    1.076523
     11          6           0        1.179539   -1.530740    1.909580
     12          1           0        0.296015   -0.911890    1.738283
     13          1           0        2.046934   -0.865597    1.970633
     14          1           0        1.314230   -2.183867    1.044601
     15          6           0        0.769498   -1.487831    4.433759
     16          1           0       -0.113259   -0.854198    4.323816
     17          1           0        0.666457   -2.102335    5.335861
     18          1           0        1.615488   -0.810303    4.592299
     19          7           0       -2.051118   -2.102246    2.715615
     20          1           0       -1.889841   -1.727503    3.643310
     21          6           0       -3.094030   -1.423406    1.938423
     22          1           0       -2.819793   -1.505620    0.886419
     23          6           0       -3.111245    0.039753    2.415329
     24          6           0       -4.510552   -2.009826    2.180864
     25          1           0       -4.704877   -1.863501    3.251044
     26          8           0       -3.236503    0.273217    3.617511
     27          6           0       -4.621360   -3.520296    1.900966
     28          1           0       -5.581328   -3.848512    2.320663
     29          1           0       -3.848275   -4.049476    2.471296
     30          6           0       -5.550848   -1.198623    1.391593
     31          1           0       -5.279536   -1.114999    0.333434
     32          1           0       -5.655625   -0.185302    1.792391
     33          1           0       -6.532565   -1.679502    1.452279
     34          6           0       -4.549043   -3.943418    0.431762
     35          1           0       -4.708905   -5.023339    0.341150
     36          1           0       -5.313988   -3.447109   -0.174018
     37          1           0       -3.567107   -3.723237    0.007845
     38          7           0       -3.034690    0.973326    1.438905
     39          1           0       -2.972105    0.644728    0.480277
     40          6           0       -3.319967    2.390295    1.619470
     41          1           0       -4.390516    2.518102    1.833849
     42          6           0       -2.997503    3.101854    0.295500
     43          6           0       -2.522180    3.060924    2.783655
     44          1           0       -1.536118    3.358624    2.421657
     45          1           0       -2.373570    2.295984    3.544166
     46          8           0       -2.573890    2.492817   -0.702049
     47          6           0       -3.239405    4.250804    3.377632
     48          6           0       -2.742333    5.554607    3.234512
     49          1           0       -1.814003    5.726398    2.694032
     50          6           0       -4.437930    4.059121    4.080883
     51          1           0       -4.814336    3.048251    4.218702
     52          6           0       -3.438812    6.643600    3.766788
     53          1           0       -3.040570    7.646596    3.643724
     54          6           0       -5.129209    5.143983    4.615178
     55          1           0       -6.053816    4.978864    5.160682
     56          6           0       -4.634054    6.441208    4.454854
     57          1           0       -5.175887    7.286207    4.869069
     58          7           0       -3.132687    4.439196    0.293034
     59          1           0       -3.371030    4.903444    1.164789
     60          6           0       -2.514741    5.274507   -0.744848
     61          1           0       -2.617725    4.737953   -1.688965
     62          6           0       -1.024686    5.397208   -0.362504
     63          6           0       -3.191752    6.641517   -0.806466
     64          1           0       -2.727949    7.205844   -1.626066
     65          1           0       -2.949356    7.185678    0.113489
     66          8           0       -0.623964    6.244283    0.432647
     67          6           0       -4.715110    6.593712   -1.010727
     68          1           0       -5.157481    6.075095   -0.148366
     69          6           0       -5.275497    8.020629   -1.036967
     70          1           0       -4.877408    8.581410   -1.891894
     71          1           0       -5.012788    8.569001   -0.125132
     72          1           0       -6.367291    8.011866   -1.123345
     73          6           0       -5.109325    5.822627   -2.276400
     74          1           0       -4.639854    6.263605   -3.165272
     75          1           0       -6.193864    5.852370   -2.425853
     76          1           0       -4.814638    4.768463   -2.225438
     77          7           0       -0.204784    4.452173   -0.897382
     78          1           0       -0.583883    3.707402   -1.469565
     79          6           0        1.164139    4.324638   -0.436995
     80          1           0        1.607696    5.326847   -0.421618
     81          6           0        1.938912    3.443566   -1.417383
     82          6           0        1.239509    3.758875    1.001670
     83          1           0        0.641339    4.426650    1.627585
     84          1           0        2.263984    3.826809    1.382889
     85          8           0        1.409994    2.851268   -2.346758
     86          6           0        0.748125    2.309388    1.112746
     87          1           0       -0.259712    2.184680    0.712724
     88          1           0        1.411233    1.640830    0.551943
     89          6           0        0.745491    1.805486    2.532486
     90          8           0       -0.142440    1.164524    3.052570
     91          8           0        1.882451    2.125900    3.195876
     92          7           0        3.296084    3.349544   -1.164983
     93          1           0        3.567396    3.574878   -0.214236
     94          6           0        4.034826    2.229547   -1.736758
     95          1           0        3.842063    2.232290   -2.812618
     96          6           0        3.581547    0.896283   -1.123081
     97          6           0        5.550365    2.380749   -1.445903
     98          1           0        5.694421    3.043179   -0.584725
     99          1           0        5.979808    1.418480   -1.171272
    100          8           0        3.419532    0.793596    0.089731
    101          6           0        6.343103    2.906044   -2.631224
    102          7           0        5.952488    4.100343   -3.115113
    103          1           0        6.427324    4.488755   -3.919811
    104          1           0        5.167329    4.600563   -2.719348
    105          8           0        7.279025    2.261727   -3.127485
    106          7           0        3.473545   -0.133083   -1.996054
    107          1           0        3.489582    0.061775   -2.987658
    108          6           0        3.041763   -1.456485   -1.566204
    109          1           0        2.545088   -1.310748   -0.607170
    110          6           0        4.229986   -2.397632   -1.382573
    111          6           0        2.037043   -2.071838   -2.565065
    112          1           0        2.416846   -1.917933   -3.584036
    113          1           0        2.026656   -3.155628   -2.412075
    114          8           0        4.928410   -2.749316   -2.358321
    115          6           0        0.646478   -1.522291   -2.368307
    116          6           0       -0.361026   -2.343641   -1.850342
    117          1           0       -0.152505   -3.389261   -1.641793
    118          6           0        0.341434   -0.178030   -2.616513
    119          1           0        1.085195    0.495678   -3.025576
    120          6           0       -1.630905   -1.846358   -1.579501
    121          1           0       -2.407195   -2.491020   -1.189077
    122          6           0       -0.916209    0.340461   -2.325223
    123          1           0       -1.127609    1.387468   -2.509535
    124          8           0       -3.150069   -0.035493   -1.458165
    125          1           0       -3.125353    0.944798   -1.475900
    126          6           0       -1.904437   -0.495957   -1.795092
    127          7           0        4.422531   -2.815471   -0.126290
    128          1           0        3.691996   -2.558301    0.537511
    129          6           0        4.973656   -4.117228    0.268695
    130          1           0        5.158610   -4.704535   -0.635964
    131          6           0        3.846126   -4.840980    1.092984
    132          6           0        6.248559   -4.053611    1.126393
    133          1           0        6.112684   -3.294537    1.908631
    134          1           0        6.294815   -5.022570    1.633389
    135          8           0        4.006521   -6.014324    1.400258
    136          6           0        7.604981   -3.847792    0.428644
    137          1           0        8.379947   -4.151841    1.141022
    138          1           0        7.702011   -4.531018   -0.425531
    139          6           0        7.977362   -2.429282   -0.021422
    140          1           0        7.675271   -1.697340    0.740400
    141          1           0        9.068683   -2.371732   -0.128881
    142          7           0        7.362781   -2.089472   -1.303508
    143          1           0        6.626378   -2.697909   -1.678799
    144          7           0        8.270731    0.061984   -1.430739
    145          1           0        8.304470    0.940559   -1.944776
    146          1           0        9.025588   -0.169765   -0.803685
    147          7           0        6.688183   -0.631408   -2.963798
    148          1           0        6.769538    0.282432   -3.397791
    149          1           0        5.917825   -1.265382   -3.170529
    150          6           0        7.449061   -0.899460   -1.894233
    151          8           0        2.852032   -4.064833    1.383392
    152          1           0        1.783295    1.764182    4.096765
 ---------------------------------------------------------------------

 SCF Done:  E(RB3LYP) =  -3587.05128607     A.U. after    1 cycles

 Alpha  occ. eigenvalues --  -19.27494 -19.24263 -19.23415 -19.23334 -19.22406
 Alpha  occ. eigenvalues --  -19.22239 -19.21828 -19.21705 -19.21276 -19.19487
 Alpha  occ. eigenvalues --  -19.18465 -19.18380 -19.15939 -14.48698 -14.48023
 Alpha  occ. eigenvalues --  -14.47809 -14.47234 -14.47189 -14.47105 -14.46624
 Alpha  occ. eigenvalues --  -14.44875 -14.44823 -14.44652 -14.44162 -14.42927
 Alpha  occ. eigenvalues --  -10.43845 -10.41704 -10.39888 -10.39773 -10.39485
 Alpha  occ. eigenvalues --  -10.38389 -10.38373 -10.38159 -10.36555 -10.35657
 Alpha  occ. eigenvalues --  -10.35476 -10.34820 -10.33709 -10.33119 -10.32873
 Alpha  occ. eigenvalues --  -10.32560 -10.31911 -10.31829 -10.30964 -10.30771
 Alpha  occ. eigenvalues --  -10.30255 -10.29984 -10.28308 -10.28219 -10.28204
 Alpha  occ. eigenvalues --  -10.27811 -10.27410 -10.26736 -10.26163 -10.25693
 Alpha  occ. eigenvalues --  -10.25675 -10.25424 -10.25285 -10.25221 -10.25165
 Alpha  occ. eigenvalues --  -10.25161 -10.25096 -10.25052 -10.25051 -10.25021
 Alpha  occ. eigenvalues --  -10.24938 -10.24923 -10.24769 -10.24518 -10.24256
 Alpha  occ. eigenvalues --  -10.23575 -10.23140 -10.23087 -10.22715 -10.21979
 Alpha  occ. eigenvalues --   -1.18409  -1.15641  -1.15381  -1.14351  -1.13635
 Alpha  occ. eigenvalues --   -1.13567  -1.13358  -1.12452  -1.11543  -1.11295
 Alpha  occ. eigenvalues --   -1.10565  -1.10358  -1.09255  -1.04390  -1.04059
 Alpha  occ. eigenvalues --   -1.03545  -1.02632  -1.02520  -1.02047  -1.01669
 Alpha  occ. eigenvalues --   -1.01163  -1.00815  -1.00799  -1.00412  -0.99698
 Alpha  occ. eigenvalues --   -0.92024  -0.91963  -0.90800  -0.89239  -0.88890
 Alpha  occ. eigenvalues --   -0.88627  -0.87934  -0.87165  -0.87057  -0.85672
 Alpha  occ. eigenvalues --   -0.83466  -0.83383  -0.81803  -0.81276  -0.80926
 Alpha  occ. eigenvalues --   -0.80840  -0.80564  -0.79581  -0.78422  -0.78194
 Alpha  occ. eigenvalues --   -0.76795  -0.76494  -0.75705  -0.74278  -0.74112
 Alpha  occ. eigenvalues --   -0.73837  -0.73362  -0.73070  -0.71853  -0.71480
 Alpha  occ. eigenvalues --   -0.70262  -0.69966  -0.69731  -0.69071  -0.69010
 Alpha  occ. eigenvalues --   -0.68775  -0.68433  -0.68039  -0.67588  -0.67387
 Alpha  occ. eigenvalues --   -0.66951  -0.66674  -0.66389  -0.65819  -0.65797
 Alpha  occ. eigenvalues --   -0.65566  -0.65337  -0.65103  -0.64095  -0.63829
 Alpha  occ. eigenvalues --   -0.63379  -0.62651  -0.62036  -0.61687  -0.61318
 Alpha  occ. eigenvalues --   -0.61174  -0.60872  -0.60827  -0.60408  -0.59818
 Alpha  occ. eigenvalues --   -0.59230  -0.58780  -0.58211  -0.58153  -0.57870
 Alpha  occ. eigenvalues --   -0.57741  -0.57360  -0.57090  -0.56743  -0.56508
 Alpha  occ. eigenvalues --   -0.56278  -0.56212  -0.55861  -0.55546  -0.55397
 Alpha  occ. eigenvalues --   -0.54800  -0.54309  -0.54090  -0.54063  -0.53760
 Alpha  occ. eigenvalues --   -0.53518  -0.53438  -0.53024  -0.52928  -0.52815
 Alpha  occ. eigenvalues --   -0.52387  -0.52337  -0.52181  -0.51984  -0.51731
 Alpha  occ. eigenvalues --   -0.51609  -0.51461  -0.51414  -0.51156  -0.50995
 Alpha  occ. eigenvalues --   -0.50456  -0.50339  -0.50099  -0.49815  -0.49740
 Alpha  occ. eigenvalues --   -0.49562  -0.49416  -0.49145  -0.48977  -0.48611
 Alpha  occ. eigenvalues --   -0.48466  -0.48271  -0.48003  -0.47919  -0.47884
 Alpha  occ. eigenvalues --   -0.47605  -0.47453  -0.47379  -0.47224  -0.47028
 Alpha  occ. eigenvalues --   -0.46783  -0.46686  -0.46509  -0.46241  -0.46141
 Alpha  occ. eigenvalues --   -0.46068  -0.45905  -0.45519  -0.45377  -0.45246
 Alpha  occ. eigenvalues --   -0.45041  -0.44994  -0.44654  -0.44150  -0.44095
 Alpha  occ. eigenvalues --   -0.43854  -0.43765  -0.43561  -0.43374  -0.43326
 Alpha  occ. eigenvalues --   -0.43102  -0.43025  -0.42338  -0.42329  -0.42031
 Alpha  occ. eigenvalues --   -0.41883  -0.41839  -0.41683  -0.41562  -0.41519
 Alpha  occ. eigenvalues --   -0.40277  -0.40018  -0.39912  -0.39466  -0.39116
 Alpha  occ. eigenvalues --   -0.39094  -0.39013  -0.38788  -0.38668  -0.38611
 Alpha  occ. eigenvalues --   -0.38478  -0.38470  -0.38305  -0.37995  -0.37853
 Alpha  occ. eigenvalues --   -0.37800  -0.36855  -0.36758  -0.36429  -0.36193
 Alpha  occ. eigenvalues --   -0.35672  -0.35409  -0.35340  -0.35245  -0.34658
 Alpha  occ. eigenvalues --   -0.34405  -0.33712  -0.33547  -0.32835  -0.32775
 Alpha  occ. eigenvalues --   -0.31906  -0.31655  -0.31233  -0.31097  -0.30424
 Alpha  occ. eigenvalues --   -0.29560  -0.28115
 Alpha virt. eigenvalues --   -0.10792  -0.09679  -0.08938  -0.08645  -0.08223
 Alpha virt. eigenvalues --   -0.07889  -0.07236  -0.06831  -0.06652  -0.06560
 Alpha virt. eigenvalues --   -0.06268  -0.05402  -0.05097  -0.04306  -0.03765

 Mulliken charges:
               1
     1  N   -0.807424
     2  H    0.380920
     3  H    0.399962
     4  H    0.463139
     5  C   -0.082125
     6  H    0.180110
     7  C    0.632082
     8  C   -0.094364
     9  H    0.170047
    10  O   -0.542650
    11  C   -0.495096
    12  H    0.175582
    13  H    0.163151
    14  H    0.163360
    15  C   -0.477383
    16  H    0.192998
    17  H    0.147803
    18  H    0.141137
    19  N   -0.598324
    20  H    0.360431
    21  C   -0.057638
    22  H    0.189621
    23  C    0.642344
    24  C   -0.069579
    25  H    0.147845
    26  O   -0.556672
    27  C   -0.259832
    28  H    0.143162
    29  H    0.124535
    30  C   -0.485338
    31  H    0.167755
    32  H    0.150466
    33  H    0.159179
    34  C   -0.480951
    35  H    0.147244
    36  H    0.150678
    37  H    0.187961
    38  N   -0.667482
    39  H    0.384551
    40  C   -0.022143
    41  H    0.190293
    42  C    0.614043
    43  C   -0.385843
    44  H    0.145819
    45  H    0.242420
    46  O   -0.594601
    47  C    0.123900
    48  C   -0.245944
    49  H    0.167014
    50  C   -0.175457
    51  H    0.152969
    52  C   -0.128162
    53  H    0.146920
    54  C   -0.128574
    55  H    0.146275
    56  C   -0.128021
    57  H    0.145282
    58  N   -0.597324
    59  H    0.371704
    60  C   -0.068172
    61  H    0.176677
    62  C    0.630666
    63  C   -0.286478
    64  H    0.150621
    65  H    0.167787
    66  O   -0.532373
    67  C   -0.074500
    68  H    0.130385
    69  C   -0.443851
    70  H    0.145964
    71  H    0.146649
    72  H    0.152197
    73  C   -0.454234
    74  H    0.144034
    75  H    0.155789
    76  H    0.145183
    77  N   -0.617234
    78  H    0.376651
    79  C   -0.050673
    80  H    0.195962
    81  C    0.612038
    82  C   -0.312108
    83  H    0.199816
    84  H    0.159638
    85  O   -0.505849
    86  C   -0.392896
    87  H    0.191475
    88  H    0.221465
    89  C    0.601160
    90  O   -0.467877
    91  O   -0.564244
    92  N   -0.616887
    93  H    0.347800
    94  C   -0.067726
    95  H    0.184234
    96  C    0.629887
    97  C   -0.392565
    98  H    0.192907
    99  H    0.199604
   100  O   -0.528522
   101  C    0.597838
   102  N   -0.712767
   103  H    0.370476
   104  H    0.367860
   105  O   -0.545962
   106  N   -0.596093
   107  H    0.339230
   108  C   -0.069663
   109  H    0.206065
   110  C    0.633086
   111  C   -0.389662
   112  H    0.161420
   113  H    0.177932
   114  O   -0.598710
   115  C    0.174303
   116  C   -0.202646
   117  H    0.132209
   118  C   -0.196801
   119  H    0.127316
   120  C   -0.150218
   121  H    0.166124
   122  C   -0.184280
   123  H    0.146254
   124  O   -0.684061
   125  H    0.445202
   126  C    0.328714
   127  N   -0.573901
   128  H    0.379228
   129  C   -0.095578
   130  H    0.179786
   131  C    0.606103
   132  C   -0.267292
   133  H    0.141313
   134  H    0.195966
   135  O   -0.515397
   136  C   -0.315483
   137  H    0.171030
   138  H    0.168296
   139  C   -0.134510
   140  H    0.169223
   141  H    0.163256
   142  N   -0.624763
   143  H    0.401846
   144  N   -0.789551
   145  H    0.399945
   146  H    0.368755
   147  N   -0.803740
   148  H    0.383274
   149  H    0.392593
   150  C    0.786437
   151  O   -0.661247
   152  H    0.417066
 Sum of Mulliken charges =   1.00000

 Dipole moment (field-independent basis, Debye):
    X=             16.3267    Y=              6.8401    Z=              0.3279  Tot=             17.7047
 Quadrupole moment (field-independent basis, Debye-Ang):
   XX=           -259.0855   YY=           -381.3375   ZZ=           -405.4734
   XY=              8.7188   XZ=            -36.2132   YZ=            -29.1085

 Normal termination of Gaussian 16 at Sat Aug 13 18:46:52 2022.
