 Gaussian 16, Revision C.01,
 Gaussian 16:  ES64L-G16RevC.01  3-Jul-2019

 ----------------------------------------------------------------------
 # B3LYP/6-31G* empiricaldispersion=gd3bj guess=read geom=check nosymm
 integral(ultrafinegrid)
 ----------------------------------------------------------------------

 ------------------------------------------------------
 Candidate Structure: Conf:446 Charge calc in gas phase
 ------------------------------------------------------
 Structure from the checkpoint file:  "conf-446.chk"
 Charge =  1 Multiplicity = 1

                          Input orientation:
 ---------------------------------------------------------------------
 Center     Atomic      Atomic             Coordinates (Angstroms)
 Number     Number       Type             X           Y           Z
 ---------------------------------------------------------------------
      1          7           0      -11.774539   -0.262649    6.916981
      2          1           0      -12.742384    0.050541    7.016653
      3          1           0      -11.680415   -0.912892    6.070897
      4          1           0      -11.497554   -0.748826    7.773600
      5          6           0      -10.814922    0.846332    6.538834
      6          1           0      -11.381595    1.779958    6.508054
      7          6           0      -10.365905    0.426238    5.115243
      8          6           0       -9.642891    0.960144    7.535699
      9          1           0       -9.010900    1.764822    7.139880
     10          8           0      -10.761563   -0.670517    4.687311
     11          6           0      -10.132522    1.385890    8.925805
     12          1           0      -10.743074    0.610090    9.408022
     13          1           0       -9.278509    1.564807    9.584739
     14          1           0      -10.723911    2.306873    8.884504
     15          6           0       -8.792279   -0.316852    7.582944
     16          1           0       -9.346020   -1.178345    7.980640
     17          1           0       -8.406510   -0.589621    6.596353
     18          1           0       -7.936626   -0.163750    8.245716
     19          7           0       -9.574695    1.279415    4.485789
     20          1           0       -9.172694    2.082171    4.975345
     21          6           0       -8.798858    0.979924    3.279427
     22          1           0       -8.796614   -0.104509    3.133448
     23          6           0       -7.390975    1.498937    3.646212
     24          6           0       -9.393832    1.672928    2.023573
     25          1           0       -9.356866    2.755803    2.211849
     26          8           0       -7.282421    2.398745    4.490946
     27          6           0      -10.867605    1.262702    1.839892
     28          1           0      -11.408258    1.457125    2.773454
     29          1           0      -10.918985    0.177988    1.674775
     30          6           0       -8.555965    1.363378    0.775926
     31          1           0       -8.532993    0.284239    0.575702
     32          1           0       -7.525942    1.714431    0.868247
     33          1           0       -8.986114    1.850527   -0.101938
     34          6           0      -11.582175    1.999671    0.703491
     35          1           0      -12.647907    1.749060    0.695278
     36          1           0      -11.495683    3.086574    0.820827
     37          1           0      -11.178651    1.735886   -0.278396
     38          7           0       -6.361050    0.929684    3.016368
     39          1           0       -6.478512    0.188007    2.329011
     40          6           0       -4.977283    1.345910    3.178615
     41          1           0       -4.941054    2.434008    3.278916
     42          6           0       -4.257735    0.874538    1.908921
     43          6           0       -4.346320    0.688917    4.439524
     44          1           0       -4.551538   -0.385502    4.385503
     45          1           0       -4.877871    1.091515    5.308531
     46          8           0       -4.662879   -0.131072    1.315570
     47          6           0       -2.860427    0.931281    4.539166
     48          6           0       -2.362876    2.175199    4.945921
     49          1           0       -3.054051    2.951741    5.267008
     50          6           0       -1.956187   -0.057136    4.133060
     51          1           0       -2.333635   -1.022180    3.803913
     52          6           0       -0.991617    2.429929    4.931622
     53          1           0       -0.620290    3.404067    5.234936
     54          6           0       -0.584129    0.190808    4.128319
     55          1           0        0.103213   -0.585579    3.806344
     56          6           0       -0.099708    1.437991    4.522669
     57          1           0        0.967706    1.637573    4.508316
     58          7           0       -3.184414    1.591830    1.555925
     59          1           0       -2.866061    2.377287    2.116804
     60          6           0       -2.202260    1.126334    0.585686
     61          1           0       -2.154706    0.035464    0.651078
     62          6           0       -0.880804    1.765938    1.029437
     63          6           0       -2.579872    1.563754   -0.845685
     64          1           0       -2.462327    2.652491   -0.899812
     65          1           0       -3.645930    1.343424   -0.980973
     66          8           0       -0.885040    2.885005    1.543049
     67          6           0       -1.772558    0.888754   -1.967313
     68          1           0       -0.706603    0.973235   -1.727517
     69          6           0       -2.154611   -0.591928   -2.111139
     70          1           0       -3.214215   -0.697255   -2.373196
     71          1           0       -2.003519   -1.164260   -1.187041
     72          1           0       -1.582565   -1.074097   -2.915610
     73          6           0       -1.990708    1.628349   -3.292012
     74          1           0       -3.051111    1.629104   -3.576107
     75          1           0       -1.428378    1.154448   -4.104926
     76          1           0       -1.655123    2.667849   -3.217536
     77          7           0        0.235885    1.029389    0.847552
     78          1           0        0.204286    0.191685    0.272521
     79          6           0        1.552721    1.620486    1.003242
     80          1           0        1.470830    2.392664    1.773881
     81          6           0        1.943719    2.286308   -0.334550
     82          6           0        2.503706    0.494907    1.452333
     83          1           0        2.514095   -0.277969    0.684000
     84          1           0        2.051326    0.042125    2.341598
     85          8           0        1.350760    2.023752   -1.372852
     86          6           0        3.944391    0.894519    1.759534
     87          1           0        4.437087    1.325679    0.877442
     88          1           0        4.011583    1.629746    2.570647
     89          6           0        4.772591   -0.313047    2.123400
     90          8           0        4.522970   -1.462117    1.823867
     91          8           0        5.884891    0.030257    2.814806
     92          7           0        2.963806    3.198513   -0.286107
     93          1           0        3.540185    3.204396    0.545299
     94          6           0        3.636560    3.555462   -1.523167
     95          1           0        2.881525    3.547221   -2.308731
     96          6           0        4.723274    2.507110   -1.836668
     97          6           0        4.257062    4.965073   -1.465556
     98          1           0        3.468219    5.688104   -1.239979
     99          1           0        5.019529    5.020267   -0.679373
    100          8           0        5.286715    1.889685   -0.928908
    101          6           0        4.825179    5.248946   -2.856367
    102          7           0        6.171291    5.437431   -2.946813
    103          1           0        6.566958    5.185108   -3.849353
    104          1           0        6.742861    5.193162   -2.149605
    105          8           0        4.087844    5.219786   -3.836440
    106          7           0        5.022925    2.347708   -3.141843
    107          1           0        4.619420    2.974505   -3.830116
    108          6           0        6.021818    1.399929   -3.584621
    109          1           0        6.538948    1.062324   -2.682360
    110          6           0        7.024395    2.103628   -4.514731
    111          6           0        5.357931    0.171118   -4.272019
    112          1           0        5.032773    0.462934   -5.277216
    113          1           0        6.115381   -0.610645   -4.401337
    114          8           0        6.867734    3.273381   -4.881694
    115          6           0        4.175981   -0.338722   -3.481532
    116          6           0        4.342231   -0.984068   -2.249960
    117          1           0        5.342561   -1.178985   -1.873266
    118          6           0        2.872534   -0.097964   -3.925382
    119          1           0        2.715340    0.410011   -4.873247
    120          6           0        3.248738   -1.370430   -1.477798
    121          1           0        3.393866   -1.869205   -0.525361
    122          6           0        1.767338   -0.468855   -3.164412
    123          1           0        0.764456   -0.230883   -3.507998
    124          8           0        0.894647   -1.417029   -1.109421
    125          1           0        0.082314   -1.378227   -1.638175
    126          6           0        1.958742   -1.090789   -1.932063
    127          7           0        8.053878    1.335778   -4.908247
    128          1           0        8.178000    0.373285   -4.602970
    129          6           0        9.062549    1.746544   -5.874282
    130          1           0        8.577954    2.279898   -6.696922
    131          6           0        9.711970    0.437396   -6.390160
    132          6           0       10.078735    2.695303   -5.180144
    133          1           0        9.468708    3.404922   -4.614553
    134          1           0       10.646102    2.108503   -4.445319
    135          8           0       10.258943    0.492319   -7.547690
    136          6           0       11.034490    3.506445   -6.085041
    137          1           0       10.617297    3.596986   -7.095929
    138          1           0       11.111239    4.529654   -5.699939
    139          6           0       12.471154    2.973257   -6.186726
    140          1           0       13.099451    3.699194   -6.717973
    141          1           0       12.887508    2.838985   -5.180815
    142          7           0       12.477506    1.695437   -6.896451
    143          1           0       11.593084    1.470640   -7.403795
    144          7           0       14.175687    0.658500   -5.671050
    145          1           0       14.714710   -0.178396   -5.502793
    146          1           0       14.695459    1.522801   -5.627230
    147          7           0       12.669829   -0.585704   -6.971567
    148          1           0       13.042452   -1.442683   -6.589593
    149          1           0       11.676369   -0.573016   -7.294171
    150          6           0       13.109787    0.590323   -6.509920
    151          8           0        9.707084   -0.539131   -5.621819
    152          1           0        6.380945   -0.798239    2.956092
 ---------------------------------------------------------------------

 SCF Done:  E(RB3LYP) =  -3586.96983747     A.U. after    2 cycles

 Alpha  occ. eigenvalues --  -19.26700 -19.23210 -19.21865 -19.21184 -19.18105
 Alpha  occ. eigenvalues --  -19.17590 -19.16390 -19.16145 -19.15624 -19.14691
 Alpha  occ. eigenvalues --  -19.14568 -19.12395 -19.11810 -14.59495 -14.48852
 Alpha  occ. eigenvalues --  -14.44881 -14.44812 -14.41684 -14.41661 -14.41643
 Alpha  occ. eigenvalues --  -14.40382 -14.40311 -14.39448 -14.38351 -14.38187
 Alpha  occ. eigenvalues --  -10.43152 -10.40240 -10.39359 -10.38210 -10.35785
 Alpha  occ. eigenvalues --  -10.35066 -10.34374 -10.33624 -10.33385 -10.33000
 Alpha  occ. eigenvalues --  -10.32497 -10.32368 -10.31769 -10.30891 -10.30878
 Alpha  occ. eigenvalues --  -10.30636 -10.29857 -10.28663 -10.28497 -10.28256
 Alpha  occ. eigenvalues --  -10.27811 -10.27783 -10.27404 -10.26621 -10.26317
 Alpha  occ. eigenvalues --  -10.26224 -10.25365 -10.25332 -10.24855 -10.24704
 Alpha  occ. eigenvalues --  -10.24342 -10.24267 -10.24244 -10.24190 -10.24160
 Alpha  occ. eigenvalues --  -10.24077 -10.23909 -10.23457 -10.23429 -10.22940
 Alpha  occ. eigenvalues --  -10.22852 -10.22798 -10.22547 -10.22513 -10.21985
 Alpha  occ. eigenvalues --  -10.21885 -10.21805 -10.21755 -10.21228 -10.21022
 Alpha  occ. eigenvalues --   -1.19122  -1.14111  -1.13647  -1.13039  -1.10080
 Alpha  occ. eigenvalues --   -1.09382  -1.08801  -1.08344  -1.08070  -1.07378
 Alpha  occ. eigenvalues --   -1.06449  -1.06376  -1.05842  -1.05333  -1.05012
 Alpha  occ. eigenvalues --   -1.01429  -0.98564  -0.98075  -0.97289  -0.96846
 Alpha  occ. eigenvalues --   -0.96613  -0.96278  -0.96016  -0.95358  -0.94670
 Alpha  occ. eigenvalues --   -0.93482  -0.91301  -0.90571  -0.88316  -0.86654
 Alpha  occ. eigenvalues --   -0.86483  -0.85441  -0.84696  -0.84060  -0.82982
 Alpha  occ. eigenvalues --   -0.82732  -0.81955  -0.81262  -0.80785  -0.79743
 Alpha  occ. eigenvalues --   -0.79361  -0.78622  -0.78421  -0.77622  -0.76949
 Alpha  occ. eigenvalues --   -0.75960  -0.74076  -0.73798  -0.73316  -0.72911
 Alpha  occ. eigenvalues --   -0.72773  -0.71989  -0.71541  -0.71366  -0.70752
 Alpha  occ. eigenvalues --   -0.69783  -0.69691  -0.69075  -0.67940  -0.67069
 Alpha  occ. eigenvalues --   -0.66498  -0.65940  -0.65633  -0.65324  -0.64870
 Alpha  occ. eigenvalues --   -0.64460  -0.64240  -0.63707  -0.63518  -0.63122
 Alpha  occ. eigenvalues --   -0.62400  -0.62239  -0.62105  -0.61799  -0.61671
 Alpha  occ. eigenvalues --   -0.61344  -0.61077  -0.60550  -0.60545  -0.59508
 Alpha  occ. eigenvalues --   -0.59027  -0.58476  -0.57842  -0.57495  -0.57435
 Alpha  occ. eigenvalues --   -0.56976  -0.56664  -0.56263  -0.55914  -0.55683
 Alpha  occ. eigenvalues --   -0.55370  -0.55324  -0.54695  -0.54405  -0.54149
 Alpha  occ. eigenvalues --   -0.53365  -0.53283  -0.52855  -0.52574  -0.52478
 Alpha  occ. eigenvalues --   -0.52269  -0.52133  -0.52090  -0.51918  -0.51775
 Alpha  occ. eigenvalues --   -0.51422  -0.51201  -0.51101  -0.50864  -0.50805
 Alpha  occ. eigenvalues --   -0.50706  -0.50569  -0.50400  -0.50064  -0.49826
 Alpha  occ. eigenvalues --   -0.49633  -0.49266  -0.48702  -0.48528  -0.48285
 Alpha  occ. eigenvalues --   -0.48244  -0.48063  -0.47860  -0.47810  -0.47709
 Alpha  occ. eigenvalues --   -0.47461  -0.47412  -0.47244  -0.47126  -0.46912
 Alpha  occ. eigenvalues --   -0.46608  -0.46560  -0.46125  -0.46085  -0.46042
 Alpha  occ. eigenvalues --   -0.45844  -0.45386  -0.45367  -0.45087  -0.45032
 Alpha  occ. eigenvalues --   -0.44630  -0.44469  -0.44304  -0.44114  -0.43936
 Alpha  occ. eigenvalues --   -0.43872  -0.43696  -0.43427  -0.43239  -0.43163
 Alpha  occ. eigenvalues --   -0.42992  -0.42693  -0.42352  -0.42289  -0.42188
 Alpha  occ. eigenvalues --   -0.42033  -0.41449  -0.41375  -0.41309  -0.41041
 Alpha  occ. eigenvalues --   -0.40724  -0.40655  -0.40612  -0.40394  -0.40305
 Alpha  occ. eigenvalues --   -0.40272  -0.39786  -0.39722  -0.39351  -0.39169
 Alpha  occ. eigenvalues --   -0.39140  -0.38527  -0.38477  -0.38462  -0.38446
 Alpha  occ. eigenvalues --   -0.37874  -0.37735  -0.37095  -0.37061  -0.36681
 Alpha  occ. eigenvalues --   -0.36406  -0.35647  -0.35365  -0.35348  -0.35311
 Alpha  occ. eigenvalues --   -0.34590  -0.32239  -0.32011  -0.31783  -0.31421
 Alpha  occ. eigenvalues --   -0.31215  -0.31110  -0.30607  -0.30445  -0.30200
 Alpha  occ. eigenvalues --   -0.29674  -0.29445  -0.29204  -0.29008  -0.28553
 Alpha  occ. eigenvalues --   -0.28491  -0.28146  -0.27734  -0.27562  -0.26490
 Alpha  occ. eigenvalues --   -0.25979  -0.24988
 Alpha virt. eigenvalues --   -0.12060  -0.11043  -0.07354  -0.06665  -0.05712
 Alpha virt. eigenvalues --   -0.05566  -0.04260  -0.04247  -0.03754  -0.03534
 Alpha virt. eigenvalues --   -0.02766  -0.02423  -0.02160  -0.02136  -0.02103

 Mulliken charges:
               1
     1  N   -0.763637
     2  H    0.415232
     3  H    0.436106
     4  H    0.408855
     5  C   -0.101821
     6  H    0.215151
     7  C    0.646959
     8  C   -0.130536
     9  H    0.197148
    10  O   -0.547354
    11  C   -0.462885
    12  H    0.138051
    13  H    0.200347
    14  H    0.172409
    15  C   -0.475332
    16  H    0.140680
    17  H    0.187554
    18  H    0.199409
    19  N   -0.591460
    20  H    0.374200
    21  C   -0.085287
    22  H    0.184245
    23  C    0.632093
    24  C   -0.070377
    25  H    0.142423
    26  O   -0.562768
    27  C   -0.251170
    28  H    0.121040
    29  H    0.148750
    30  C   -0.480951
    31  H    0.154017
    32  H    0.169518
    33  H    0.175266
    34  C   -0.454069
    35  H    0.155680
    36  H    0.150702
    37  H    0.163344
    38  N   -0.609512
    39  H    0.364325
    40  C   -0.041943
    41  H    0.181146
    42  C    0.618385
    43  C   -0.350125
    44  H    0.155113
    45  H    0.165599
    46  O   -0.562353
    47  C    0.153856
    48  C   -0.202449
    49  H    0.129553
    50  C   -0.184599
    51  H    0.135647
    52  C   -0.105443
    53  H    0.141549
    54  C   -0.129590
    55  H    0.146446
    56  C   -0.123528
    57  H    0.134488
    58  N   -0.606814
    59  H    0.365614
    60  C   -0.048977
    61  H    0.166456
    62  C    0.636425
    63  C   -0.255711
    64  H    0.156117
    65  H    0.149936
    66  O   -0.550940
    67  C   -0.115629
    68  H    0.177711
    69  C   -0.488128
    70  H    0.158808
    71  H    0.147337
    72  H    0.145299
    73  C   -0.446966
    74  H    0.136235
    75  H    0.145971
    76  H    0.160300
    77  N   -0.612781
    78  H    0.364084
    79  C   -0.093503
    80  H    0.181899
    81  C    0.639863
    82  C   -0.285594
    83  H    0.194878
    84  H    0.158286
    85  O   -0.506677
    86  C   -0.424027
    87  H    0.250868
    88  H    0.155600
    89  C    0.594946
    90  O   -0.468455
    91  O   -0.568305
    92  N   -0.595914
    93  H    0.334048
    94  C   -0.072321
    95  H    0.217681
    96  C    0.614645
    97  C   -0.348142
    98  H    0.191546
    99  H    0.140511
   100  O   -0.548539
   101  C    0.563121
   102  N   -0.723653
   103  H    0.376583
   104  H    0.327897
   105  O   -0.512426
   106  N   -0.585527
   107  H    0.366717
   108  C   -0.071951
   109  H    0.193151
   110  C    0.627302
   111  C   -0.371932
   112  H    0.157625
   113  H    0.164438
   114  O   -0.564657
   115  C    0.184066
   116  C   -0.180340
   117  H    0.133154
   118  C   -0.196627
   119  H    0.130614
   120  C   -0.191004
   121  H    0.177513
   122  C   -0.160678
   123  H    0.134035
   124  O   -0.687955
   125  H    0.429329
   126  C    0.334967
   127  N   -0.614444
   128  H    0.355056
   129  C   -0.022120
   130  H    0.167636
   131  C    0.585099
   132  C   -0.273380
   133  H    0.164906
   134  H    0.139139
   135  O   -0.646370
   136  C   -0.302762
   137  H    0.173161
   138  H    0.155159
   139  C   -0.149372
   140  H    0.164075
   141  H    0.156038
   142  N   -0.601409
   143  H    0.406643
   144  N   -0.753311
   145  H    0.359610
   146  H    0.365727
   147  N   -0.755587
   148  H    0.344809
   149  H    0.413037
   150  C    0.753110
   151  O   -0.563617
   152  H    0.409668
 Sum of Mulliken charges =   1.00000

 Dipole moment (field-independent basis, Debye):
    X=            -23.9658    Y=              3.4558    Z=             24.9902  Tot=             34.7967
 Quadrupole moment (field-independent basis, Debye-Ang):
   XX=            385.3999   YY=           -443.9177   ZZ=           -241.5355
   XY=             14.0854   XZ=           -372.5053   YZ=             12.1920

 Normal termination of Gaussian 16 at Sat Aug 13 18:46:59 2022.
