 Gaussian 16, Revision C.01,
 Gaussian 16:  ES64L-G16RevC.01  3-Jul-2019

 ----------------------------------------------------------------------
 # B3LYP/6-31G* empiricaldispersion=gd3bj guess=read geom=check nosymm
 integral(ultrafinegrid)
 ----------------------------------------------------------------------

 ------------------------------------------------------
 Candidate Structure: Conf:831 Charge calc in gas phase
 ------------------------------------------------------
 Structure from the checkpoint file:  "conf-831.chk"
 Charge =  1 Multiplicity = 1

                          Input orientation:
 ---------------------------------------------------------------------
 Center     Atomic      Atomic             Coordinates (Angstroms)
 Number     Number       Type             X           Y           Z
 ---------------------------------------------------------------------
      1          7           0       -8.611850    1.223336    7.539862
      2          1           0       -9.304982    0.587325    7.941565
      3          1           0       -7.823576    0.652792    7.109492
      4          1           0       -8.251571    1.836849    8.275088
      5          6           0       -9.128477    1.998233    6.342410
      6          1           0      -10.215737    1.891176    6.313081
      7          6           0       -8.466028    1.248190    5.162664
      8          6           0       -8.742720    3.492997    6.482767
      9          1           0       -9.242547    3.823457    7.406090
     10          8           0       -7.578706    0.427255    5.425882
     11          6           0       -7.228509    3.702807    6.619921
     12          1           0       -6.701668    3.403967    5.710052
     13          1           0       -7.028350    4.764563    6.790712
     14          1           0       -6.780571    3.159986    7.459594
     15          6           0       -9.304907    4.332277    5.326177
     16          1           0       -8.711052    4.183785    4.419699
     17          1           0      -10.362444    4.114078    5.128716
     18          1           0       -9.238792    5.391936    5.587748
     19          7           0       -8.889753    1.523199    3.925627
     20          1           0       -9.510074    2.313453    3.804793
     21          6           0       -8.038586    1.192733    2.775023
     22          1           0       -7.857076    0.113867    2.790998
     23          6           0       -6.715331    1.960074    2.961771
     24          6           0       -8.758500    1.588571    1.466410
     25          1           0       -9.023215    2.653518    1.562945
     26          8           0       -6.718722    3.099724    3.428913
     27          6           0      -10.052312    0.767344    1.298695
     28          1           0      -10.611879    0.770459    2.243014
     29          1           0       -9.778595   -0.280527    1.113554
     30          6           0       -7.825457    1.444581    0.256391
     31          1           0       -7.462192    0.415422    0.150857
     32          1           0       -6.952818    2.098524    0.325447
     33          1           0       -8.355552    1.703518   -0.662988
     34          6           0      -10.968675    1.271202    0.180528
     35          1           0      -11.896996    0.692045    0.154405
     36          1           0      -11.235820    2.324041    0.331965
     37          1           0      -10.501591    1.183764   -0.804868
     38          7           0       -5.607363    1.295936    2.584565
     39          1           0       -5.693497    0.451549    2.025527
     40          6           0       -4.318351    1.945620    2.443392
     41          1           0       -4.468353    3.017789    2.592420
     42          6           0       -3.832395    1.637151    1.018064
     43          6           0       -3.287073    1.408324    3.467246
     44          1           0       -2.329378    1.907114    3.277938
     45          1           0       -3.135422    0.342666    3.260694
     46          8           0       -4.273175    0.656250    0.416006
     47          6           0       -3.695876    1.601525    4.908074
     48          6           0       -3.395065    2.792035    5.582870
     49          1           0       -2.878367    3.590059    5.055195
     50          6           0       -4.358863    0.585920    5.604713
     51          1           0       -4.608009   -0.338594    5.093078
     52          6           0       -3.718593    2.952686    6.929070
     53          1           0       -3.455211    3.873256    7.441693
     54          6           0       -4.680205    0.739314    6.954472
     55          1           0       -5.153783   -0.082159    7.487281
     56          6           0       -4.351464    1.918538    7.623996
     57          1           0       -4.563658    2.027393    8.684804
     58          7           0       -2.906868    2.484303    0.529949
     59          1           0       -2.468337    3.168315    1.140803
     60          6           0       -2.143384    2.225198   -0.680703
     61          1           0       -2.248658    1.164061   -0.923105
     62          6           0       -0.683835    2.553256   -0.334186
     63          6           0       -2.616255    3.092977   -1.865391
     64          1           0       -1.955002    2.901435   -2.721314
     65          1           0       -2.470274    4.144657   -1.585826
     66          8           0       -0.405755    3.266080    0.632402
     67          6           0       -4.075893    2.868940   -2.293485
     68          1           0       -4.709845    3.005450   -1.405987
     69          6           0       -4.474726    3.928260   -3.328987
     70          1           0       -3.864850    3.836990   -4.236546
     71          1           0       -4.343247    4.943908   -2.937910
     72          1           0       -5.523611    3.812180   -3.623136
     73          6           0       -4.310445    1.454186   -2.836939
     74          1           0       -3.649195    1.249386   -3.689031
     75          1           0       -5.342453    1.346457   -3.189524
     76          1           0       -4.145753    0.693761   -2.069207
     77          7           0        0.242361    2.048747   -1.174075
     78          1           0       -0.001024    1.415180   -1.928161
     79          6           0        1.664418    2.284675   -0.998860
     80          1           0        1.812851    3.332976   -0.727658
     81          6           0        2.322381    1.954369   -2.337796
     82          6           0        2.223298    1.365972    0.116771
     83          1           0        2.029673    0.328487   -0.175424
     84          1           0        1.646214    1.576874    1.021610
     85          8           0        1.845696    1.070976   -3.058185
     86          6           0        3.727978    1.512186    0.423798
     87          1           0        3.988278    0.802606    1.212644
     88          1           0        4.330390    1.277667   -0.457634
     89          6           0        4.062940    2.888967    0.946838
     90          8           0        4.042945    3.240825    2.098789
     91          8           0        4.365889    3.767755   -0.066710
     92          7           0        3.450366    2.635527   -2.636022
     93          1           0        3.851080    3.238100   -1.921437
     94          6           0        4.300288    2.233760   -3.755411
     95          1           0        3.624913    1.846589   -4.523942
     96          6           0        5.244784    1.083184   -3.339671
     97          6           0        5.083960    3.421988   -4.287382
     98          1           0        4.383687    4.201147   -4.610834
     99          1           0        5.709955    3.852936   -3.501416
    100          8           0        6.466188    1.228176   -3.289184
    101          6           0        6.012997    3.145039   -5.459549
    102          7           0        5.800054    2.066049   -6.235845
    103          1           0        6.461650    1.929189   -6.990700
    104          1           0        5.382827    1.190825   -5.900763
    105          8           0        6.913623    3.974397   -5.691846
    106          7           0        4.589365   -0.068352   -3.055948
    107          1           0        3.601236   -0.064731   -3.296438
    108          6           0        5.255314   -1.353760   -3.212767
    109          1           0        6.052046   -1.442819   -2.469884
    110          6           0        5.887482   -1.404488   -4.632214
    111          6           0        4.210018   -2.474898   -2.969287
    112          1           0        3.778034   -2.304418   -1.974370
    113          1           0        3.403008   -2.363649   -3.704865
    114          8           0        5.455431   -0.659226   -5.533327
    115          6           0        4.860294   -3.826020   -3.085239
    116          6           0        4.811612   -4.535156   -4.290169
    117          1           0        4.122899   -4.217115   -5.070085
    118          6           0        5.746393   -4.256385   -2.088680
    119          1           0        5.776762   -3.731530   -1.134710
    120          6           0        5.716807   -5.559556   -4.548543
    121          1           0        5.751207   -6.048042   -5.516831
    122          6           0        6.655972   -5.279007   -2.339334
    123          1           0        7.405503   -5.560649   -1.606809
    124          8           0        7.770478   -6.645792   -3.955485
    125          1           0        8.354990   -5.990481   -4.435899
    126          6           0        6.705688   -5.869736   -3.607715
    127          7           0        6.892298   -2.262479   -4.799060
    128          1           0        7.177457   -2.927657   -4.077972
    129          6           0        7.554236   -2.525010   -6.075902
    130          1           0        6.802955   -2.579509   -6.866367
    131          6           0        8.326795   -3.885945   -6.002639
    132          6           0        8.564871   -1.415958   -6.407647
    133          1           0        9.084850   -1.724627   -7.322075
    134          1           0        8.024856   -0.483593   -6.618351
    135          8           0        8.606642   -4.267841   -4.818838
    136          6           0        9.558053   -1.208341   -5.259053
    137          1           0        9.005583   -0.880072   -4.368889
    138          1           0        9.993369   -2.171242   -4.971957
    139          6           0       10.704949   -0.243072   -5.583456
    140          1           0       11.185902    0.130771   -4.673298
    141          1           0       11.472716   -0.754149   -6.168264
    142          7           0       10.316165    0.920938   -6.403936
    143          1           0       10.469650    0.836566   -7.399173
    144          7           0        8.920606    1.882043   -4.802182
    145          1           0        8.267726    2.626210   -4.585210
    146          1           0        8.736971    1.012423   -4.318733
    147          7           0        9.133185    2.858565   -6.883698
    148          1           0        8.359091    3.490040   -6.628875
    149          1           0        9.718832    3.061575   -7.679901
    150          6           0        9.453857    1.872419   -6.031549
    151          8           0        8.629657   -4.380372   -7.092928
    152          1           0        4.531947    4.631688    0.357565
 ---------------------------------------------------------------------

 SCF Done:  E(RB3LYP) =  -3586.95586682     A.U. after    3 cycles

 Alpha  occ. eigenvalues --  -19.28051 -19.27139 -19.21581 -19.21528 -19.20593
 Alpha  occ. eigenvalues --  -19.20377 -19.19793 -19.19648 -19.19171 -19.15432
 Alpha  occ. eigenvalues --  -19.12631 -19.08041 -19.06633 -14.59744 -14.49705
 Alpha  occ. eigenvalues --  -14.45952 -14.45383 -14.44783 -14.44703 -14.44574
 Alpha  occ. eigenvalues --  -14.44193 -14.44063 -14.42057 -14.41449 -14.38048
 Alpha  occ. eigenvalues --  -10.43552 -10.41635 -10.40439 -10.39719 -10.38573
 Alpha  occ. eigenvalues --  -10.37455 -10.37326 -10.37170 -10.36785 -10.35542
 Alpha  occ. eigenvalues --  -10.34244 -10.33898 -10.32252 -10.32160 -10.31716
 Alpha  occ. eigenvalues --  -10.31200 -10.30998 -10.29776 -10.29493 -10.29461
 Alpha  occ. eigenvalues --  -10.28570 -10.28045 -10.27950 -10.27904 -10.27597
 Alpha  occ. eigenvalues --  -10.27577 -10.27508 -10.27460 -10.27422 -10.27348
 Alpha  occ. eigenvalues --  -10.27177 -10.27037 -10.27023 -10.26325 -10.25807
 Alpha  occ. eigenvalues --  -10.25631 -10.25597 -10.25236 -10.23933 -10.23707
 Alpha  occ. eigenvalues --  -10.23225 -10.23032 -10.22693 -10.22656 -10.21799
 Alpha  occ. eigenvalues --  -10.20775 -10.20462 -10.20137 -10.19147 -10.18760
 Alpha  occ. eigenvalues --   -1.19691  -1.18188  -1.14045  -1.13422  -1.12822
 Alpha  occ. eigenvalues --   -1.12311  -1.11453  -1.11272  -1.10520  -1.10196
 Alpha  occ. eigenvalues --   -1.09298  -1.06587  -1.06448  -1.02275  -1.01838
 Alpha  occ. eigenvalues --   -1.01472  -1.01099  -1.00648  -1.00589  -0.99809
 Alpha  occ. eigenvalues --   -0.98531  -0.97983  -0.97352  -0.94846  -0.94715
 Alpha  occ. eigenvalues --   -0.93862  -0.92024  -0.91504  -0.89184  -0.88225
 Alpha  occ. eigenvalues --   -0.87218  -0.87000  -0.86231  -0.86097  -0.84270
 Alpha  occ. eigenvalues --   -0.83878  -0.83243  -0.82595  -0.82006  -0.81670
 Alpha  occ. eigenvalues --   -0.80550  -0.79993  -0.79433  -0.78307  -0.76428
 Alpha  occ. eigenvalues --   -0.75575  -0.75279  -0.75117  -0.74080  -0.73997
 Alpha  occ. eigenvalues --   -0.73783  -0.73391  -0.73128  -0.72718  -0.71897
 Alpha  occ. eigenvalues --   -0.71333  -0.70344  -0.69092  -0.68840  -0.68690
 Alpha  occ. eigenvalues --   -0.68284  -0.67954  -0.67796  -0.67300  -0.67218
 Alpha  occ. eigenvalues --   -0.66705  -0.66563  -0.66033  -0.65623  -0.65347
 Alpha  occ. eigenvalues --   -0.64915  -0.64256  -0.63714  -0.62649  -0.62498
 Alpha  occ. eigenvalues --   -0.62147  -0.62094  -0.61618  -0.60853  -0.60518
 Alpha  occ. eigenvalues --   -0.59536  -0.59484  -0.59233  -0.59149  -0.58748
 Alpha  occ. eigenvalues --   -0.58587  -0.58317  -0.57982  -0.57628  -0.56876
 Alpha  occ. eigenvalues --   -0.56719  -0.56182  -0.56099  -0.56066  -0.55592
 Alpha  occ. eigenvalues --   -0.55322  -0.55277  -0.54459  -0.54320  -0.54257
 Alpha  occ. eigenvalues --   -0.53998  -0.53982  -0.53797  -0.53344  -0.53132
 Alpha  occ. eigenvalues --   -0.53091  -0.52880  -0.52609  -0.52464  -0.52311
 Alpha  occ. eigenvalues --   -0.51693  -0.51505  -0.51403  -0.51270  -0.51032
 Alpha  occ. eigenvalues --   -0.50813  -0.50515  -0.50186  -0.49893  -0.49859
 Alpha  occ. eigenvalues --   -0.49632  -0.49348  -0.49251  -0.49115  -0.49035
 Alpha  occ. eigenvalues --   -0.48678  -0.48441  -0.48143  -0.48103  -0.47888
 Alpha  occ. eigenvalues --   -0.47774  -0.47516  -0.47320  -0.47245  -0.47149
 Alpha  occ. eigenvalues --   -0.47113  -0.46671  -0.46589  -0.46555  -0.46411
 Alpha  occ. eigenvalues --   -0.46232  -0.45837  -0.45729  -0.45614  -0.45343
 Alpha  occ. eigenvalues --   -0.45144  -0.44972  -0.44724  -0.44587  -0.44582
 Alpha  occ. eigenvalues --   -0.44154  -0.44046  -0.43600  -0.43588  -0.43363
 Alpha  occ. eigenvalues --   -0.43162  -0.43014  -0.42777  -0.42551  -0.42320
 Alpha  occ. eigenvalues --   -0.42219  -0.42121  -0.42115  -0.41859  -0.41769
 Alpha  occ. eigenvalues --   -0.41221  -0.41192  -0.40884  -0.40115  -0.39739
 Alpha  occ. eigenvalues --   -0.39674  -0.39292  -0.39043  -0.38742  -0.38672
 Alpha  occ. eigenvalues --   -0.38133  -0.38001  -0.37740  -0.37045  -0.36699
 Alpha  occ. eigenvalues --   -0.36226  -0.35772  -0.35753  -0.35527  -0.35168
 Alpha  occ. eigenvalues --   -0.35026  -0.34926  -0.34697  -0.34564  -0.34284
 Alpha  occ. eigenvalues --   -0.34159  -0.33897  -0.33605  -0.33273  -0.33073
 Alpha  occ. eigenvalues --   -0.32855  -0.32712  -0.32379  -0.31311  -0.29545
 Alpha  occ. eigenvalues --   -0.28666  -0.26683  -0.25928  -0.24170  -0.23104
 Alpha  occ. eigenvalues --   -0.22016  -0.20867
 Alpha virt. eigenvalues --   -0.12809  -0.10965  -0.09006  -0.08403  -0.07842
 Alpha virt. eigenvalues --   -0.07605  -0.07030  -0.06563  -0.06386  -0.05985
 Alpha virt. eigenvalues --   -0.05715  -0.05488  -0.05102  -0.04537  -0.02246

 Mulliken charges:
               1
     1  N   -0.764447
     2  H    0.414034
     3  H    0.441000
     4  H    0.412750
     5  C   -0.118131
     6  H    0.208837
     7  C    0.668269
     8  C   -0.101722
     9  H    0.154465
    10  O   -0.536123
    11  C   -0.496351
    12  H    0.237139
    13  H    0.181460
    14  H    0.127592
    15  C   -0.502801
    16  H    0.207968
    17  H    0.147764
    18  H    0.189550
    19  N   -0.591607
    20  H    0.356261
    21  C   -0.049709
    22  H    0.181209
    23  C    0.630704
    24  C   -0.111368
    25  H    0.139240
    26  O   -0.543807
    27  C   -0.259178
    28  H    0.130235
    29  H    0.149631
    30  C   -0.479861
    31  H    0.162931
    32  H    0.171444
    33  H    0.172987
    34  C   -0.452532
    35  H    0.163776
    36  H    0.146949
    37  H    0.164456
    38  N   -0.581619
    39  H    0.358975
    40  C   -0.081518
    41  H    0.191498
    42  C    0.631318
    43  C   -0.372650
    44  H    0.173759
    45  H    0.168144
    46  O   -0.540201
    47  C    0.183874
    48  C   -0.174088
    49  H    0.139088
    50  C   -0.156141
    51  H    0.136685
    52  C   -0.127176
    53  H    0.144983
    54  C   -0.145925
    55  H    0.120484
    56  C   -0.147836
    57  H    0.127390
    58  N   -0.595599
    59  H    0.355456
    60  C   -0.083985
    61  H    0.186120
    62  C    0.631244
    63  C   -0.250832
    64  H    0.143353
    65  H    0.144648
    66  O   -0.547855
    67  C   -0.070378
    68  H    0.127836
    69  C   -0.444365
    70  H    0.147548
    71  H    0.142296
    72  H    0.146926
    73  C   -0.466503
    74  H    0.138446
    75  H    0.143646
    76  H    0.177263
    77  N   -0.620503
    78  H    0.360036
    79  C   -0.038482
    80  H    0.182699
    81  C    0.617528
    82  C   -0.284725
    83  H    0.170764
    84  H    0.194712
    85  O   -0.555653
    86  C   -0.367082
    87  H    0.197092
    88  H    0.188867
    89  C    0.582325
    90  O   -0.430659
    91  O   -0.591814
    92  N   -0.632570
    93  H    0.383508
    94  C   -0.093632
    95  H    0.206584
    96  C    0.632604
    97  C   -0.354355
    98  H    0.194361
    99  H    0.182739
   100  O   -0.556869
   101  C    0.606898
   102  N   -0.761685
   103  H    0.341813
   104  H    0.422452
   105  O   -0.576336
   106  N   -0.620525
   107  H    0.373469
   108  C   -0.039246
   109  H    0.174029
   110  C    0.630538
   111  C   -0.380508
   112  H    0.145718
   113  H    0.154795
   114  O   -0.600872
   115  C    0.142782
   116  C   -0.184730
   117  H    0.120856
   118  C   -0.209347
   119  H    0.105996
   120  C   -0.163212
   121  H    0.149329
   122  C   -0.152712
   123  H    0.133150
   124  O   -0.701615
   125  H    0.443440
   126  C    0.366579
   127  N   -0.593573
   128  H    0.375003
   129  C   -0.034556
   130  H    0.158013
   131  C    0.586863
   132  C   -0.277365
   133  H    0.160077
   134  H    0.112879
   135  O   -0.644682
   136  C   -0.318900
   137  H    0.145613
   138  H    0.214222
   139  C   -0.169212
   140  H    0.183039
   141  H    0.187282
   142  N   -0.583994
   143  H    0.355575
   144  N   -0.762260
   145  H    0.387493
   146  H    0.397997
   147  N   -0.802822
   148  H    0.414424
   149  H    0.357709
   150  C    0.775787
   151  O   -0.563482
   152  H    0.423014
 Sum of Mulliken charges =   1.00000

 Dipole moment (field-independent basis, Debye):
    X=            -33.3443    Y=             25.6927    Z=             22.7617  Tot=             47.8545
 Quadrupole moment (field-independent basis, Debye-Ang):
   XX=            -45.0627   YY=           -483.9712   ZZ=           -231.4739
   XY=             78.9053   XZ=           -261.9479   YZ=            -59.2254

 Normal termination of Gaussian 16 at Sat Aug 13 18:49:02 2022.
