 Gaussian 16, Revision C.01,
 Gaussian 16:  ES64L-G16RevC.01  3-Jul-2019

 ----------------------------------------------------------------------
 # B3LYP/6-31G* empiricaldispersion=gd3bj guess=read geom=check nosymm
 integral(ultrafinegrid)
 ----------------------------------------------------------------------

 ------------------------------------------------------
 Candidate Structure: Conf:779 Charge calc in gas phase
 ------------------------------------------------------
 Structure from the checkpoint file:  "conf-779.chk"
 Charge =  1 Multiplicity = 1

                          Input orientation:
 ---------------------------------------------------------------------
 Center     Atomic      Atomic             Coordinates (Angstroms)
 Number     Number       Type             X           Y           Z
 ---------------------------------------------------------------------
      1          7           0      -11.372761    3.279768    4.009474
      2          1           0      -11.970217    3.362246    3.183185
      3          1           0      -11.340578    2.256585    4.322925
      4          1           0      -11.746054    3.881284    4.748269
      5          6           0       -9.908249    3.541477    3.717230
      6          1           0       -9.835352    3.982703    2.720746
      7          6           0       -9.317327    2.107290    3.744994
      8          6           0       -9.311088    4.498567    4.776488
      9          1           0       -9.976051    5.375520    4.785956
     10          8           0      -10.034671    1.203800    4.210945
     11          6           0       -9.290383    3.872636    6.177951
     12          1           0       -8.610407    3.015579    6.215205
     13          1           0       -8.940075    4.609445    6.905668
     14          1           0      -10.275729    3.528403    6.515832
     15          6           0       -7.918342    4.996148    4.363035
     16          1           0       -7.159436    4.210971    4.426323
     17          1           0       -7.915705    5.400854    3.344596
     18          1           0       -7.609423    5.800173    5.036819
     19          7           0       -8.085813    1.963119    3.291745
     20          1           0       -7.524353    2.750586    2.965360
     21          6           0       -7.313215    0.723142    3.343071
     22          1           0       -7.573470    0.197891    4.265455
     23          6           0       -5.854884    1.207235    3.380143
     24          6           0       -7.638059   -0.182521    2.118350
     25          1           0       -8.726566   -0.323928    2.172024
     26          8           0       -5.581836    2.360410    3.032480
     27          6           0       -6.983264   -1.574388    2.193614
     28          1           0       -5.903429   -1.475163    2.032230
     29          1           0       -7.353068   -2.139901    1.329951
     30          6           0       -7.278264    0.503448    0.795237
     31          1           0       -6.194272    0.591247    0.684731
     32          1           0       -7.720107    1.502754    0.713972
     33          1           0       -7.650769   -0.091865   -0.044417
     34          6           0       -7.290604   -2.374984    3.464206
     35          1           0       -6.906960   -3.396307    3.379106
     36          1           0       -6.843329   -1.942809    4.369858
     37          1           0       -8.370525   -2.437685    3.642683
     38          7           0       -4.930318    0.322417    3.799798
     39          1           0       -5.219055   -0.639538    3.917040
     40          6           0       -3.512355    0.548101    3.528902
     41          1           0       -3.201157    1.461557    4.043255
     42          6           0       -3.309156    0.692941    2.010257
     43          6           0       -2.700989   -0.656734    4.045277
     44          1           0       -3.109907   -1.560644    3.577085
     45          1           0       -2.854110   -0.739789    5.127522
     46          8           0       -3.890159   -0.072184    1.236026
     47          6           0       -1.232408   -0.530034    3.716237
     48          6           0       -0.724598   -1.073702    2.529715
     49          1           0       -1.390874   -1.618106    1.865140
     50          6           0       -0.373587    0.187055    4.555411
     51          1           0       -0.758380    0.612951    5.479793
     52          6           0        0.618567   -0.909673    2.195581
     53          1           0        1.003635   -1.337690    1.274454
     54          6           0        0.970622    0.351066    4.220900
     55          1           0        1.627615    0.906019    4.884292
     56          6           0        1.473624   -0.201095    3.042378
     57          1           0        2.519802   -0.084101    2.779106
     58          7           0       -2.457487    1.660208    1.638615
     59          1           0       -1.903559    2.157565    2.330895
     60          6           0       -1.972832    1.828789    0.280479
     61          1           0       -2.071648    0.872587   -0.240796
     62          6           0       -0.499604    2.240590    0.402395
     63          6           0       -2.736221    2.941683   -0.471305
     64          1           0       -2.267005    3.077746   -1.455350
     65          1           0       -2.577287    3.874053    0.085664
     66          8           0       -0.088256    2.816312    1.410671
     67          6           0       -4.242825    2.700103   -0.654710
     68          1           0       -4.670363    2.483407    0.332492
     69          6           0       -4.907931    3.977274   -1.184021
     70          1           0       -4.507635    4.252195   -2.168048
     71          1           0       -4.743935    4.824600   -0.507673
     72          1           0       -5.989616    3.836244   -1.296660
     73          6           0       -4.523807    1.513492   -1.584079
     74          1           0       -4.059081    1.669878   -2.566306
     75          1           0       -5.601765    1.395567   -1.745762
     76          1           0       -4.151531    0.577373   -1.160507
     77          7           0        0.259189    1.996011   -0.683437
     78          1           0       -0.096103    1.494281   -1.491006
     79          6           0        1.633748    2.445735   -0.804462
     80          1           0        1.699852    3.471731   -0.422493
     81          6           0        1.956007    2.398585   -2.301859
     82          6           0        2.582553    1.538337    0.013196
     83          1           0        2.556628    0.532022   -0.417041
     84          1           0        2.165743    1.479910    1.020121
     85          8           0        1.362865    1.633038   -3.054403
     86          6           0        4.026168    2.033524    0.071377
     87          1           0        4.478123    2.037620   -0.924648
     88          1           0        4.085147    3.054922    0.475008
     89          6           0        4.900001    1.160244    0.936328
     90          8           0        4.538773    0.249753    1.650764
     91          8           0        6.208433    1.510295    0.826775
     92          7           0        2.935228    3.243340   -2.728956
     93          1           0        3.475650    3.711345   -2.013561
     94          6           0        3.623378    2.972330   -3.979366
     95          1           0        2.909537    3.008246   -4.804361
     96          6           0        4.297133    1.584311   -3.922477
     97          6           0        4.704094    4.050280   -4.198102
     98          1           0        4.218201    5.031039   -4.240636
     99          1           0        5.401055    4.049669   -3.351176
    100          8           0        4.584997    1.064550   -2.840125
    101          6           0        5.430258    3.809592   -5.521507
    102          7           0        6.784384    3.791314   -5.462380
    103          1           0        7.261769    3.354570   -6.244264
    104          1           0        7.235434    3.644693   -4.569317
    105          8           0        4.791650    3.627067   -6.556241
    106          7           0        4.627983    1.039713   -5.114984
    107          1           0        4.492252    1.605734   -5.948914
    108          6           0        5.644557   -0.017131   -5.163096
    109          1           0        5.445049   -0.670335   -4.312190
    110          6           0        7.033701    0.642000   -4.985519
    111          6           0        5.580780   -0.843911   -6.451988
    112          1           0        4.541526   -1.153237   -6.611916
    113          1           0        5.888989   -0.218526   -7.295045
    114          8           0        7.704487    1.013668   -5.943451
    115          6           0        6.495515   -2.042142   -6.310804
    116          6           0        7.789008   -2.029460   -6.837866
    117          1           0        8.112677   -1.181505   -7.430644
    118          6           0        6.108862   -3.126646   -5.513824
    119          1           0        5.100458   -3.163834   -5.107695
    120          6           0        8.694195   -3.044890   -6.541655
    121          1           0        9.710260   -3.013897   -6.920050
    122          6           0        7.009772   -4.139495   -5.192402
    123          1           0        6.712225   -4.958203   -4.540190
    124          8           0        9.293964   -4.975312   -5.272829
    125          1           0        8.902986   -5.861028   -5.202469
    126          6           0        8.309471   -4.072116   -5.691124
    127          7           0        7.376280    0.867299   -3.685412
    128          1           0        6.722788    0.499490   -3.004810
    129          6           0        8.771891    0.970543   -3.271174
    130          1           0        9.184388    1.950195   -3.530743
    131          6           0        9.639854   -0.139171   -3.924184
    132          6           0        8.839816    0.771434   -1.740443
    133          1           0        9.855103    1.031509   -1.421676
    134          1           0        8.164695    1.489015   -1.258902
    135          8           0       10.898009    0.053297   -3.859701
    136          6           0        8.475175   -0.666589   -1.276261
    137          1           0        7.766444   -0.614000   -0.440491
    138          1           0        7.977054   -1.202518   -2.091285
    139          6           0        9.669950   -1.510443   -0.792182
    140          1           0       10.188614   -0.989833    0.020116
    141          1           0        9.322315   -2.456728   -0.363585
    142          7           0       10.682745   -1.791929   -1.809561
    143          1           0       11.126118   -0.954585   -2.202952
    144          7           0        9.840089   -3.859487   -2.566234
    145          1           0        9.619004   -4.382049   -3.414454
    146          1           0        9.110247   -3.828769   -1.871237
    147          7           0       11.416645   -2.668739   -3.802533
    148          1           0       11.185803   -3.297509   -4.563213
    149          1           0       11.510920   -1.675095   -4.099722
    150          6           0       10.599520   -2.760216   -2.738043
    151          8           0        9.044558   -1.170689   -4.289402
    152          1           0        6.698609    0.922742    1.432056
 ---------------------------------------------------------------------

 SCF Done:  E(RB3LYP) =  -3586.97247209     A.U. after    1 cycles

 Alpha  occ. eigenvalues --  -19.26766 -19.25240 -19.23572 -19.22136 -19.19743
 Alpha  occ. eigenvalues --  -19.18257 -19.18138 -19.17589 -19.17529 -19.16307
 Alpha  occ. eigenvalues --  -19.14686 -19.11129 -19.10585 -14.59784 -14.49204
 Alpha  occ. eigenvalues --  -14.45612 -14.42417 -14.42206 -14.41969 -14.41772
 Alpha  occ. eigenvalues --  -14.41324 -14.41058 -14.40043 -14.38999 -14.38206
 Alpha  occ. eigenvalues --  -10.43367 -10.40487 -10.38814 -10.37778 -10.37526
 Alpha  occ. eigenvalues --  -10.35291 -10.34963 -10.34604 -10.34578 -10.34268
 Alpha  occ. eigenvalues --  -10.34261 -10.33883 -10.31593 -10.31328 -10.30591
 Alpha  occ. eigenvalues --  -10.29849 -10.29677 -10.29483 -10.29138 -10.28624
 Alpha  occ. eigenvalues --  -10.28611 -10.28500 -10.28423 -10.27059 -10.26948
 Alpha  occ. eigenvalues --  -10.26329 -10.26002 -10.25785 -10.25291 -10.25099
 Alpha  occ. eigenvalues --  -10.24913 -10.24822 -10.24292 -10.24283 -10.24261
 Alpha  occ. eigenvalues --  -10.24057 -10.24001 -10.23898 -10.23839 -10.23756
 Alpha  occ. eigenvalues --  -10.23316 -10.23226 -10.23017 -10.22805 -10.22746
 Alpha  occ. eigenvalues --  -10.22739 -10.22556 -10.21939 -10.21813 -10.21734
 Alpha  occ. eigenvalues --   -1.19267  -1.16057  -1.14273  -1.13551  -1.10668
 Alpha  occ. eigenvalues --   -1.10542  -1.10231  -1.09394  -1.09010  -1.08165
 Alpha  occ. eigenvalues --   -1.07041  -1.06770  -1.06378  -1.06106  -1.03999
 Alpha  occ. eigenvalues --   -1.02201  -0.99176  -0.99064  -0.98465  -0.97661
 Alpha  occ. eigenvalues --   -0.96438  -0.95694  -0.95342  -0.95249  -0.94636
 Alpha  occ. eigenvalues --   -0.93902  -0.91297  -0.90548  -0.89065  -0.87234
 Alpha  occ. eigenvalues --   -0.86440  -0.86290  -0.85771  -0.84531  -0.83792
 Alpha  occ. eigenvalues --   -0.82782  -0.82430  -0.81667  -0.81477  -0.80288
 Alpha  occ. eigenvalues --   -0.79495  -0.79028  -0.78420  -0.78257  -0.78093
 Alpha  occ. eigenvalues --   -0.76494  -0.75465  -0.73942  -0.73381  -0.73259
 Alpha  occ. eigenvalues --   -0.72975  -0.72952  -0.71652  -0.71442  -0.70871
 Alpha  occ. eigenvalues --   -0.70182  -0.69145  -0.69086  -0.68404  -0.67753
 Alpha  occ. eigenvalues --   -0.66439  -0.66221  -0.65808  -0.65711  -0.65499
 Alpha  occ. eigenvalues --   -0.65084  -0.64400  -0.64218  -0.63698  -0.63497
 Alpha  occ. eigenvalues --   -0.63291  -0.62833  -0.62763  -0.62516  -0.62289
 Alpha  occ. eigenvalues --   -0.62160  -0.61390  -0.61170  -0.60326  -0.59461
 Alpha  occ. eigenvalues --   -0.59378  -0.58814  -0.58378  -0.58116  -0.57349
 Alpha  occ. eigenvalues --   -0.56879  -0.56705  -0.56509  -0.56306  -0.56119
 Alpha  occ. eigenvalues --   -0.55463  -0.55203  -0.55056  -0.54815  -0.54620
 Alpha  occ. eigenvalues --   -0.54273  -0.53816  -0.53689  -0.53412  -0.53165
 Alpha  occ. eigenvalues --   -0.53043  -0.52780  -0.52590  -0.52123  -0.51940
 Alpha  occ. eigenvalues --   -0.51866  -0.51669  -0.51581  -0.51498  -0.51096
 Alpha  occ. eigenvalues --   -0.50787  -0.50620  -0.50570  -0.50410  -0.50378
 Alpha  occ. eigenvalues --   -0.50008  -0.49978  -0.49543  -0.49200  -0.49097
 Alpha  occ. eigenvalues --   -0.48818  -0.48639  -0.48345  -0.48291  -0.47942
 Alpha  occ. eigenvalues --   -0.47891  -0.47793  -0.47599  -0.47321  -0.47241
 Alpha  occ. eigenvalues --   -0.47239  -0.47165  -0.47007  -0.46823  -0.46577
 Alpha  occ. eigenvalues --   -0.46049  -0.46012  -0.45803  -0.45724  -0.45368
 Alpha  occ. eigenvalues --   -0.45126  -0.45044  -0.44985  -0.44766  -0.44653
 Alpha  occ. eigenvalues --   -0.44539  -0.44209  -0.44157  -0.44083  -0.43965
 Alpha  occ. eigenvalues --   -0.43692  -0.43365  -0.43335  -0.42925  -0.42559
 Alpha  occ. eigenvalues --   -0.42434  -0.42123  -0.42060  -0.41774  -0.41415
 Alpha  occ. eigenvalues --   -0.41246  -0.41144  -0.41071  -0.40822  -0.40436
 Alpha  occ. eigenvalues --   -0.40326  -0.40259  -0.40170  -0.40023  -0.39544
 Alpha  occ. eigenvalues --   -0.39405  -0.39270  -0.39093  -0.38840  -0.38573
 Alpha  occ. eigenvalues --   -0.38339  -0.38044  -0.37703  -0.37571  -0.37543
 Alpha  occ. eigenvalues --   -0.37461  -0.36984  -0.36018  -0.35965  -0.35672
 Alpha  occ. eigenvalues --   -0.33540  -0.33235  -0.33174  -0.32761  -0.32537
 Alpha  occ. eigenvalues --   -0.32123  -0.32050  -0.31922  -0.31111  -0.30984
 Alpha  occ. eigenvalues --   -0.30758  -0.30751  -0.30050  -0.29925  -0.29722
 Alpha  occ. eigenvalues --   -0.29434  -0.28517  -0.27698  -0.26661  -0.26266
 Alpha  occ. eigenvalues --   -0.25164  -0.24497
 Alpha virt. eigenvalues --   -0.12158  -0.11168  -0.08057  -0.06832  -0.05769
 Alpha virt. eigenvalues --   -0.05484  -0.04779  -0.04695  -0.04480  -0.04399
 Alpha virt. eigenvalues --   -0.04315  -0.03802  -0.03325  -0.03252  -0.02994

 Mulliken charges:
               1
     1  N   -0.763337
     2  H    0.415942
     3  H    0.436051
     4  H    0.410639
     5  C   -0.105231
     6  H    0.211497
     7  C    0.653505
     8  C   -0.111294
     9  H    0.158917
    10  O   -0.554030
    11  C   -0.470069
    12  H    0.185186
    13  H    0.194607
    14  H    0.141498
    15  C   -0.481857
    16  H    0.190880
    17  H    0.166637
    18  H    0.189154
    19  N   -0.602693
    20  H    0.383592
    21  C   -0.087836
    22  H    0.190540
    23  C    0.650910
    24  C   -0.074207
    25  H    0.146106
    26  O   -0.551443
    27  C   -0.296632
    28  H    0.179080
    29  H    0.158508
    30  C   -0.492810
    31  H    0.222355
    32  H    0.122893
    33  H    0.161029
    34  C   -0.472173
    35  H    0.172157
    36  H    0.129845
    37  H    0.160750
    38  N   -0.612222
    39  H    0.356230
    40  C   -0.031718
    41  H    0.172851
    42  C    0.649683
    43  C   -0.395437
    44  H    0.165030
    45  H    0.165129
    46  O   -0.557548
    47  C    0.151178
    48  C   -0.182092
    49  H    0.140966
    50  C   -0.185055
    51  H    0.122132
    52  C   -0.144288
    53  H    0.139179
    54  C   -0.126105
    55  H    0.137548
    56  C   -0.142934
    57  H    0.188458
    58  N   -0.582408
    59  H    0.360026
    60  C   -0.072128
    61  H    0.175542
    62  C    0.638892
    63  C   -0.249744
    64  H    0.141667
    65  H    0.144916
    66  O   -0.549626
    67  C   -0.081826
    68  H    0.146934
    69  C   -0.443246
    70  H    0.147444
    71  H    0.137670
    72  H    0.129081
    73  C   -0.464490
    74  H    0.136810
    75  H    0.135748
    76  H    0.176862
    77  N   -0.627335
    78  H    0.356755
    79  C   -0.050075
    80  H    0.166903
    81  C    0.632319
    82  C   -0.264749
    83  H    0.167732
    84  H    0.198650
    85  O   -0.530066
    86  C   -0.403744
    87  H    0.218878
    88  H    0.169413
    89  C    0.591636
    90  O   -0.456887
    91  O   -0.569136
    92  N   -0.607613
    93  H    0.334141
    94  C   -0.044034
    95  H    0.208686
    96  C    0.633508
    97  C   -0.380871
    98  H    0.199214
    99  H    0.149740
   100  O   -0.553336
   101  C    0.574697
   102  N   -0.715792
   103  H    0.371350
   104  H    0.348831
   105  O   -0.520017
   106  N   -0.608093
   107  H    0.371120
   108  C   -0.057698
   109  H    0.172343
   110  C    0.662670
   111  C   -0.370614
   112  H    0.153387
   113  H    0.172639
   114  O   -0.554733
   115  C    0.159459
   116  C   -0.146806
   117  H    0.161409
   118  C   -0.187292
   119  H    0.126853
   120  C   -0.122421
   121  H    0.138069
   122  C   -0.178971
   123  H    0.113664
   124  O   -0.680315
   125  H    0.417029
   126  C    0.318784
   127  N   -0.627531
   128  H    0.352811
   129  C   -0.010729
   130  H    0.144562
   131  C    0.618233
   132  C   -0.329816
   133  H    0.159700
   134  H    0.156765
   135  O   -0.638498
   136  C   -0.285763
   137  H    0.127796
   138  H    0.180868
   139  C   -0.175276
   140  H    0.170154
   141  H    0.146817
   142  N   -0.569929
   143  H    0.376862
   144  N   -0.778926
   145  H    0.389424
   146  H    0.349362
   147  N   -0.737676
   148  H    0.349189
   149  H    0.385061
   150  C    0.746591
   151  O   -0.579696
   152  H    0.412594
 Sum of Mulliken charges =   1.00000

 Dipole moment (field-independent basis, Debye):
    X=            -34.6545    Y=              9.0739    Z=             18.8587  Tot=             40.4836
 Quadrupole moment (field-independent basis, Debye-Ang):
   XX=             23.3945   YY=           -341.1847   ZZ=           -393.5668
   XY=           -178.9927   XZ=           -142.0657   YZ=             79.9518

 Normal termination of Gaussian 16 at Sat Aug 13 18:47:32 2022.
