 Gaussian 16, Revision C.01,
 Gaussian 16:  ES64L-G16RevC.01  3-Jul-2019

 ----------------------------------------------------------------------
 # B3LYP/6-31G* empiricaldispersion=gd3bj guess=read geom=check nosymm
 integral(ultrafinegrid)
 ----------------------------------------------------------------------

 ------------------------------------------------------
 Candidate Structure: Conf:883 Charge calc in gas phase
 ------------------------------------------------------
 Structure from the checkpoint file:  "conf-883.chk"
 Charge =  1 Multiplicity = 1

                          Input orientation:
 ---------------------------------------------------------------------
 Center     Atomic      Atomic             Coordinates (Angstroms)
 Number     Number       Type             X           Y           Z
 ---------------------------------------------------------------------
      1          7           0      -10.053943    5.847316    1.957870
      2          1           0      -10.620860    5.387640    1.240291
      3          1           0      -10.319949    5.450459    2.910636
      4          1           0      -10.214574    6.855876    1.904418
      5          6           0       -8.585437    5.476939    1.883552
      6          1           0       -8.378119    5.089236    0.882889
      7          6           0       -8.496085    4.362721    2.961348
      8          6           0       -7.706170    6.716199    2.173060
      9          1           0       -7.976426    7.076926    3.175997
     10          8           0       -9.407312    4.316983    3.806510
     11          6           0       -6.214763    6.346422    2.175366
     12          1           0       -5.912430    5.908823    1.216079
     13          1           0       -5.619486    7.251668    2.321767
     14          1           0       -5.952379    5.645999    2.969982
     15          6           0       -7.964452    7.829812    1.144654
     16          1           0       -7.728052    7.489653    0.129934
     17          1           0       -8.994738    8.210898    1.141537
     18          1           0       -7.325294    8.688918    1.365197
     19          7           0       -7.458857    3.548356    2.892406
     20          1           0       -6.712963    3.664311    2.203839
     21          6           0       -7.156503    2.485445    3.849884
     22          1           0       -7.410623    2.841284    4.851632
     23          6           0       -5.638575    2.292964    3.705045
     24          6           0       -7.982693    1.204444    3.525635
     25          1           0       -9.026349    1.547029    3.554345
     26          8           0       -5.056876    2.742044    2.713339
     27          6           0       -7.831482    0.091105    4.578737
     28          1           0       -6.832326   -0.352507    4.495524
     29          1           0       -8.525240   -0.707407    4.289694
     30          6           0       -7.663368    0.662931    2.127074
     31          1           0       -6.651154    0.251941    2.088451
     32          1           0       -7.756564    1.434272    1.354679
     33          1           0       -8.358833   -0.143710    1.874251
     34          6           0       -8.144938    0.506615    6.020656
     35          1           0       -8.150210   -0.365611    6.681562
     36          1           0       -7.416944    1.216303    6.436949
     37          1           0       -9.129251    0.984278    6.090680
     38          7           0       -5.001017    1.624976    4.688889
     39          1           0       -5.565227    1.144309    5.376534
     40          6           0       -3.668181    1.083957    4.436436
     41          1           0       -2.993957    1.918288    4.224727
     42          6           0       -3.733465    0.135029    3.226681
     43          6           0       -3.166915    0.301286    5.668045
     44          1           0       -3.924118   -0.448337    5.927456
     45          1           0       -3.073216    0.994005    6.512091
     46          8           0       -4.662982   -0.668504    3.120636
     47          6           0       -1.851668   -0.380094    5.365785
     48          6           0       -1.831843   -1.703751    4.910060
     49          1           0       -2.763640   -2.259335    4.846049
     50          6           0       -0.650476    0.334903    5.420975
     51          1           0       -0.653091    1.363567    5.775218
     52          6           0       -0.636073   -2.298090    4.508540
     53          1           0       -0.636532   -3.322729    4.149017
     54          6           0        0.546423   -0.256686    5.017728
     55          1           0        1.470176    0.312672    5.057566
     56          6           0        0.555038   -1.573275    4.557345
     57          1           0        1.485653   -2.031706    4.236434
     58          7           0       -2.706468    0.239430    2.370212
     59          1           0       -1.909355    0.825715    2.597959
     60          6           0       -2.448123   -0.712423    1.305390
     61          1           0       -2.978168   -1.639240    1.540621
     62          6           0       -0.936928   -0.929724    1.276063
     63          6           0       -2.879338   -0.163624   -0.074531
     64          1           0       -2.563103   -0.869152   -0.852143
     65          1           0       -2.300680    0.750496   -0.255556
     66          8           0       -0.169351   -0.036768    1.638069
     67          6           0       -4.379671    0.136792   -0.209296
     68          1           0       -4.668825    0.793863    0.621756
     69          6           0       -4.630616    0.893775   -1.519953
     70          1           0       -4.344183    0.285582   -2.386545
     71          1           0       -4.051833    1.823551   -1.563141
     72          1           0       -5.692553    1.146051   -1.628178
     73          6           0       -5.229146   -1.138100   -0.142787
     74          1           0       -4.928538   -1.846150   -0.925979
     75          1           0       -6.288992   -0.905370   -0.300266
     76          1           0       -5.143224   -1.628635    0.830568
     77          7           0       -0.506227   -2.117360    0.776772
     78          1           0       -1.199942   -2.674877    0.292531
     79          6           0        0.840418   -2.181642    0.216423
     80          1           0        1.541773   -1.906692    1.009896
     81          6           0        0.921437   -1.161575   -0.937713
     82          6           0        1.122199   -3.601415   -0.286961
     83          1           0        0.452677   -3.822745   -1.126116
     84          1           0        0.878585   -4.312998    0.508990
     85          8           0       -0.044273   -0.968436   -1.669413
     86          6           0        2.572098   -3.807653   -0.725601
     87          1           0        2.875209   -3.114933   -1.519516
     88          1           0        3.270410   -3.622902    0.101188
     89          6           0        2.801728   -5.217723   -1.222333
     90          8           0        1.955447   -6.080299   -1.306031
     91          8           0        4.092659   -5.414586   -1.572606
     92          7           0        2.102345   -0.509779   -1.049566
     93          1           0        2.925682   -0.862358   -0.569134
     94          6           0        2.427006    0.329507   -2.189330
     95          1           0        1.645835    0.191973   -2.942213
     96          6           0        3.786117   -0.148955   -2.719465
     97          6           0        2.500546    1.822238   -1.789146
     98          1           0        3.161185    1.913689   -0.920013
     99          1           0        2.941686    2.402016   -2.601854
    100          8           0        4.540302   -0.805325   -1.998949
    101          6           0        1.113286    2.389314   -1.500187
    102          7           0        0.629886    2.152891   -0.238039
    103          1           0       -0.354897    2.350590   -0.116253
    104          1           0        0.969685    1.369256    0.306094
    105          8           0        0.489774    3.030133   -2.334079
    106          7           0        4.039956    0.182973   -4.003534
    107          1           0        3.429089    0.875484   -4.423637
    108          6           0        5.392197    0.188478   -4.531919
    109          1           0        5.917269   -0.654508   -4.074072
    110          6           0        6.086987    1.500106   -4.084336
    111          6           0        5.357275    0.004740   -6.069034
    112          1           0        6.380771   -0.093219   -6.442691
    113          1           0        4.852606   -0.947105   -6.269551
    114          8           0        5.519134    2.289042   -3.323797
    115          6           0        4.657115    1.139585   -6.782438
    116          6           0        3.261125    1.154265   -6.922563
    117          1           0        2.678724    0.300904   -6.580474
    118          6           0        5.387723    2.226892   -7.280795
    119          1           0        6.474795    2.228225   -7.215666
    120          6           0        2.600861    2.228270   -7.514336
    121          1           0        1.521409    2.237824   -7.624203
    122          6           0        4.736522    3.303250   -7.878476
    123          1           0        5.319868    4.137077   -8.265315
    124          8           0        2.655864    4.346948   -8.565293
    125          1           0        3.295650    5.013033   -8.861116
    126          6           0        3.343120    3.312379   -7.989866
    127          7           0        7.333798    1.675434   -4.565763
    128          1           0        7.642395    1.159187   -5.400674
    129          6           0        7.968109    2.983894   -4.634154
    130          1           0        7.190833    3.756540   -4.686303
    131          6           0        8.826213    3.015432   -5.965147
    132          6           0        8.884295    3.287782   -3.453326
    133          1           0        9.682592    2.524319   -3.481283
    134          1           0        9.358863    4.248558   -3.682615
    135          8           0        9.595947    3.985209   -6.067919
    136          6           0        8.201757    3.301065   -2.082136
    137          1           0        7.269714    3.870422   -2.131520
    138          1           0        7.917074    2.286714   -1.783719
    139          6           0        9.090419    3.934171   -1.007760
    140          1           0        9.202251    5.009475   -1.200537
    141          1           0        8.674730    3.790524   -0.003207
    142          7           0       10.429777    3.311608   -1.050259
    143          1           0       10.640041    2.821382   -1.913885
    144          7           0       11.279353    4.408584    0.805037
    145          1           0       11.889766    4.374596    1.608131
    146          1           0       10.438244    4.960843    0.882093
    147          7           0       12.570951    2.829579   -0.290461
    148          1           0       13.421132    3.227726    0.083533
    149          1           0       12.689685    2.165381   -1.043484
    150          6           0       11.414327    3.522342   -0.196422
    151          8           0        8.625155    2.033670   -6.736867
    152          1           0        4.153162   -6.335201   -1.890546
 ---------------------------------------------------------------------

 SCF Done:  E(RB3LYP) =  -3586.89844709     A.U. after    1 cycles

 Alpha  occ. eigenvalues --  -19.26402 -19.23639 -19.22092 -19.18989 -19.18777
 Alpha  occ. eigenvalues --  -19.18396 -19.18164 -19.16364 -19.15532 -19.13373
 Alpha  occ. eigenvalues --  -19.12809 -19.06168 -19.05222 -14.59588 -14.50345
 Alpha  occ. eigenvalues --  -14.49932 -14.49322 -14.48942 -14.45578 -14.42371
 Alpha  occ. eigenvalues --  -14.42319 -14.40610 -14.38771 -14.37287 -14.34964
 Alpha  occ. eigenvalues --  -10.46138 -10.43092 -10.40292 -10.38766 -10.36401
 Alpha  occ. eigenvalues --  -10.35399 -10.35249 -10.34404 -10.33787 -10.33436
 Alpha  occ. eigenvalues --  -10.32298 -10.32021 -10.31474 -10.31117 -10.31040
 Alpha  occ. eigenvalues --  -10.29637 -10.29410 -10.29239 -10.29052 -10.28398
 Alpha  occ. eigenvalues --  -10.27419 -10.27309 -10.25982 -10.25974 -10.25884
 Alpha  occ. eigenvalues --  -10.25731 -10.25277 -10.25122 -10.24985 -10.24982
 Alpha  occ. eigenvalues --  -10.24825 -10.24771 -10.24718 -10.24665 -10.24646
 Alpha  occ. eigenvalues --  -10.24102 -10.23929 -10.23558 -10.23526 -10.22377
 Alpha  occ. eigenvalues --  -10.21896 -10.21599 -10.21556 -10.21353 -10.21176
 Alpha  occ. eigenvalues --  -10.20342 -10.20097 -10.19680 -10.19641 -10.18989
 Alpha  occ. eigenvalues --   -1.18941  -1.14818  -1.14643  -1.14270  -1.13408
 Alpha  occ. eigenvalues --   -1.10961  -1.10021  -1.08451  -1.07171  -1.06980
 Alpha  occ. eigenvalues --   -1.05837  -1.05669  -1.05155  -1.04225  -1.03768
 Alpha  occ. eigenvalues --   -1.03170  -1.02139  -0.99330  -0.99188  -0.99002
 Alpha  occ. eigenvalues --   -0.97320  -0.95804  -0.95191  -0.92476  -0.92136
 Alpha  occ. eigenvalues --   -0.91947  -0.90594  -0.90327  -0.87225  -0.86497
 Alpha  occ. eigenvalues --   -0.86461  -0.86311  -0.86226  -0.85545  -0.82761
 Alpha  occ. eigenvalues --   -0.82453  -0.81553  -0.81352  -0.80354  -0.80309
 Alpha  occ. eigenvalues --   -0.80069  -0.78974  -0.78720  -0.77584  -0.76707
 Alpha  occ. eigenvalues --   -0.75600  -0.74821  -0.74609  -0.73817  -0.73199
 Alpha  occ. eigenvalues --   -0.72768  -0.72583  -0.72473  -0.71875  -0.71130
 Alpha  occ. eigenvalues --   -0.70623  -0.70436  -0.69977  -0.69466  -0.68432
 Alpha  occ. eigenvalues --   -0.68263  -0.66897  -0.66549  -0.65957  -0.65695
 Alpha  occ. eigenvalues --   -0.65466  -0.64518  -0.63935  -0.63857  -0.63434
 Alpha  occ. eigenvalues --   -0.63309  -0.63141  -0.62893  -0.62688  -0.62456
 Alpha  occ. eigenvalues --   -0.61914  -0.61466  -0.60733  -0.60297  -0.59648
 Alpha  occ. eigenvalues --   -0.59307  -0.59093  -0.58672  -0.58441  -0.57583
 Alpha  occ. eigenvalues --   -0.57498  -0.57358  -0.56792  -0.56406  -0.56011
 Alpha  occ. eigenvalues --   -0.55924  -0.55433  -0.55260  -0.55217  -0.54800
 Alpha  occ. eigenvalues --   -0.54161  -0.54024  -0.53530  -0.53183  -0.52997
 Alpha  occ. eigenvalues --   -0.52865  -0.52542  -0.52388  -0.52089  -0.51984
 Alpha  occ. eigenvalues --   -0.51842  -0.51540  -0.51465  -0.51236  -0.50889
 Alpha  occ. eigenvalues --   -0.50823  -0.50301  -0.50237  -0.49960  -0.49644
 Alpha  occ. eigenvalues --   -0.49223  -0.49130  -0.48928  -0.48581  -0.48222
 Alpha  occ. eigenvalues --   -0.48021  -0.47958  -0.47842  -0.47719  -0.47508
 Alpha  occ. eigenvalues --   -0.47496  -0.47190  -0.47051  -0.46964  -0.46767
 Alpha  occ. eigenvalues --   -0.46735  -0.46540  -0.46326  -0.45695  -0.45557
 Alpha  occ. eigenvalues --   -0.45307  -0.44892  -0.44651  -0.44442  -0.44353
 Alpha  occ. eigenvalues --   -0.44255  -0.43952  -0.43767  -0.43632  -0.43361
 Alpha  occ. eigenvalues --   -0.43262  -0.42817  -0.42794  -0.42606  -0.42521
 Alpha  occ. eigenvalues --   -0.42336  -0.42270  -0.42161  -0.41626  -0.41611
 Alpha  occ. eigenvalues --   -0.41405  -0.41387  -0.41282  -0.41154  -0.41034
 Alpha  occ. eigenvalues --   -0.40899  -0.40799  -0.40555  -0.40349  -0.40283
 Alpha  occ. eigenvalues --   -0.40210  -0.40041  -0.39940  -0.39675  -0.38980
 Alpha  occ. eigenvalues --   -0.38408  -0.38197  -0.38080  -0.37682  -0.37617
 Alpha  occ. eigenvalues --   -0.37298  -0.37243  -0.37079  -0.36522  -0.36026
 Alpha  occ. eigenvalues --   -0.35948  -0.35642  -0.35634  -0.35406  -0.34545
 Alpha  occ. eigenvalues --   -0.33774  -0.33725  -0.33274  -0.32780  -0.32118
 Alpha  occ. eigenvalues --   -0.31918  -0.31564  -0.30904  -0.30823  -0.30178
 Alpha  occ. eigenvalues --   -0.30096  -0.29478  -0.29168  -0.28941  -0.26923
 Alpha  occ. eigenvalues --   -0.26690  -0.26214  -0.26052  -0.22836  -0.21447
 Alpha  occ. eigenvalues --   -0.20900  -0.19507
 Alpha virt. eigenvalues --   -0.12103  -0.10800  -0.10284  -0.08021  -0.06449
 Alpha virt. eigenvalues --   -0.06318  -0.06305  -0.06213  -0.04911  -0.04346
 Alpha virt. eigenvalues --   -0.04099  -0.03131  -0.02591  -0.02456  -0.01814

 Mulliken charges:
               1
     1  N   -0.760055
     2  H    0.415963
     3  H    0.432685
     4  H    0.408517
     5  C   -0.103718
     6  H    0.207860
     7  C    0.651595
     8  C   -0.109859
     9  H    0.168319
    10  O   -0.551631
    11  C   -0.476392
    12  H    0.172757
    13  H    0.187969
    14  H    0.184524
    15  C   -0.473011
    16  H    0.179551
    17  H    0.137802
    18  H    0.202104
    19  N   -0.603706
    20  H    0.382189
    21  C   -0.083307
    22  H    0.192155
    23  C    0.647734
    24  C   -0.076605
    25  H    0.146927
    26  O   -0.548362
    27  C   -0.296338
    28  H    0.176519
    29  H    0.158824
    30  C   -0.492584
    31  H    0.223302
    32  H    0.122394
    33  H    0.160634
    34  C   -0.472402
    35  H    0.171556
    36  H    0.130264
    37  H    0.161464
    38  N   -0.612142
    39  H    0.355711
    40  C   -0.033713
    41  H    0.172911
    42  C    0.645478
    43  C   -0.389040
    44  H    0.164771
    45  H    0.167498
    46  O   -0.556027
    47  C    0.147746
    48  C   -0.178757
    49  H    0.145234
    50  C   -0.189045
    51  H    0.126179
    52  C   -0.133842
    53  H    0.141076
    54  C   -0.110351
    55  H    0.138152
    56  C   -0.116864
    57  H    0.135275
    58  N   -0.577411
    59  H    0.356737
    60  C   -0.085583
    61  H    0.176464
    62  C    0.658913
    63  C   -0.257330
    64  H    0.167862
    65  H    0.147349
    66  O   -0.559433
    67  C   -0.083525
    68  H    0.140296
    69  C   -0.443012
    70  H    0.155742
    71  H    0.146434
    72  H    0.123679
    73  C   -0.465082
    74  H    0.137169
    75  H    0.135384
    76  H    0.171621
    77  N   -0.598670
    78  H    0.342017
    79  C   -0.048763
    80  H    0.165451
    81  C    0.612104
    82  C   -0.289754
    83  H    0.176685
    84  H    0.169953
    85  O   -0.533035
    86  C   -0.381190
    87  H    0.208700
    88  H    0.177692
    89  C    0.585245
    90  O   -0.459949
    91  O   -0.562894
    92  N   -0.602925
    93  H    0.348109
    94  C   -0.105108
    95  H    0.202715
    96  C    0.643428
    97  C   -0.344516
    98  H    0.153241
    99  H    0.208989
   100  O   -0.552737
   101  C    0.566288
   102  N   -0.750352
   103  H    0.325235
   104  H    0.361289
   105  O   -0.503153
   106  N   -0.583605
   107  H    0.350604
   108  C   -0.080654
   109  H    0.185962
   110  C    0.616600
   111  C   -0.381105
   112  H    0.182948
   113  H    0.154023
   114  O   -0.558838
   115  C    0.135501
   116  C   -0.217891
   117  H    0.123629
   118  C   -0.206489
   119  H    0.207813
   120  C   -0.155048
   121  H    0.134888
   122  C   -0.208811
   123  H    0.130445
   124  O   -0.646649
   125  H    0.407335
   126  C    0.351763
   127  N   -0.615628
   128  H    0.358123
   129  C   -0.075342
   130  H    0.155377
   131  C    0.582699
   132  C   -0.287739
   133  H    0.113493
   134  H    0.171581
   135  O   -0.589250
   136  C   -0.293951
   137  H    0.195266
   138  H    0.172333
   139  C   -0.165476
   140  H    0.181707
   141  H    0.167757
   142  N   -0.587538
   143  H    0.373274
   144  N   -0.756976
   145  H    0.379246
   146  H    0.391529
   147  N   -0.757899
   148  H    0.377340
   149  H    0.385615
   150  C    0.814951
   151  O   -0.603410
   152  H    0.414235
 Sum of Mulliken charges =   1.00000

 Dipole moment (field-independent basis, Debye):
    X=            -15.9189    Y=             23.6799    Z=             28.7569  Tot=             40.5106
 Quadrupole moment (field-independent basis, Debye-Ang):
   XX=            183.0588   YY=           -274.4601   ZZ=           -508.8348
   XY=           -133.4395   XZ=             75.2066   YZ=             96.8599

 Normal termination of Gaussian 16 at Sat Aug 13 18:50:22 2022.
