 Gaussian 16, Revision C.01,
 Gaussian 16:  ES64L-G16RevC.01  3-Jul-2019

 ----------------------------------------------------------------------
 # B3LYP/6-31G* empiricaldispersion=gd3bj guess=read geom=check nosymm
 integral(ultrafinegrid)
 ----------------------------------------------------------------------

 ------------------------------------------------------
 Candidate Structure: Conf:549 Charge calc in gas phase
 ------------------------------------------------------
 Structure from the checkpoint file:  "conf-549.chk"
 Charge =  1 Multiplicity = 1

                          Input orientation:
 ---------------------------------------------------------------------
 Center     Atomic      Atomic             Coordinates (Angstroms)
 Number     Number       Type             X           Y           Z
 ---------------------------------------------------------------------
      1          7           0       -2.064666   -1.173907    5.152066
      2          1           0       -1.577298   -1.664203    5.903102
      3          1           0       -2.634912   -1.814436    4.549404
      4          1           0       -1.369473   -0.757569    4.499554
      5          6           0       -3.059211   -0.142206    5.636350
      6          1           0       -3.393762   -0.461097    6.629781
      7          6           0       -4.216023   -0.308638    4.612623
      8          6           0       -2.382930    1.246234    5.723130
      9          1           0       -2.103772    1.531794    4.702460
     10          8           0       -4.117230   -1.205620    3.767625
     11          6           0       -3.314352    2.335309    6.286442
     12          1           0       -3.889151    1.980306    7.151790
     13          1           0       -2.712150    3.179653    6.633634
     14          1           0       -3.987448    2.732762    5.521932
     15          6           0       -1.106037    1.149919    6.574631
     16          1           0       -1.332908    0.828243    7.598763
     17          1           0       -0.357407    0.468887    6.154352
     18          1           0       -0.630734    2.132561    6.636156
     19          7           0       -5.259662    0.526328    4.704002
     20          1           0       -5.178848    1.306406    5.340767
     21          6           0       -6.075055    0.799907    3.510606
     22          1           0       -6.140271   -0.139142    2.959243
     23          6           0       -5.262832    1.836045    2.709806
     24          6           0       -7.500841    1.267183    3.868576
     25          1           0       -7.973581    0.411612    4.371097
     26          8           0       -4.858853    2.871090    3.249079
     27          6           0       -8.276991    1.543751    2.565683
     28          1           0       -8.103716    0.714073    1.866397
     29          1           0       -7.865041    2.441338    2.085294
     30          6           0       -7.530584    2.464858    4.827737
     31          1           0       -7.040502    3.337844    4.389485
     32          1           0       -7.038622    2.239453    5.781942
     33          1           0       -8.563190    2.728238    5.070212
     34          6           0       -9.784888    1.713604    2.766008
     35          1           0      -10.289163    1.835726    1.802323
     36          1           0      -10.218388    0.836666    3.260971
     37          1           0      -10.021123    2.593263    3.372756
     38          7           0       -4.987793    1.494276    1.440700
     39          1           0       -5.270257    0.597182    1.054933
     40          6           0       -4.162339    2.281882    0.545216
     41          1           0       -4.643082    3.251432    0.366516
     42          6           0       -4.122379    1.507685   -0.783693
     43          6           0       -2.747008    2.601441    1.090662
     44          1           0       -2.871334    3.375859    1.851813
     45          1           0       -2.183965    3.038797    0.259162
     46          8           0       -4.476092    0.327498   -0.837254
     47          6           0       -1.912821    1.482750    1.680855
     48          6           0       -0.837330    1.844068    2.508844
     49          1           0       -0.671346    2.895609    2.731913
     50          6           0       -2.104754    0.121455    1.405242
     51          1           0       -2.912221   -0.195736    0.758085
     52          6           0        0.042291    0.890840    3.022060
     53          1           0        0.895595    1.205780    3.615613
     54          6           0       -1.235354   -0.838104    1.926450
     55          1           0       -1.384906   -1.883591    1.672735
     56          6           0       -0.153411   -0.464207    2.732326
     57          1           0        0.571975   -1.207469    3.052550
     58          7           0       -3.691374    2.220980   -1.844311
     59          1           0       -3.254395    3.126365   -1.667073
     60          6           0       -3.159679    1.541953   -3.014925
     61          1           0       -3.729389    0.618016   -3.143389
     62          6           0       -1.693099    1.181943   -2.689901
     63          6           0       -3.347237    2.478568   -4.230935
     64          1           0       -2.763134    3.388329   -4.051263
     65          1           0       -4.402139    2.777313   -4.197097
     66          8           0       -1.212483    1.442328   -1.580846
     67          6           0       -3.057860    1.942955   -5.645334
     68          1           0       -1.970255    1.850177   -5.781943
     69          6           0       -3.714690    0.581299   -5.911735
     70          1           0       -4.797750    0.638925   -5.749403
     71          1           0       -3.332146   -0.214229   -5.259715
     72          1           0       -3.549876    0.265308   -6.947115
     73          6           0       -3.528998    2.979143   -6.675432
     74          1           0       -4.617519    3.103876   -6.629332
     75          1           0       -3.268840    2.667795   -7.692482
     76          1           0       -3.070663    3.957267   -6.492389
     77          7           0       -0.946681    0.618592   -3.667864
     78          1           0       -1.340459    0.535889   -4.594206
     79          6           0        0.507403    0.491621   -3.540589
     80          1           0        0.701172    0.287183   -2.485743
     81          6           0        1.196504    1.835290   -3.860277
     82          6           0        1.062943   -0.638191   -4.400311
     83          1           0        2.149763   -0.624544   -4.286184
     84          1           0        0.857705   -0.440460   -5.458666
     85          8           0        2.047426    1.964282   -4.735028
     86          6           0        0.507953   -2.032096   -4.027254
     87          1           0       -0.574032   -2.067025   -4.179848
     88          1           0        0.978209   -2.790637   -4.658409
     89          6           0        0.809626   -2.351288   -2.583250
     90          8           0        1.858016   -2.855972   -2.189585
     91          8           0       -0.161705   -1.955366   -1.759382
     92          7           0        0.770540    2.852680   -3.066139
     93          1           0        0.174177    2.611215   -2.278384
     94          6           0        1.286914    4.208032   -3.161114
     95          1           0        1.666902    4.322463   -4.181202
     96          6           0        2.490790    4.391480   -2.202453
     97          6           0        0.160444    5.232931   -2.934277
     98          1           0        0.610530    6.220516   -2.796693
     99          1           0       -0.478399    5.254578   -3.818354
    100          8           0        2.501622    5.235533   -1.295446
    101          6           0       -0.749958    4.909359   -1.748089
    102          7           0       -0.178458    5.047223   -0.533588
    103          1           0       -0.729829    4.872698    0.294321
    104          1           0        0.801021    5.326753   -0.471817
    105          8           0       -1.915958    4.532645   -1.910480
    106          7           0        3.488736    3.528199   -2.440154
    107          1           0        3.425573    2.868691   -3.218574
    108          6           0        4.651306    3.328321   -1.593866
    109          1           0        5.284506    4.224834   -1.608073
    110          6           0        5.409493    2.148348   -2.233102
    111          6           0        4.279032    3.033294   -0.109986
    112          1           0        5.205040    3.014245    0.474741
    113          1           0        3.696934    3.887894    0.241112
    114          8           0        4.937369    1.564718   -3.211211
    115          6           0        3.523450    1.740170    0.076210
    116          6           0        2.133540    1.676347   -0.075575
    117          1           0        1.567364    2.584882   -0.255786
    118          6           0        4.212099    0.555159    0.367921
    119          1           0        5.279928    0.585277    0.548655
    120          6           0        1.449410    0.463535    0.016506
    121          1           0        0.375197    0.433622   -0.117339
    122          6           0        3.545676   -0.663923    0.458815
    123          1           0        4.096477   -1.573083    0.683683
    124          8           0        1.475917   -1.914931    0.367415
    125          1           0        1.959261   -2.566993   -0.182729
    126          6           0        2.165955   -0.704738    0.268307
    127          7           0        6.574895    1.787848   -1.651716
    128          1           0        6.851123    2.193813   -0.763575
    129          6           0        7.124873    0.461058   -1.896114
    130          1           0        6.341446   -0.107244   -2.386357
    131          6           0        7.424941   -0.207955   -0.557801
    132          6           0        8.389348    0.463771   -2.780749
    133          1           0        9.007810    1.319023   -2.485770
    134          1           0        8.973592   -0.438011   -2.562790
    135          8           0        7.516764   -1.528470   -0.608605
    136          6           0        8.094384    0.507036   -4.281804
    137          1           0        7.433654    1.351054   -4.516516
    138          1           0        9.035902    0.690764   -4.814205
    139          6           0        7.495031   -0.790892   -4.850684
    140          1           0        7.635167   -0.788480   -5.939232
    141          1           0        8.021885   -1.663253   -4.455429
    142          7           0        6.074256   -0.993799   -4.594254
    143          1           0        5.464362   -0.209512   -4.793898
    144          7           0        6.267109   -2.498212   -2.804190
    145          1           0        5.752987   -3.281616   -2.402640
    146          1           0        7.192301   -1.879281   -1.509386
    147          7           0        4.198866   -2.095085   -3.911748
    148          1           0        3.650771   -2.636607   -3.252958
    149          1           0        3.865684   -2.090126   -4.865248
    150          6           0        5.551219   -1.909664   -3.721365
    151          8           0        7.584229    0.436041    0.465418
    152          1           0        0.196414   -1.982305   -0.831119
 ---------------------------------------------------------------------

 SCF Done:  E(RB3LYP) =  -3587.03122665     A.U. after    2 cycles

 Alpha  occ. eigenvalues --  -19.26699 -19.25610 -19.25573 -19.22818 -19.21712
 Alpha  occ. eigenvalues --  -19.20682 -19.20539 -19.20287 -19.19859 -19.19637
 Alpha  occ. eigenvalues --  -19.19533 -19.19057 -19.17754 -14.57208 -14.48057
 Alpha  occ. eigenvalues --  -14.45105 -14.44884 -14.43215 -14.43043 -14.42852
 Alpha  occ. eigenvalues --  -14.42554 -14.42455 -14.40580 -14.40321 -14.35859
 Alpha  occ. eigenvalues --  -10.42311 -10.40608 -10.38979 -10.37686 -10.37508
 Alpha  occ. eigenvalues --  -10.37092 -10.37046 -10.36352 -10.36316 -10.35961
 Alpha  occ. eigenvalues --  -10.35958 -10.35140 -10.32861 -10.32576 -10.32257
 Alpha  occ. eigenvalues --  -10.31547 -10.31543 -10.31237 -10.31138 -10.30819
 Alpha  occ. eigenvalues --  -10.29784 -10.29435 -10.28957 -10.28747 -10.28663
 Alpha  occ. eigenvalues --  -10.28607 -10.28375 -10.28272 -10.28159 -10.28096
 Alpha  occ. eigenvalues --  -10.27721 -10.27634 -10.27551 -10.27226 -10.27045
 Alpha  occ. eigenvalues --  -10.26898 -10.26065 -10.26027 -10.26015 -10.25944
 Alpha  occ. eigenvalues --  -10.25706 -10.25573 -10.25319 -10.25191 -10.25097
 Alpha  occ. eigenvalues --  -10.24951 -10.24348 -10.24314 -10.24074 -10.23864
 Alpha  occ. eigenvalues --   -1.18575  -1.18037  -1.13396  -1.13199  -1.12777
 Alpha  occ. eigenvalues --   -1.12708  -1.11899  -1.11722  -1.11577  -1.11090
 Alpha  occ. eigenvalues --   -1.11049  -1.10533  -1.09401  -1.05389  -1.04989
 Alpha  occ. eigenvalues --   -1.03924  -1.01713  -1.01499  -1.00651  -1.00494
 Alpha  occ. eigenvalues --   -0.99378  -0.99078  -0.97912  -0.95166  -0.94486
 Alpha  occ. eigenvalues --   -0.93691  -0.92179  -0.90622  -0.90270  -0.89466
 Alpha  occ. eigenvalues --   -0.88285  -0.87783  -0.86800  -0.85622  -0.85248
 Alpha  occ. eigenvalues --   -0.84529  -0.84263  -0.83838  -0.82460  -0.81443
 Alpha  occ. eigenvalues --   -0.81242  -0.80855  -0.80400  -0.80238  -0.78880
 Alpha  occ. eigenvalues --   -0.78647  -0.75782  -0.75693  -0.75368  -0.73633
 Alpha  occ. eigenvalues --   -0.73197  -0.72836  -0.72618  -0.72543  -0.72230
 Alpha  occ. eigenvalues --   -0.71366  -0.70183  -0.69824  -0.68673  -0.68653
 Alpha  occ. eigenvalues --   -0.68437  -0.67695  -0.67288  -0.67106  -0.66969
 Alpha  occ. eigenvalues --   -0.66513  -0.66334  -0.66073  -0.65656  -0.65475
 Alpha  occ. eigenvalues --   -0.65124  -0.64632  -0.64594  -0.63861  -0.63806
 Alpha  occ. eigenvalues --   -0.63476  -0.62602  -0.62534  -0.61501  -0.61362
 Alpha  occ. eigenvalues --   -0.61276  -0.60586  -0.60175  -0.59949  -0.59281
 Alpha  occ. eigenvalues --   -0.58780  -0.58546  -0.57984  -0.57684  -0.57331
 Alpha  occ. eigenvalues --   -0.57199  -0.56706  -0.56572  -0.56384  -0.56025
 Alpha  occ. eigenvalues --   -0.55514  -0.55360  -0.55264  -0.54921  -0.54801
 Alpha  occ. eigenvalues --   -0.54488  -0.54308  -0.54167  -0.53628  -0.53385
 Alpha  occ. eigenvalues --   -0.53329  -0.53048  -0.52839  -0.52770  -0.52673
 Alpha  occ. eigenvalues --   -0.52222  -0.51999  -0.51839  -0.51816  -0.51623
 Alpha  occ. eigenvalues --   -0.51598  -0.51311  -0.51145  -0.50943  -0.50809
 Alpha  occ. eigenvalues --   -0.50656  -0.50546  -0.50243  -0.50218  -0.50061
 Alpha  occ. eigenvalues --   -0.49685  -0.49511  -0.49450  -0.49393  -0.49116
 Alpha  occ. eigenvalues --   -0.48804  -0.48729  -0.48373  -0.48310  -0.48092
 Alpha  occ. eigenvalues --   -0.47803  -0.47578  -0.47483  -0.47115  -0.46960
 Alpha  occ. eigenvalues --   -0.46549  -0.46468  -0.46261  -0.46114  -0.45904
 Alpha  occ. eigenvalues --   -0.45735  -0.45597  -0.45540  -0.45483  -0.45272
 Alpha  occ. eigenvalues --   -0.45251  -0.45082  -0.44993  -0.44814  -0.44523
 Alpha  occ. eigenvalues --   -0.44331  -0.44173  -0.44022  -0.43982  -0.43753
 Alpha  occ. eigenvalues --   -0.43687  -0.43539  -0.43394  -0.43013  -0.42816
 Alpha  occ. eigenvalues --   -0.42473  -0.42299  -0.42082  -0.41521  -0.41133
 Alpha  occ. eigenvalues --   -0.40683  -0.40576  -0.40478  -0.40443  -0.40378
 Alpha  occ. eigenvalues --   -0.40029  -0.39947  -0.39719  -0.39697  -0.39552
 Alpha  occ. eigenvalues --   -0.39349  -0.38962  -0.38502  -0.36536  -0.36283
 Alpha  occ. eigenvalues --   -0.35607  -0.35298  -0.34984  -0.34831  -0.34697
 Alpha  occ. eigenvalues --   -0.34465  -0.34356  -0.34179  -0.34070  -0.33830
 Alpha  occ. eigenvalues --   -0.33470  -0.33322  -0.33174  -0.33146  -0.32305
 Alpha  occ. eigenvalues --   -0.32124  -0.31648  -0.31242  -0.31155  -0.30953
 Alpha  occ. eigenvalues --   -0.29661  -0.28924
 Alpha virt. eigenvalues --   -0.11967  -0.10845  -0.09947  -0.08179  -0.07879
 Alpha virt. eigenvalues --   -0.07805  -0.07336  -0.07227  -0.06535  -0.06444
 Alpha virt. eigenvalues --   -0.06128  -0.05630  -0.04834  -0.03978  -0.03296

 Mulliken charges:
               1
     1  N   -0.775908
     2  H    0.402680
     3  H    0.426545
     4  H    0.412645
     5  C   -0.114929
     6  H    0.208646
     7  C    0.648377
     8  C   -0.101224
     9  H    0.186357
    10  O   -0.533110
    11  C   -0.521729
    12  H    0.155929
    13  H    0.182707
    14  H    0.216531
    15  C   -0.472398
    16  H    0.164512
    17  H    0.137556
    18  H    0.190270
    19  N   -0.597161
    20  H    0.369684
    21  C   -0.086019
    22  H    0.185947
    23  C    0.636899
    24  C   -0.081794
    25  H    0.146566
    26  O   -0.552047
    27  C   -0.269837
    28  H    0.136999
    29  H    0.151538
    30  C   -0.480639
    31  H    0.185546
    32  H    0.129164
    33  H    0.170119
    34  C   -0.452753
    35  H    0.161310
    36  H    0.152008
    37  H    0.158200
    38  N   -0.615439
    39  H    0.366732
    40  C   -0.046353
    41  H    0.189888
    42  C    0.630359
    43  C   -0.390549
    44  H    0.186032
    45  H    0.198345
    46  O   -0.544287
    47  C    0.181869
    48  C   -0.197616
    49  H    0.135350
    50  C   -0.171723
    51  H    0.180500
    52  C   -0.118377
    53  H    0.154433
    54  C   -0.148298
    55  H    0.153471
    56  C   -0.230857
    57  H    0.160954
    58  N   -0.616947
    59  H    0.399347
    60  C   -0.105677
    61  H    0.204545
    62  C    0.643834
    63  C   -0.281999
    64  H    0.172772
    65  H    0.163591
    66  O   -0.554663
    67  C   -0.104795
    68  H    0.121592
    69  C   -0.462255
    70  H    0.161583
    71  H    0.136261
    72  H    0.161390
    73  C   -0.446513
    74  H    0.153441
    75  H    0.155331
    76  H    0.151702
    77  N   -0.598959
    78  H    0.351811
    79  C   -0.099817
    80  H    0.219209
    81  C    0.635948
    82  C   -0.324589
    83  H    0.206160
    84  H    0.164352
    85  O   -0.527210
    86  C   -0.329825
    87  H    0.176739
    88  H    0.174040
    89  C    0.589504
    90  O   -0.513965
    91  O   -0.574902
    92  N   -0.642539
    93  H    0.406341
    94  C   -0.094721
    95  H    0.206632
    96  C    0.649719
    97  C   -0.352644
    98  H    0.193824
    99  H    0.179682
   100  O   -0.568512
   101  C    0.568740
   102  N   -0.749914
   103  H    0.340490
   104  H    0.396900
   105  O   -0.542307
   106  N   -0.637616
   107  H    0.408918
   108  C   -0.022502
   109  H    0.185922
   110  C    0.620803
   111  C   -0.400547
   112  H    0.161636
   113  H    0.192227
   114  O   -0.545570
   115  C    0.174281
   116  C   -0.222217
   117  H    0.128090
   118  C   -0.218900
   119  H    0.181856
   120  C   -0.191487
   121  H    0.189278
   122  C   -0.176683
   123  H    0.148580
   124  O   -0.715198
   125  H    0.432656
   126  C    0.327352
   127  N   -0.606732
   128  H    0.348514
   129  C   -0.089410
   130  H    0.207383
   131  C    0.605408
   132  C   -0.267288
   133  H    0.156160
   134  H    0.162793
   135  O   -0.604934
   136  C   -0.278161
   137  H    0.155692
   138  H    0.148521
   139  C   -0.133451
   140  H    0.153469
   141  H    0.181844
   142  N   -0.598019
   143  H    0.357000
   144  N   -0.737117
   145  H    0.292848
   146  H    0.465851
   147  N   -0.796242
   148  H    0.368075
   149  H    0.333558
   150  C    0.655384
   151  O   -0.495224
   152  H    0.448850
 Sum of Mulliken charges =   1.00000

 Dipole moment (field-independent basis, Debye):
    X=            -10.4196    Y=              1.6589    Z=              9.0206  Tot=             13.8813
 Quadrupole moment (field-independent basis, Debye-Ang):
   XX=           -386.8835   YY=           -415.3800   ZZ=           -278.2244
   XY=             -0.7474   XZ=            -68.1087   YZ=             -6.4415

 Normal termination of Gaussian 16 at Sat Aug 13 18:47:58 2022.
