 Gaussian 16, Revision C.01,
 Gaussian 16:  ES64L-G16RevC.01  3-Jul-2019

 ----------------------------------------------------------------------
 # B3LYP/6-31G* empiricaldispersion=gd3bj guess=read geom=check nosymm
 integral(ultrafinegrid)
 ----------------------------------------------------------------------

 -----------------------------------------------------
 Candidate Structure: Conf:34 Charge calc in gas phase
 -----------------------------------------------------
 Structure from the checkpoint file:  "conf-34.chk"
 Charge =  1 Multiplicity = 1

                          Input orientation:
 ---------------------------------------------------------------------
 Center     Atomic      Atomic             Coordinates (Angstroms)
 Number     Number       Type             X           Y           Z
 ---------------------------------------------------------------------
      1          7           0        1.362029   -3.262038    2.293831
      2          1           0        1.608361   -4.063340    1.710641
      3          1           0        1.712648   -2.398724    1.806838
      4          1           0        1.866624   -3.368667    3.184948
      5          6           0       -0.122401   -3.053786    2.406396
      6          1           0       -0.612883   -3.983606    2.109183
      7          6           0       -0.392504   -1.927006    1.387048
      8          6           0       -0.557325   -2.665740    3.837255
      9          1           0       -1.654072   -2.652430    3.795558
     10          8           0        0.584226   -1.280841    0.974043
     11          6           0       -0.134708   -3.726730    4.863614
     12          1           0        0.939674   -3.686405    5.082418
     13          1           0       -0.647170   -3.544003    5.812421
     14          1           0       -0.391598   -4.741029    4.537510
     15          6           0       -0.086279   -1.262680    4.236308
     16          1           0        1.005953   -1.179174    4.218850
     17          1           0       -0.500404   -0.491995    3.581728
     18          1           0       -0.421996   -1.033820    5.251471
     19          7           0       -1.659214   -1.727128    1.048627
     20          1           0       -2.409790   -2.175045    1.567923
     21          6           0       -2.100442   -0.594026    0.233874
     22          1           0       -1.219015    0.002150   -0.002121
     23          6           0       -3.059677    0.188700    1.142385
     24          6           0       -2.767513   -1.052263   -1.086196
     25          1           0       -3.692855   -1.585749   -0.822001
     26          8           0       -3.823148   -0.412896    1.903605
     27          6           0       -1.833428   -2.021114   -1.834446
     28          1           0       -1.627006   -2.881140   -1.184410
     29          1           0       -0.865486   -1.536189   -2.010086
     30          6           0       -3.128898    0.176873   -1.932535
     31          1           0       -2.225361    0.730794   -2.211557
     32          1           0       -3.786334    0.869376   -1.400009
     33          1           0       -3.643638   -0.125051   -2.847911
     34          6           0       -2.396176   -2.539553   -3.159905
     35          1           0       -1.730176   -3.298002   -3.584737
     36          1           0       -3.383968   -2.997224   -3.024591
     37          1           0       -2.496999   -1.741450   -3.901655
     38          7           0       -2.943666    1.520682    1.029829
     39          1           0       -2.324113    1.880961    0.305380
     40          6           0       -3.771794    2.508541    1.725120
     41          1           0       -4.827722    2.296657    1.514939
     42          6           0       -3.409813    3.823782    0.999563
     43          6           0       -3.525819    2.418245    3.248607
     44          1           0       -2.450173    2.474370    3.440674
     45          1           0       -3.840354    1.409927    3.537725
     46          8           0       -3.260282    3.786737   -0.226915
     47          6           0       -4.241667    3.452530    4.085506
     48          6           0       -3.508608    4.267879    4.960577
     49          1           0       -2.435781    4.113465    5.054154
     50          6           0       -5.626173    3.646738    3.987510
     51          1           0       -6.214135    3.018279    3.323577
     52          6           0       -4.141193    5.263205    5.708515
     53          1           0       -3.557258    5.886868    6.379169
     54          6           0       -6.258756    4.639040    4.734401
     55          1           0       -7.332137    4.778598    4.644586
     56          6           0       -5.517804    5.454086    5.593139
     57          1           0       -6.012077    6.230248    6.169608
     58          7           0       -3.159747    4.936786    1.717839
     59          1           0       -3.251209    4.918126    2.727204
     60          6           0       -2.420599    6.061299    1.121616
     61          1           0       -2.715830    6.104575    0.072087
     62          6           0       -0.928883    5.662470    1.241768
     63          6           0       -2.745272    7.359732    1.850991
     64          1           0       -2.423760    7.259727    2.894665
     65          1           0       -3.836573    7.479399    1.853427
     66          8           0       -0.181880    6.147708    2.083904
     67          6           0       -2.091224    8.614016    1.245644
     68          1           0       -1.005390    8.461696    1.261529
     69          6           0       -2.531675    8.858953   -0.203629
     70          1           0       -3.622559    8.961672   -0.269887
     71          1           0       -2.230332    8.047468   -0.875495
     72          1           0       -2.087385    9.782342   -0.590982
     73          6           0       -2.411336    9.831654    2.120985
     74          1           0       -3.491830   10.023596    2.145679
     75          1           0       -1.922240   10.732651    1.734835
     76          1           0       -2.072804    9.679750    3.152218
     77          7           0       -0.560065    4.624879    0.428224
     78          1           0       -1.279512    4.213326   -0.163921
     79          6           0        0.521783    3.731096    0.817719
     80          1           0        1.469835    4.279551    0.827984
     81          6           0        0.568395    2.566606   -0.166236
     82          6           0        0.241929    3.139237    2.221307
     83          1           0       -0.693224    2.577057    2.164705
     84          1           0        0.082574    3.981049    2.896533
     85          8           0       -0.470433    2.056272   -0.607173
     86          6           0        1.335596    2.239564    2.798260
     87          1           0        1.429364    1.294999    2.245034
     88          1           0        2.324937    2.710205    2.765651
     89          6           0        1.011426    1.898906    4.233144
     90          8           0       -0.068507    2.024519    4.768290
     91          8           0        2.082594    1.399802    4.912544
     92          7           0        1.792109    2.077766   -0.426679
     93          1           0        2.616378    2.482350    0.007306
     94          6           0        2.010208    0.767156   -1.012776
     95          1           0        1.218291    0.091427   -0.684049
     96          6           0        3.345855    0.276866   -0.437245
     97          6           0        1.998485    0.814366   -2.551571
     98          1           0        1.100733    1.368793   -2.849479
     99          1           0        2.862446    1.355925   -2.949691
    100          8           0        4.063994    1.026701    0.231743
    101          6           0        1.898798   -0.571976   -3.180414
    102          7           0        2.217668   -0.627274   -4.489509
    103          1           0        2.216522   -1.547840   -4.910863
    104          1           0        2.883828    0.053579   -4.855723
    105          8           0        1.508324   -1.559351   -2.538381
    106          7           0        3.670595   -1.007098   -0.718697
    107          1           0        2.994605   -1.544946   -1.262168
    108          6           0        4.992268   -1.554323   -0.446866
    109          1           0        5.527332   -0.779836    0.111749
    110          6           0        5.819933   -1.782874   -1.734131
    111          6           0        4.946510   -2.841647    0.378835
    112          1           0        4.307004   -3.570622   -0.140951
    113          1           0        5.954547   -3.267421    0.346643
    114          8           0        6.781397   -2.552668   -1.731909
    115          6           0        4.491024   -2.698455    1.817896
    116          6           0        4.406163   -3.849852    2.618992
    117          1           0        4.672680   -4.814570    2.192539
    118          6           0        4.173543   -1.469197    2.415428
    119          1           0        4.239097   -0.544782    1.852369
    120          6           0        4.009100   -3.791704    3.956018
    121          1           0        3.972725   -4.683626    4.573800
    122          6           0        3.771598   -1.391698    3.751157
    123          1           0        3.523522   -0.424275    4.181168
    124          8           0        3.271616   -2.548616    5.829170
    125          1           0        3.198179   -1.631702    6.137888
    126          6           0        3.688611   -2.551610    4.527353
    127          7           0        5.438936   -1.067166   -2.808523
    128          1           0        4.723251   -0.350751   -2.759227
    129          6           0        6.207754   -1.023801   -4.037760
    130          1           0        7.248687   -0.783362   -3.783699
    131          6           0        5.657346    0.155506   -4.896194
    132          6           0        6.189503   -2.393337   -4.786416
    133          1           0        5.524620   -3.056347   -4.228439
    134          1           0        5.745045   -2.271828   -5.782565
    135          8           0        4.664908    0.776244   -4.464707
    136          6           0        7.568464   -3.071105   -4.898822
    137          1           0        8.119143   -2.890967   -3.970000
    138          1           0        7.440823   -4.156813   -4.982907
    139          6           0        8.393542   -2.624360   -6.116363
    140          1           0        9.416141   -3.008574   -6.045817
    141          1           0        7.964072   -3.037388   -7.035468
    142          7           0        8.400493   -1.170922   -6.265773
    143          1           0        7.457795   -0.695731   -6.296315
    144          7           0       10.676525   -0.672245   -5.951078
    145          1           0       11.328109   -0.102953   -5.431525
    146          1           0       10.946181   -1.627983   -6.124334
    147          7           0        9.041175    0.966243   -5.746103
    148          1           0        9.702280    1.697533   -5.966667
    149          1           0        8.039589    1.183529   -5.804416
    150          6           0        9.371714   -0.319241   -5.988994
    151          8           0        6.284845    0.388445   -5.978928
    152          1           0        1.766665    1.269629    5.827495
 ---------------------------------------------------------------------

 SCF Done:  E(RB3LYP) =  -3587.02528174     A.U. after    2 cycles

 Alpha  occ. eigenvalues --  -19.28652 -19.27869 -19.24280 -19.22793 -19.20569
 Alpha  occ. eigenvalues --  -19.20058 -19.19075 -19.18612 -19.18191 -19.18142
 Alpha  occ. eigenvalues --  -19.17465 -19.16854 -19.16527 -14.55952 -14.47743
 Alpha  occ. eigenvalues --  -14.47092 -14.45617 -14.45240 -14.44144 -14.43864
 Alpha  occ. eigenvalues --  -14.42630 -14.42443 -14.41925 -14.41679 -14.41056
 Alpha  occ. eigenvalues --  -10.42865 -10.40942 -10.40774 -10.37620 -10.37290
 Alpha  occ. eigenvalues --  -10.36814 -10.36383 -10.35601 -10.35512 -10.35393
 Alpha  occ. eigenvalues --  -10.35136 -10.34728 -10.34230 -10.32082 -10.31759
 Alpha  occ. eigenvalues --  -10.31199 -10.30767 -10.30590 -10.30469 -10.30197
 Alpha  occ. eigenvalues --  -10.29264 -10.29203 -10.29065 -10.28975 -10.28667
 Alpha  occ. eigenvalues --  -10.28619 -10.28613 -10.28431 -10.28249 -10.28010
 Alpha  occ. eigenvalues --  -10.27670 -10.26571 -10.26256 -10.26141 -10.25959
 Alpha  occ. eigenvalues --  -10.25822 -10.25667 -10.25038 -10.24683 -10.24631
 Alpha  occ. eigenvalues --  -10.24567 -10.24566 -10.24411 -10.23622 -10.23084
 Alpha  occ. eigenvalues --  -10.22852 -10.22745 -10.22579 -10.21302 -10.21015
 Alpha  occ. eigenvalues --   -1.19300  -1.16596  -1.15913  -1.12711  -1.11662
 Alpha  occ. eigenvalues --   -1.11639  -1.11013  -1.10722  -1.10478  -1.10302
 Alpha  occ. eigenvalues --   -1.10157  -1.10127  -1.09599  -1.09106  -1.03716
 Alpha  occ. eigenvalues --   -1.01962  -1.01335  -1.00641  -1.00556  -0.99487
 Alpha  occ. eigenvalues --   -0.99467  -0.99093  -0.98286  -0.98031  -0.97088
 Alpha  occ. eigenvalues --   -0.95428  -0.92985  -0.91438  -0.88496  -0.88209
 Alpha  occ. eigenvalues --   -0.87867  -0.87117  -0.86068  -0.85636  -0.84791
 Alpha  occ. eigenvalues --   -0.84779  -0.84133  -0.82726  -0.81500  -0.80995
 Alpha  occ. eigenvalues --   -0.80897  -0.80079  -0.79685  -0.79445  -0.78113
 Alpha  occ. eigenvalues --   -0.76525  -0.76290  -0.75873  -0.73999  -0.73068
 Alpha  occ. eigenvalues --   -0.72755  -0.72425  -0.72080  -0.72058  -0.71227
 Alpha  occ. eigenvalues --   -0.70603  -0.69940  -0.69831  -0.69056  -0.68715
 Alpha  occ. eigenvalues --   -0.68403  -0.68203  -0.67967  -0.67587  -0.66746
 Alpha  occ. eigenvalues --   -0.66638  -0.66462  -0.65675  -0.65035  -0.64837
 Alpha  occ. eigenvalues --   -0.64369  -0.64213  -0.64177  -0.63939  -0.63683
 Alpha  occ. eigenvalues --   -0.63225  -0.62884  -0.62051  -0.61243  -0.60709
 Alpha  occ. eigenvalues --   -0.60385  -0.60140  -0.59686  -0.59407  -0.58810
 Alpha  occ. eigenvalues --   -0.58374  -0.58199  -0.57939  -0.57375  -0.57324
 Alpha  occ. eigenvalues --   -0.57134  -0.56889  -0.56688  -0.56604  -0.56211
 Alpha  occ. eigenvalues --   -0.55967  -0.55870  -0.55472  -0.54869  -0.54607
 Alpha  occ. eigenvalues --   -0.54350  -0.54238  -0.53917  -0.53692  -0.53294
 Alpha  occ. eigenvalues --   -0.53070  -0.52957  -0.52692  -0.52561  -0.52259
 Alpha  occ. eigenvalues --   -0.52084  -0.51701  -0.51580  -0.51368  -0.51113
 Alpha  occ. eigenvalues --   -0.51022  -0.50750  -0.50550  -0.50463  -0.50326
 Alpha  occ. eigenvalues --   -0.50094  -0.49971  -0.49860  -0.49802  -0.49421
 Alpha  occ. eigenvalues --   -0.49168  -0.49012  -0.48718  -0.48565  -0.48346
 Alpha  occ. eigenvalues --   -0.48276  -0.48163  -0.47934  -0.47691  -0.47548
 Alpha  occ. eigenvalues --   -0.47415  -0.47011  -0.46910  -0.46663  -0.46563
 Alpha  occ. eigenvalues --   -0.46452  -0.46088  -0.46034  -0.45930  -0.45760
 Alpha  occ. eigenvalues --   -0.45593  -0.45287  -0.45213  -0.45086  -0.44937
 Alpha  occ. eigenvalues --   -0.44900  -0.44391  -0.44206  -0.44108  -0.43994
 Alpha  occ. eigenvalues --   -0.43724  -0.43332  -0.43172  -0.43135  -0.42670
 Alpha  occ. eigenvalues --   -0.42588  -0.42378  -0.42251  -0.42225  -0.42127
 Alpha  occ. eigenvalues --   -0.41793  -0.41597  -0.41318  -0.41082  -0.41014
 Alpha  occ. eigenvalues --   -0.40678  -0.40526  -0.40373  -0.40045  -0.39620
 Alpha  occ. eigenvalues --   -0.39207  -0.38882  -0.38366  -0.38244  -0.37983
 Alpha  occ. eigenvalues --   -0.37136  -0.36687  -0.36488  -0.36361  -0.36343
 Alpha  occ. eigenvalues --   -0.36058  -0.35528  -0.35378  -0.34833  -0.34659
 Alpha  occ. eigenvalues --   -0.34168  -0.33784  -0.33663  -0.32827  -0.32782
 Alpha  occ. eigenvalues --   -0.32373  -0.32229  -0.32181  -0.31955  -0.31547
 Alpha  occ. eigenvalues --   -0.31317  -0.31263  -0.30915  -0.30795  -0.30403
 Alpha  occ. eigenvalues --   -0.29957  -0.29662
 Alpha virt. eigenvalues --   -0.11321  -0.09833  -0.09148  -0.07945  -0.07602
 Alpha virt. eigenvalues --   -0.07545  -0.06833  -0.06638  -0.06169  -0.05827
 Alpha virt. eigenvalues --   -0.05684  -0.05393  -0.04758  -0.04538  -0.04457

 Mulliken charges:
               1
     1  N   -0.788106
     2  H    0.402189
     3  H    0.434032
     4  H    0.412850
     5  C   -0.099565
     6  H    0.200642
     7  C    0.655950
     8  C   -0.110585
     9  H    0.181806
    10  O   -0.555673
    11  C   -0.487070
    12  H    0.171226
    13  H    0.190315
    14  H    0.159003
    15  C   -0.487713
    16  H    0.144465
    17  H    0.187349
    18  H    0.181417
    19  N   -0.581732
    20  H    0.359106
    21  C   -0.116619
    22  H    0.219085
    23  C    0.630878
    24  C   -0.078324
    25  H    0.133420
    26  O   -0.562090
    27  C   -0.267238
    28  H    0.107185
    29  H    0.174167
    30  C   -0.483235
    31  H    0.169259
    32  H    0.168245
    33  H    0.160349
    34  C   -0.449865
    35  H    0.147122
    36  H    0.143720
    37  H    0.156488
    38  N   -0.658243
    39  H    0.416411
    40  C   -0.007865
    41  H    0.190330
    42  C    0.570242
    43  C   -0.397723
    44  H    0.180859
    45  H    0.198327
    46  O   -0.535084
    47  C    0.121554
    48  C   -0.226391
    49  H    0.154310
    50  C   -0.171146
    51  H    0.138441
    52  C   -0.119103
    53  H    0.144402
    54  C   -0.126561
    55  H    0.145349
    56  C   -0.129317
    57  H    0.144774
    58  N   -0.614678
    59  H    0.368832
    60  C   -0.075898
    61  H    0.192890
    62  C    0.622791
    63  C   -0.265203
    64  H    0.148305
    65  H    0.143570
    66  O   -0.524647
    67  C   -0.082720
    68  H    0.154038
    69  C   -0.452658
    70  H    0.143282
    71  H    0.142064
    72  H    0.150631
    73  C   -0.445336
    74  H    0.139979
    75  H    0.147251
    76  H    0.145168
    77  N   -0.641837
    78  H    0.385693
    79  C   -0.020556
    80  H    0.171051
    81  C    0.608725
    82  C   -0.301943
    83  H    0.166687
    84  H    0.202768
    85  O   -0.553658
    86  C   -0.387173
    87  H    0.193847
    88  H    0.191478
    89  C    0.609763
    90  O   -0.460279
    91  O   -0.580784
    92  N   -0.608346
    93  H    0.362418
    94  C   -0.079032
    95  H    0.246124
    96  C    0.602256
    97  C   -0.391488
    98  H    0.215038
    99  H    0.212558
   100  O   -0.547047
   101  C    0.585137
   102  N   -0.736268
   103  H    0.336060
   104  H    0.389912
   105  O   -0.551356
   106  N   -0.641133
   107  H    0.375397
   108  C   -0.088853
   109  H    0.214210
   110  C    0.631303
   111  C   -0.357257
   112  H    0.140677
   113  H    0.213331
   114  O   -0.544350
   115  C    0.134576
   116  C   -0.206039
   117  H    0.151741
   118  C   -0.218678
   119  H    0.198846
   120  C   -0.217403
   121  H    0.167863
   122  C   -0.230570
   123  H    0.178754
   124  O   -0.638278
   125  H    0.417445
   126  C    0.332756
   127  N   -0.643098
   128  H    0.366221
   129  C   -0.031096
   130  H    0.156438
   131  C    0.595162
   132  C   -0.295569
   133  H    0.167242
   134  H    0.153772
   135  O   -0.565919
   136  C   -0.270036
   137  H    0.181466
   138  H    0.153931
   139  C   -0.167613
   140  H    0.144411
   141  H    0.183735
   142  N   -0.606510
   143  H    0.421033
   144  N   -0.756596
   145  H    0.369546
   146  H    0.371699
   147  N   -0.778602
   148  H    0.356134
   149  H    0.408534
   150  C    0.762825
   151  O   -0.614981
   152  H    0.410110
 Sum of Mulliken charges =   1.00000

 Dipole moment (field-independent basis, Debye):
    X=             20.0194    Y=             -9.5458    Z=              0.8684  Tot=             22.1958
 Quadrupole moment (field-independent basis, Debye-Ang):
   XX=           -207.8266   YY=           -376.4619   ZZ=           -327.8118
   XY=            -40.9464   XZ=           -118.8363   YZ=              8.7835

 Normal termination of Gaussian 16 at Sat Aug 13 18:48:23 2022.
