 Gaussian 16, Revision C.01,
 Gaussian 16:  ES64L-G16RevC.01  3-Jul-2019

 ----------------------------------------------------------------------
 # B3LYP/6-31G* empiricaldispersion=gd3bj guess=read geom=check nosymm
 integral(ultrafinegrid)
 ----------------------------------------------------------------------

 ------------------------------------------------------
 Candidate Structure: Conf:727 Charge calc in gas phase
 ------------------------------------------------------
 Structure from the checkpoint file:  "conf-727.chk"
 Charge =  1 Multiplicity = 1

                          Input orientation:
 ---------------------------------------------------------------------
 Center     Atomic      Atomic             Coordinates (Angstroms)
 Number     Number       Type             X           Y           Z
 ---------------------------------------------------------------------
      1          7           0       -7.310442    0.096007    9.225812
      2          1           0       -8.294554    0.051698    9.503208
      3          1           0       -7.070864   -0.770428    8.653677
      4          1           0       -6.732886    0.153448   10.068910
      5          6           0       -7.019690    1.206359    8.234178
      6          1           0       -7.869912    1.891822    8.234594
      7          6           0       -6.913527    0.426118    6.898777
      8          6           0       -5.722411    1.951355    8.635028
      9          1           0       -5.866341    2.239352    9.687580
     10          8           0       -6.784753   -0.807095    6.971175
     11          6           0       -4.480790    1.055028    8.527808
     12          1           0       -4.282599    0.781088    7.486581
     13          1           0       -3.606150    1.592191    8.903992
     14          1           0       -4.563028    0.125698    9.104612
     15          6           0       -5.548105    3.249345    7.833551
     16          1           0       -5.291930    3.063998    6.786100
     17          1           0       -6.448616    3.873273    7.868944
     18          1           0       -4.730555    3.831110    8.268556
     19          7           0       -6.953216    1.142287    5.784513
     20          1           0       -6.928840    2.160159    5.819568
     21          6           0       -6.627385    0.633912    4.448970
     22          1           0       -6.177860   -0.355047    4.562832
     23          6           0       -5.605218    1.652383    3.912422
     24          6           0       -7.893310    0.553346    3.554557
     25          1           0       -8.301155    1.572940    3.513890
     26          8           0       -5.656125    2.825844    4.302523
     27          6           0       -8.975963   -0.353208    4.175594
     28          1           0       -9.882454   -0.232828    3.569826
     29          1           0       -9.231185    0.025662    5.173497
     30          6           0       -7.542537    0.125699    2.121979
     31          1           0       -6.982754   -0.816349    2.101091
     32          1           0       -6.946900    0.879988    1.602138
     33          1           0       -8.460724   -0.027317    1.546487
     34          6           0       -8.623648   -1.841517    4.267425
     35          1           0       -9.463934   -2.400898    4.691537
     36          1           0       -8.413982   -2.270268    3.282463
     37          1           0       -7.757235   -2.017505    4.912736
     38          7           0       -4.706506    1.192032    3.034751
     39          1           0       -4.706047    0.229844    2.705119
     40          6           0       -3.732799    2.044116    2.373746
     41          1           0       -4.215322    2.986775    2.099644
     42          6           0       -3.290242    1.278129    1.120156
     43          6           0       -2.531312    2.352578    3.312436
     44          1           0       -2.097456    1.399923    3.634149
     45          1           0       -2.948880    2.850022    4.194156
     46          8           0       -3.450876    0.051245    1.060944
     47          6           0       -1.489494    3.209744    2.638172
     48          6           0       -0.264170    2.664646    2.241296
     49          1           0       -0.030886    1.633329    2.491288
     50          6           0       -1.784374    4.537315    2.294480
     51          1           0       -2.726874    4.979138    2.611498
     52          6           0        0.642388    3.417364    1.495431
     53          1           0        1.573181    2.967685    1.168620
     54          6           0       -0.879215    5.292787    1.547234
     55          1           0       -1.119314    6.319137    1.285029
     56          6           0        0.332815    4.730379    1.139982
     57          1           0        1.032573    5.313359    0.549297
     58          7           0       -2.729146    2.012140    0.141910
     59          1           0       -2.487737    2.975585    0.348192
     60          6           0       -2.073272    1.396520   -1.018282
     61          1           0       -2.678759    0.524610   -1.276994
     62          6           0       -0.668820    0.912099   -0.612054
     63          6           0       -2.032589    2.380509   -2.185127
     64          1           0       -1.506101    3.287864   -1.863417
     65          1           0       -3.069242    2.663534   -2.411793
     66          8           0        0.362238    1.483035   -0.955003
     67          6           0       -1.352129    1.844255   -3.461412
     68          1           0       -0.277932    1.800337   -3.257288
     69          6           0       -1.823199    0.431164   -3.833417
     70          1           0       -2.917160    0.379011   -3.910386
     71          1           0       -1.492386   -0.319442   -3.106319
     72          1           0       -1.421245    0.135667   -4.810376
     73          6           0       -1.585161    2.826206   -4.615007
     74          1           0       -2.648462    2.878105   -4.882196
     75          1           0       -1.031872    2.519094   -5.509734
     76          1           0       -1.255199    3.837368   -4.350275
     77          7           0       -0.661449   -0.193312    0.173827
     78          1           0       -1.538628   -0.658411    0.377560
     79          6           0        0.601336   -0.820790    0.510292
     80          1           0        1.213812   -0.111410    1.069289
     81          6           0        1.338899   -1.188286   -0.787150
     82          6           0        0.347986   -2.060004    1.389321
     83          1           0       -0.478999   -2.635461    0.957491
     84          1           0        0.032007   -1.709178    2.377225
     85          8           0        0.751107   -1.754500   -1.717539
     86          6           0        1.554398   -2.998520    1.516435
     87          1           0        1.361126   -3.752770    2.289159
     88          1           0        1.715320   -3.551101    0.585831
     89          6           0        2.842520   -2.274067    1.857631
     90          8           0        2.899379   -1.164508    2.353942
     91          8           0        3.920611   -2.983112    1.494658
     92          7           0        2.647249   -0.876323   -0.805945
     93          1           0        3.078134   -0.435700    0.001397
     94          6           0        3.578058   -1.268307   -1.845588
     95          1           0        3.165460   -2.134522   -2.370701
     96          6           0        4.919907   -1.609735   -1.175419
     97          6           0        3.925157   -0.127621   -2.837024
     98          1           0        4.210834    0.755947   -2.255400
     99          1           0        4.813374   -0.425679   -3.409915
    100          8           0        5.215324   -1.115456   -0.083091
    101          6           0        2.932947    0.347018   -3.885172
    102          7           0        1.750135   -0.275876   -4.011280
    103          1           0        1.101465    0.112203   -4.683035
    104          1           0        1.374780   -0.914442   -3.303842
    105          8           0        3.282422    1.271235   -4.639755
    106          7           0        5.742247   -2.360335   -1.935615
    107          1           0        5.426780   -2.533235   -2.891058
    108          6           0        7.174222   -2.069284   -1.953731
    109          1           0        7.357450   -1.287946   -1.211136
    110          6           0        7.415967   -1.524259   -3.381242
    111          6           0        8.082716   -3.278833   -1.629798
    112          1           0        9.080089   -2.893170   -1.392537
    113          1           0        7.695237   -3.746552   -0.717953
    114          8           0        6.489317   -1.573395   -4.214693
    115          6           0        8.181018   -4.273763   -2.760467
    116          6           0        7.185181   -5.236342   -2.969171
    117          1           0        6.356333   -5.305487   -2.268709
    118          6           0        9.245317   -4.208969   -3.668779
    119          1           0       10.026348   -3.463854   -3.537219
    120          6           0        7.237776   -6.109166   -4.051668
    121          1           0        6.471215   -6.860576   -4.211348
    122          6           0        9.309570   -5.076919   -4.756639
    123          1           0       10.145203   -5.014743   -5.451138
    124          8           0        8.312774   -6.906601   -6.001281
    125          1           0        9.117799   -6.760220   -6.521834
    126          6           0        8.304302   -6.028298   -4.951905
    127          7           0        8.611803   -1.020361   -3.627819
    128          1           0        9.420371   -1.050874   -2.984613
    129          6           0        9.097972   -0.622663   -4.936956
    130          1           0        9.137170   -1.505984   -5.590016
    131          6           0       10.586199   -0.133133   -4.705986
    132          6           0        8.218656    0.430695   -5.602349
    133          1           0        8.813034    0.783802   -6.457920
    134          1           0        7.294980   -0.047900   -5.941506
    135          8           0       11.036448    0.623332   -5.584165
    136          6           0        7.892635    1.604720   -4.679373
    137          1           0        7.450759    1.230070   -3.748990
    138          1           0        8.822551    2.119807   -4.414098
    139          6           0        6.934170    2.626657   -5.294728
    140          1           0        6.678667    3.410022   -4.575141
    141          1           0        7.376113    3.126082   -6.162394
    142          7           0        5.656526    2.027344   -5.725779
    143          1           0        4.952426    1.818349   -5.017236
    144          7           0        6.321705    1.608773   -7.916691
    145          1           0        6.065852    1.332954   -8.853267
    146          1           0        7.294418    1.494671   -7.659392
    147          7           0        4.129734    1.201332   -7.259289
    148          1           0        4.011029    0.515231   -7.991478
    149          1           0        3.452561    1.166627   -6.499389
    150          6           0        5.386579    1.588669   -6.946882
    151          8           0       11.107190   -0.593668   -3.652038
    152          1           0        4.686745   -2.369193    1.483170
 ---------------------------------------------------------------------

 SCF Done:  E(RB3LYP) =  -3586.94859332     A.U. after    1 cycles

 Alpha  occ. eigenvalues --  -19.27949 -19.24184 -19.22941 -19.21863 -19.20199
 Alpha  occ. eigenvalues --  -19.20054 -19.19400 -19.18982 -19.18707 -19.18529
 Alpha  occ. eigenvalues --  -19.14810 -19.05597 -19.04861 -14.60899 -14.50566
 Alpha  occ. eigenvalues --  -14.46788 -14.45490 -14.45015 -14.44163 -14.43870
 Alpha  occ. eigenvalues --  -14.43049 -14.42772 -14.42657 -14.40575 -14.36782
 Alpha  occ. eigenvalues --  -10.44622 -10.41521 -10.40878 -10.39993 -10.38612
 Alpha  occ. eigenvalues --  -10.37726 -10.37435 -10.35867 -10.35452 -10.35450
 Alpha  occ. eigenvalues --  -10.35207 -10.35156 -10.33450 -10.31350 -10.31229
 Alpha  occ. eigenvalues --  -10.30841 -10.30823 -10.30498 -10.30066 -10.30047
 Alpha  occ. eigenvalues --  -10.28398 -10.28357 -10.27799 -10.27459 -10.27084
 Alpha  occ. eigenvalues --  -10.27065 -10.27048 -10.27003 -10.26575 -10.26535
 Alpha  occ. eigenvalues --  -10.26447 -10.26445 -10.26080 -10.25965 -10.25964
 Alpha  occ. eigenvalues --  -10.25891 -10.25506 -10.24978 -10.23739 -10.23673
 Alpha  occ. eigenvalues --  -10.23261 -10.22427 -10.21793 -10.21370 -10.21336
 Alpha  occ. eigenvalues --  -10.21188 -10.20955 -10.20885 -10.20738 -10.20062
 Alpha  occ. eigenvalues --   -1.20438  -1.15654  -1.15221  -1.14661  -1.13542
 Alpha  occ. eigenvalues --   -1.11756  -1.11303  -1.10381  -1.09827  -1.09484
 Alpha  occ. eigenvalues --   -1.08054  -1.07349  -1.06782  -1.06453  -1.03472
 Alpha  occ. eigenvalues --   -1.02043  -0.99795  -0.99425  -0.98886  -0.98698
 Alpha  occ. eigenvalues --   -0.98054  -0.97912  -0.97636  -0.96259  -0.93820
 Alpha  occ. eigenvalues --   -0.93399  -0.92095  -0.90090  -0.88891  -0.87728
 Alpha  occ. eigenvalues --   -0.87584  -0.87406  -0.87256  -0.85424  -0.84188
 Alpha  occ. eigenvalues --   -0.83258  -0.82908  -0.82214  -0.81754  -0.81665
 Alpha  occ. eigenvalues --   -0.81215  -0.80517  -0.79411  -0.77380  -0.76880
 Alpha  occ. eigenvalues --   -0.76471  -0.76457  -0.75428  -0.74808  -0.74754
 Alpha  occ. eigenvalues --   -0.74624  -0.73833  -0.73113  -0.72360  -0.72170
 Alpha  occ. eigenvalues --   -0.71039  -0.70087  -0.69809  -0.69709  -0.68715
 Alpha  occ. eigenvalues --   -0.68003  -0.67876  -0.67486  -0.67062  -0.66513
 Alpha  occ. eigenvalues --   -0.66047  -0.65956  -0.65697  -0.65423  -0.64668
 Alpha  occ. eigenvalues --   -0.64266  -0.64068  -0.63719  -0.63249  -0.63089
 Alpha  occ. eigenvalues --   -0.62571  -0.62248  -0.61737  -0.60999  -0.60703
 Alpha  occ. eigenvalues --   -0.60070  -0.59948  -0.59292  -0.59078  -0.58505
 Alpha  occ. eigenvalues --   -0.58351  -0.58109  -0.57760  -0.57628  -0.57598
 Alpha  occ. eigenvalues --   -0.57203  -0.56938  -0.56428  -0.55978  -0.55677
 Alpha  occ. eigenvalues --   -0.55586  -0.55088  -0.54890  -0.54658  -0.54237
 Alpha  occ. eigenvalues --   -0.54114  -0.53917  -0.53565  -0.53185  -0.53047
 Alpha  occ. eigenvalues --   -0.52866  -0.52615  -0.52416  -0.52252  -0.52223
 Alpha  occ. eigenvalues --   -0.51990  -0.51777  -0.51539  -0.51186  -0.50625
 Alpha  occ. eigenvalues --   -0.50436  -0.50245  -0.49980  -0.49843  -0.49630
 Alpha  occ. eigenvalues --   -0.49479  -0.49125  -0.49099  -0.48976  -0.48795
 Alpha  occ. eigenvalues --   -0.48639  -0.48370  -0.48200  -0.48176  -0.48094
 Alpha  occ. eigenvalues --   -0.48011  -0.47940  -0.47743  -0.47671  -0.47388
 Alpha  occ. eigenvalues --   -0.47339  -0.47218  -0.47008  -0.46832  -0.46437
 Alpha  occ. eigenvalues --   -0.45636  -0.45564  -0.45399  -0.45283  -0.45135
 Alpha  occ. eigenvalues --   -0.44993  -0.44840  -0.44426  -0.44305  -0.44196
 Alpha  occ. eigenvalues --   -0.43797  -0.43470  -0.43206  -0.43134  -0.43065
 Alpha  occ. eigenvalues --   -0.42774  -0.42639  -0.42556  -0.42545  -0.42306
 Alpha  occ. eigenvalues --   -0.42195  -0.42028  -0.41892  -0.41540  -0.41405
 Alpha  occ. eigenvalues --   -0.41379  -0.41152  -0.41043  -0.40010  -0.39494
 Alpha  occ. eigenvalues --   -0.39465  -0.39166  -0.39029  -0.38731  -0.38339
 Alpha  occ. eigenvalues --   -0.37245  -0.37135  -0.36983  -0.36813  -0.36790
 Alpha  occ. eigenvalues --   -0.36740  -0.36091  -0.35915  -0.35782  -0.35544
 Alpha  occ. eigenvalues --   -0.35426  -0.35054  -0.34952  -0.34600  -0.33959
 Alpha  occ. eigenvalues --   -0.33560  -0.33410  -0.33152  -0.32941  -0.32388
 Alpha  occ. eigenvalues --   -0.32062  -0.31752  -0.31541  -0.31391  -0.31100
 Alpha  occ. eigenvalues --   -0.28893  -0.27660  -0.27084  -0.23932  -0.20963
 Alpha  occ. eigenvalues --   -0.20340  -0.19264
 Alpha virt. eigenvalues --   -0.13377  -0.12102  -0.09433  -0.07992  -0.07746
 Alpha virt. eigenvalues --   -0.07733  -0.07491  -0.05943  -0.05775  -0.05610
 Alpha virt. eigenvalues --   -0.05386  -0.05093  -0.04803  -0.04136  -0.02597

 Mulliken charges:
               1
     1  N   -0.760635
     2  H    0.418036
     3  H    0.436645
     4  H    0.413160
     5  C   -0.109018
     6  H    0.212014
     7  C    0.651750
     8  C   -0.111996
     9  H    0.160446
    10  O   -0.545172
    11  C   -0.469349
    12  H    0.182670
    13  H    0.196582
    14  H    0.143139
    15  C   -0.491330
    16  H    0.198460
    17  H    0.163797
    18  H    0.190627
    19  N   -0.588106
    20  H    0.375698
    21  C   -0.087805
    22  H    0.189670
    23  C    0.636272
    24  C   -0.072834
    25  H    0.146005
    26  O   -0.555700
    27  C   -0.258038
    28  H    0.158142
    29  H    0.117795
    30  C   -0.478432
    31  H    0.158243
    32  H    0.165173
    33  H    0.172748
    34  C   -0.471774
    35  H    0.158322
    36  H    0.161022
    37  H    0.164207
    38  N   -0.612069
    39  H    0.366581
    40  C   -0.048830
    41  H    0.188048
    42  C    0.629913
    43  C   -0.345812
    44  H    0.156429
    45  H    0.176508
    46  O   -0.567691
    47  C    0.135605
    48  C   -0.188973
    49  H    0.144850
    50  C   -0.217151
    51  H    0.137920
    52  C   -0.105326
    53  H    0.159777
    54  C   -0.130787
    55  H    0.147196
    56  C   -0.133589
    57  H    0.150428
    58  N   -0.601952
    59  H    0.358724
    60  C   -0.084367
    61  H    0.186687
    62  C    0.664947
    63  C   -0.271968
    64  H    0.152680
    65  H    0.140671
    66  O   -0.543217
    67  C   -0.088530
    68  H    0.165853
    69  C   -0.475322
    70  H    0.145654
    71  H    0.164705
    72  H    0.135470
    73  C   -0.445464
    74  H    0.143275
    75  H    0.138669
    76  H    0.149065
    77  N   -0.637665
    78  H    0.364115
    79  C   -0.020012
    80  H    0.192355
    81  C    0.634144
    82  C   -0.292159
    83  H    0.161489
    84  H    0.162267
    85  O   -0.575239
    86  C   -0.375212
    87  H    0.190018
    88  H    0.195027
    89  C    0.592454
    90  O   -0.482711
    91  O   -0.570464
    92  N   -0.585359
    93  H    0.369972
    94  C   -0.088527
    95  H    0.187877
    96  C    0.602994
    97  C   -0.403103
    98  H    0.192083
    99  H    0.236038
   100  O   -0.556184
   101  C    0.628363
   102  N   -0.771273
   103  H    0.344342
   104  H    0.414258
   105  O   -0.573750
   106  N   -0.561225
   107  H    0.355714
   108  C   -0.093550
   109  H    0.187137
   110  C    0.640377
   111  C   -0.354758
   112  H    0.171623
   113  H    0.158264
   114  O   -0.587681
   115  C    0.147145
   116  C   -0.190411
   117  H    0.121813
   118  C   -0.196260
   119  H    0.171746
   120  C   -0.158545
   121  H    0.133525
   122  C   -0.199151
   123  H    0.131647
   124  O   -0.645028
   125  H    0.409093
   126  C    0.351530
   127  N   -0.609570
   128  H    0.361135
   129  C   -0.055071
   130  H    0.146752
   131  C    0.580909
   132  C   -0.306458
   133  H    0.156045
   134  H    0.135314
   135  O   -0.590730
   136  C   -0.250943
   137  H    0.138192
   138  H    0.189459
   139  C   -0.191919
   140  H    0.173050
   141  H    0.173962
   142  N   -0.582607
   143  H    0.399281
   144  N   -0.752114
   145  H    0.360244
   146  H    0.390848
   147  N   -0.778203
   148  H    0.349444
   149  H    0.392624
   150  C    0.763041
   151  O   -0.612691
   152  H    0.441825
 Sum of Mulliken charges =   1.00000

 Dipole moment (field-independent basis, Debye):
    X=            -44.3246    Y=              6.5067    Z=             27.9681  Tot=             52.8131
 Quadrupole moment (field-independent basis, Debye-Ang):
   XX=           -435.3109   YY=           -423.9071   ZZ=            -45.2058
   XY=            -22.3927   XZ=           -223.0061   YZ=             12.6119

 Normal termination of Gaussian 16 at Sat Aug 13 18:48:10 2022.
