 Gaussian 16, Revision C.01,
 Gaussian 16:  ES64L-G16RevC.01  3-Jul-2019

 ----------------------------------------------------------------------
 # B3LYP/6-31G* empiricaldispersion=gd3bj guess=read geom=check nosymm
 integral(ultrafinegrid)
 ----------------------------------------------------------------------

 ------------------------------------------------------
 Candidate Structure: Conf:869 Charge calc in gas phase
 ------------------------------------------------------
 Structure from the checkpoint file:  "conf-869.chk"
 Charge =  1 Multiplicity = 1

                          Input orientation:
 ---------------------------------------------------------------------
 Center     Atomic      Atomic             Coordinates (Angstroms)
 Number     Number       Type             X           Y           Z
 ---------------------------------------------------------------------
      1          7           0       -8.472988    1.068396    6.850083
      2          1           0       -8.360390    0.044057    6.835346
      3          1           0       -7.512766    1.440643    6.973706
      4          1           0       -9.048663    1.374954    7.637717
      5          6           0       -9.049701    1.469933    5.518345
      6          1           0      -10.072663    1.075812    5.504859
      7          6           0       -8.206942    0.651666    4.517737
      8          6           0       -9.068988    2.999565    5.354302
      9          1           0       -9.580624    3.180217    4.399239
     10          8           0       -7.578024   -0.317153    4.949496
     11          6           0       -9.923869    3.659587    6.447190
     12          1           0       -9.428868    3.625718    7.426318
     13          1           0      -10.076977    4.716756    6.215125
     14          1           0      -10.911409    3.193152    6.537065
     15          6           0       -7.663298    3.618849    5.292321
     16          1           0       -7.123445    3.509570    6.241105
     17          1           0       -7.042741    3.192479    4.500519
     18          1           0       -7.747875    4.692147    5.101194
     19          7           0       -8.235974    1.043419    3.234845
     20          1           0       -8.652288    1.940033    3.020651
     21          6           0       -7.190630    0.607143    2.292752
     22          1           0       -6.978149   -0.436136    2.528004
     23          6           0       -5.960559    1.469601    2.618976
     24          6           0       -7.648991    0.693221    0.824283
     25          1           0       -8.387367   -0.112386    0.708709
     26          8           0       -5.786922    2.577906    2.119789
     27          6           0       -6.470662    0.402302   -0.129783
     28          1           0       -5.809656    1.276356   -0.148050
     29          1           0       -6.889224    0.310455   -1.138625
     30          6           0       -8.329530    2.017129    0.449815
     31          1           0       -7.648726    2.860007    0.582719
     32          1           0       -9.241401    2.199124    1.033495
     33          1           0       -8.638951    1.983676   -0.599249
     34          6           0       -5.654173   -0.854183    0.190958
     35          1           0       -4.914076   -1.033344   -0.594990
     36          1           0       -5.095254   -0.771115    1.130316
     37          1           0       -6.291286   -1.744616    0.252349
     38          7           0       -5.133323    0.958360    3.577586
     39          1           0       -5.232446   -0.020682    3.816327
     40          6           0       -3.792764    1.529372    3.692533
     41          1           0       -3.914642    2.602942    3.537425
     42          6           0       -2.966369    0.879369    2.570669
     43          6           0       -3.147190    1.261203    5.056953
     44          1           0       -2.145967    1.705034    5.018980
     45          1           0       -3.003121    0.182901    5.179252
     46          8           0       -2.782109   -0.342330    2.581155
     47          6           0       -3.922465    1.832161    6.219364
     48          6           0       -3.736820    3.161679    6.616886
     49          1           0       -3.026350    3.783164    6.077955
     50          6           0       -4.830258    1.043055    6.936851
     51          1           0       -4.971596    0.002539    6.657132
     52          6           0       -4.439694    3.699779    7.695812
     53          1           0       -4.275271    4.732886    7.986139
     54          6           0       -5.498855    1.562479    8.050864
     55          1           0       -6.112177    0.906389    8.664118
     56          6           0       -5.318612    2.898362    8.425279
     57          1           0       -5.827727    3.297641    9.297613
     58          7           0       -2.562993    1.689924    1.570533
     59          1           0       -2.694540    2.689222    1.641375
     60          6           0       -1.863186    1.146669    0.407304
     61          1           0       -2.212549    0.116827    0.321285
     62          6           0       -0.351517    1.123242    0.672217
     63          6           0       -2.188945    1.921420   -0.864416
     64          1           0       -1.816786    2.946869   -0.753251
     65          1           0       -3.281593    1.971090   -0.966336
     66          8           0        0.385073    2.051855    0.344831
     67          6           0       -1.576652    1.299142   -2.134563
     68          1           0       -0.492012    1.236065   -1.993453
     69          6           0       -2.087246   -0.121616   -2.399627
     70          1           0       -3.176490   -0.131356   -2.543032
     71          1           0       -1.836358   -0.807851   -1.584665
     72          1           0       -1.625758   -0.527243   -3.305475
     73          6           0       -1.846560    2.212647   -3.334959
     74          1           0       -2.923882    2.320392   -3.515162
     75          1           0       -1.393445    1.806570   -4.245248
     76          1           0       -1.435127    3.216421   -3.173839
     77          7           0        0.094413    0.007332    1.290331
     78          1           0       -0.579884   -0.707657    1.534921
     79          6           0        1.507818   -0.335505    1.271892
     80          1           0        2.064095    0.375617    1.894756
     81          6           0        2.006323   -0.257115   -0.187020
     82          6           0        1.674199   -1.757241    1.819857
     83          1           0        1.058895   -2.437635    1.223192
     84          1           0        1.285866   -1.782861    2.843999
     85          8           0        1.370833   -0.773452   -1.098858
     86          6           0        3.118690   -2.253648    1.811983
     87          1           0        3.523088   -2.285653    0.792270
     88          1           0        3.790821   -1.596859    2.375753
     89          6           0        3.218266   -3.655510    2.374649
     90          8           0        2.283400   -4.399693    2.571795
     91          8           0        4.500813   -3.994595    2.620566
     92          7           0        3.176061    0.410629   -0.351586
     93          1           0        3.719156    0.661705    0.468812
     94          6           0        3.984945    0.313854   -1.557342
     95          1           0        3.460291   -0.343267   -2.254591
     96          6           0        5.334498   -0.276945   -1.120088
     97          6           0        4.220911    1.693144   -2.206960
     98          1           0        4.577147    2.382493   -1.433374
     99          1           0        4.999438    1.599570   -2.967543
    100          8           0        5.855162    0.102364   -0.067353
    101          6           0        2.996296    2.257992   -2.924916
    102          7           0        1.962084    2.633326   -2.127325
    103          1           0        1.122315    2.954160   -2.586930
    104          1           0        1.891044    2.391597   -1.147270
    105          8           0        2.971737    2.377782   -4.144915
    106          7           0        5.862030   -1.187437   -1.950688
    107          1           0        5.382966   -1.505075   -2.789548
    108          6           0        7.087114   -1.919397   -1.677789
    109          1           0        7.856909   -1.224357   -1.330770
    110          6           0        7.465674   -2.583461   -3.006697
    111          6           0        6.853205   -2.997793   -0.580568
    112          1           0        6.275054   -2.516710    0.212888
    113          1           0        6.234722   -3.791595   -1.014425
    114          8           0        6.572854   -2.834906   -3.833388
    115          6           0        8.141579   -3.536983   -0.014327
    116          6           0        8.812063   -4.621838   -0.595539
    117          1           0        8.386166   -5.144723   -1.446617
    118          6           0        8.756439   -2.874529    1.053261
    119          1           0        8.262756   -2.016557    1.504494
    120          6           0       10.065390   -5.024980   -0.150808
    121          1           0       10.597249   -5.808569   -0.677744
    122          6           0        9.994105   -3.291917    1.538798
    123          1           0       10.456076   -2.773313    2.377284
    124          8           0       11.872464   -4.812242    1.362819
    125          1           0       12.170550   -4.243683    2.088310
    126          6           0       10.651212   -4.368821    0.934423
    127          7           0        8.757912   -2.881325   -3.185212
    128          1           0        9.446909   -2.694007   -2.460721
    129          6           0        9.235527   -3.866073   -4.160131
    130          1           0        8.401312   -4.514421   -4.436368
    131          6           0       10.373494   -4.668845   -3.409172
    132          6           0        9.797744   -3.163661   -5.395153
    133          1           0       10.629488   -2.530766   -5.066932
    134          1           0       10.217252   -3.927398   -6.065848
    135          8           0       10.187498   -5.894795   -3.292787
    136          6           0        8.729710   -2.345493   -6.123888
    137          1           0        7.890397   -2.997142   -6.396007
    138          1           0        8.310436   -1.597612   -5.443749
    139          6           0        9.285088   -1.645151   -7.360473
    140          1           0       10.066175   -0.930177   -7.091636
    141          1           0        9.747526   -2.347426   -8.064402
    142          7           0        8.259916   -0.872419   -8.101721
    143          1           0        8.043684    0.042836   -7.725135
    144          7           0        7.264001   -2.748298   -9.053838
    145          1           0        6.719245   -3.141574   -9.806587
    146          1           0        7.939859   -3.354941   -8.613533
    147          7           0        6.338108   -0.646286   -9.376480
    148          1           0        5.655010   -1.043882  -10.004763
    149          1           0        6.508832    0.343589   -9.485160
    150          6           0        7.304729   -1.426640   -8.846802
    151          8           0       11.282241   -3.912810   -2.989929
    152          1           0        4.500506   -4.920195    2.927275
 ---------------------------------------------------------------------

 SCF Done:  E(RB3LYP) =  -3586.87605278     A.U. after    1 cycles

 Alpha  occ. eigenvalues --  -19.27010 -19.23232 -19.22475 -19.20344 -19.18071
 Alpha  occ. eigenvalues --  -19.17761 -19.16853 -19.16168 -19.14801 -19.13503
 Alpha  occ. eigenvalues --  -19.12782 -19.03174 -19.03114 -14.60905 -14.50386
 Alpha  occ. eigenvalues --  -14.50059 -14.50014 -14.49423 -14.46616 -14.45228
 Alpha  occ. eigenvalues --  -14.41980 -14.40667 -14.38813 -14.37488 -14.35976
 Alpha  occ. eigenvalues --  -10.46068 -10.44112 -10.41139 -10.39400 -10.37492
 Alpha  occ. eigenvalues --  -10.36031 -10.35365 -10.34791 -10.34389 -10.33389
 Alpha  occ. eigenvalues --  -10.33230 -10.31915 -10.31911 -10.31412 -10.31403
 Alpha  occ. eigenvalues --  -10.30802 -10.30653 -10.30610 -10.30358 -10.30315
 Alpha  occ. eigenvalues --  -10.29879 -10.29825 -10.29765 -10.29600 -10.29287
 Alpha  occ. eigenvalues --  -10.29074 -10.29044 -10.27611 -10.26363 -10.26319
 Alpha  occ. eigenvalues --  -10.25063 -10.25036 -10.24861 -10.24810 -10.24682
 Alpha  occ. eigenvalues --  -10.23791 -10.23771 -10.23561 -10.23062 -10.22209
 Alpha  occ. eigenvalues --  -10.22042 -10.21732 -10.20165 -10.20072 -10.19992
 Alpha  occ. eigenvalues --  -10.18539 -10.18358 -10.18318 -10.17386 -10.16507
 Alpha  occ. eigenvalues --   -1.19759  -1.15186  -1.14702  -1.14545  -1.14256
 Alpha  occ. eigenvalues --   -1.12229  -1.10113  -1.08133  -1.07057  -1.06692
 Alpha  occ. eigenvalues --   -1.05312  -1.05310  -1.04896  -1.04418  -1.03586
 Alpha  occ. eigenvalues --   -1.03136  -1.03071  -1.01205  -0.98656  -0.97288
 Alpha  occ. eigenvalues --   -0.96898  -0.96723  -0.96283  -0.95361  -0.92377
 Alpha  occ. eigenvalues --   -0.92245  -0.91424  -0.89594  -0.88195  -0.87433
 Alpha  occ. eigenvalues --   -0.87367  -0.85881  -0.85796  -0.85631  -0.84724
 Alpha  occ. eigenvalues --   -0.84705  -0.82708  -0.82455  -0.82215  -0.81249
 Alpha  occ. eigenvalues --   -0.80514  -0.79690  -0.78712  -0.78037  -0.75858
 Alpha  occ. eigenvalues --   -0.75752  -0.75581  -0.74062  -0.73851  -0.73751
 Alpha  occ. eigenvalues --   -0.73656  -0.73182  -0.72184  -0.72114  -0.71922
 Alpha  occ. eigenvalues --   -0.71876  -0.71601  -0.71062  -0.70439  -0.69719
 Alpha  occ. eigenvalues --   -0.69259  -0.68481  -0.67730  -0.67611  -0.67364
 Alpha  occ. eigenvalues --   -0.66497  -0.65756  -0.65273  -0.63642  -0.63586
 Alpha  occ. eigenvalues --   -0.63161  -0.62873  -0.62866  -0.62583  -0.62355
 Alpha  occ. eigenvalues --   -0.61800  -0.61495  -0.61295  -0.60909  -0.60859
 Alpha  occ. eigenvalues --   -0.60469  -0.59689  -0.59140  -0.58928  -0.58764
 Alpha  occ. eigenvalues --   -0.58308  -0.58002  -0.57789  -0.57213  -0.56799
 Alpha  occ. eigenvalues --   -0.56492  -0.56194  -0.56107  -0.55758  -0.55618
 Alpha  occ. eigenvalues --   -0.55604  -0.55428  -0.54689  -0.54069  -0.53606
 Alpha  occ. eigenvalues --   -0.53354  -0.53060  -0.53023  -0.52927  -0.52758
 Alpha  occ. eigenvalues --   -0.52252  -0.52039  -0.51998  -0.51888  -0.51708
 Alpha  occ. eigenvalues --   -0.51503  -0.51299  -0.50791  -0.50693  -0.50565
 Alpha  occ. eigenvalues --   -0.50512  -0.50124  -0.49685  -0.49438  -0.49016
 Alpha  occ. eigenvalues --   -0.48856  -0.48752  -0.48535  -0.48403  -0.48344
 Alpha  occ. eigenvalues --   -0.47980  -0.47845  -0.47593  -0.47244  -0.47057
 Alpha  occ. eigenvalues --   -0.46929  -0.46875  -0.46403  -0.46333  -0.46059
 Alpha  occ. eigenvalues --   -0.45819  -0.45586  -0.45429  -0.45208  -0.44787
 Alpha  occ. eigenvalues --   -0.44693  -0.44603  -0.44271  -0.44240  -0.43776
 Alpha  occ. eigenvalues --   -0.43742  -0.43450  -0.43276  -0.42847  -0.42678
 Alpha  occ. eigenvalues --   -0.42469  -0.42319  -0.42116  -0.42016  -0.41818
 Alpha  occ. eigenvalues --   -0.41708  -0.41589  -0.41519  -0.41363  -0.41299
 Alpha  occ. eigenvalues --   -0.41252  -0.41026  -0.40917  -0.40447  -0.40291
 Alpha  occ. eigenvalues --   -0.40254  -0.39881  -0.39496  -0.39091  -0.38761
 Alpha  occ. eigenvalues --   -0.38491  -0.38250  -0.37907  -0.37639  -0.37383
 Alpha  occ. eigenvalues --   -0.37368  -0.37301  -0.36498  -0.36374  -0.36247
 Alpha  occ. eigenvalues --   -0.35590  -0.35536  -0.35352  -0.35181  -0.34862
 Alpha  occ. eigenvalues --   -0.34796  -0.33551  -0.33284  -0.32571  -0.32457
 Alpha  occ. eigenvalues --   -0.32297  -0.31669  -0.31509  -0.31200  -0.30727
 Alpha  occ. eigenvalues --   -0.29924  -0.29082  -0.28871  -0.28306  -0.26993
 Alpha  occ. eigenvalues --   -0.26921  -0.26597  -0.23812  -0.20858  -0.19065
 Alpha  occ. eigenvalues --   -0.17767  -0.17141
 Alpha virt. eigenvalues --   -0.14076  -0.12433  -0.11311  -0.10393  -0.10202
 Alpha virt. eigenvalues --   -0.09239  -0.06745  -0.06511  -0.06250  -0.04839
 Alpha virt. eigenvalues --   -0.04610  -0.03085  -0.03057  -0.02836  -0.02584

 Mulliken charges:
               1
     1  N   -0.751868
     2  H    0.425009
     3  H    0.418978
     4  H    0.411218
     5  C   -0.131671
     6  H    0.226458
     7  C    0.666669
     8  C   -0.120962
     9  H    0.175427
    10  O   -0.541612
    11  C   -0.477567
    12  H    0.145814
    13  H    0.203193
    14  H    0.169912
    15  C   -0.499471
    16  H    0.161945
    17  H    0.194921
    18  H    0.191342
    19  N   -0.609372
    20  H    0.360934
    21  C   -0.075442
    22  H    0.192367
    23  C    0.626765
    24  C   -0.080541
    25  H    0.147190
    26  O   -0.532192
    27  C   -0.281204
    28  H    0.168442
    29  H    0.153012
    30  C   -0.488184
    31  H    0.193648
    32  H    0.121250
    33  H    0.172504
    34  C   -0.482370
    35  H    0.173643
    36  H    0.153462
    37  H    0.151923
    38  N   -0.589066
    39  H    0.355719
    40  C   -0.057318
    41  H    0.176063
    42  C    0.646656
    43  C   -0.394867
    44  H    0.180701
    45  H    0.188143
    46  O   -0.557157
    47  C    0.191314
    48  C   -0.172526
    49  H    0.154111
    50  C   -0.177828
    51  H    0.153223
    52  C   -0.127074
    53  H    0.163117
    54  C   -0.221087
    55  H    0.138529
    56  C   -0.130989
    57  H    0.152747
    58  N   -0.596479
    59  H    0.346297
    60  C   -0.070302
    61  H    0.184165
    62  C    0.655950
    63  C   -0.278345
    64  H    0.148608
    65  H    0.137449
    66  O   -0.550707
    67  C   -0.100325
    68  H    0.175781
    69  C   -0.452326
    70  H    0.127480
    71  H    0.155143
    72  H    0.161786
    73  C   -0.451473
    74  H    0.135173
    75  H    0.159840
    76  H    0.140463
    77  N   -0.616927
    78  H    0.357753
    79  C   -0.007059
    80  H    0.154246
    81  C    0.613227
    82  C   -0.301245
    83  H    0.185184
    84  H    0.161674
    85  O   -0.533423
    86  C   -0.378506
    87  H    0.204796
    88  H    0.184605
    89  C    0.586660
    90  O   -0.462927
    91  O   -0.557362
    92  N   -0.598425
    93  H    0.346926
    94  C   -0.082419
    95  H    0.188205
    96  C    0.630497
    97  C   -0.346831
    98  H    0.170237
    99  H    0.169569
   100  O   -0.558980
   101  C    0.573517
   102  N   -0.761458
   103  H    0.333768
   104  H    0.388430
   105  O   -0.522331
   106  N   -0.619266
   107  H    0.350880
   108  C   -0.024066
   109  H    0.171684
   110  C    0.603050
   111  C   -0.364989
   112  H    0.164058
   113  H    0.150755
   114  O   -0.590517
   115  C    0.143792
   116  C   -0.218377
   117  H    0.153971
   118  C   -0.195125
   119  H    0.122847
   120  C   -0.134876
   121  H    0.187016
   122  C   -0.196380
   123  H    0.103801
   124  O   -0.637681
   125  H    0.399251
   126  C    0.348648
   127  N   -0.597832
   128  H    0.354815
   129  C   -0.028009
   130  H    0.138736
   131  C    0.568061
   132  C   -0.263528
   133  H    0.163581
   134  H    0.131047
   135  O   -0.603107
   136  C   -0.273603
   137  H    0.146507
   138  H    0.166315
   139  C   -0.199428
   140  H    0.198083
   141  H    0.172217
   142  N   -0.574920
   143  H    0.367821
   144  N   -0.742053
   145  H    0.377081
   146  H    0.402339
   147  N   -0.750664
   148  H    0.375341
   149  H    0.379919
   150  C    0.809636
   151  O   -0.610310
   152  H    0.417916
 Sum of Mulliken charges =   1.00000

 Dipole moment (field-independent basis, Debye):
    X=            -42.0288    Y=             18.3599    Z=              7.0944  Tot=             46.4095
 Quadrupole moment (field-independent basis, Debye-Ang):
   XX=           -231.9695   YY=           -493.6509   ZZ=             31.4935
   XY=             44.9799   XZ=           -354.3728   YZ=             67.5708

 Normal termination of Gaussian 16 at Sat Aug 13 18:50:57 2022.
