 Gaussian 16, Revision C.01,
 Gaussian 16:  ES64L-G16RevC.01  3-Jul-2019

 ----------------------------------------------------------------------
 # B3LYP/6-31G* empiricaldispersion=gd3bj guess=read geom=check nosymm
 integral(ultrafinegrid)
 ----------------------------------------------------------------------

 ------------------------------------------------------
 Candidate Structure: Conf:981 Charge calc in gas phase
 ------------------------------------------------------
 Structure from the checkpoint file:  "conf-981.chk"
 Charge =  1 Multiplicity = 1

                          Input orientation:
 ---------------------------------------------------------------------
 Center     Atomic      Atomic             Coordinates (Angstroms)
 Number     Number       Type             X           Y           Z
 ---------------------------------------------------------------------
      1          7           0      -11.254592    2.975026    5.483820
      2          1           0      -11.569472    3.946886    5.507688
      3          1           0      -11.338168    2.576252    4.490286
      4          1           0      -11.825180    2.428852    6.134166
      5          6           0       -9.769675    2.810473    5.732038
      6          1           0       -9.350323    3.806763    5.892755
      7          6           0       -9.272914    2.227464    4.382115
      8          6           0       -9.483782    1.907091    6.947408
      9          1           0       -8.389885    1.840599    6.997902
     10          8           0      -10.129571    1.985366    3.512652
     11          6           0       -9.974991    2.553032    8.249580
     12          1           0      -11.070368    2.626209    8.288917
     13          1           0       -9.671071    1.946507    9.107109
     14          1           0       -9.562140    3.558393    8.385663
     15          6           0      -10.033595    0.486184    6.760029
     16          1           0      -11.131636    0.460505    6.729690
     17          1           0       -9.659209    0.017523    5.845198
     18          1           0       -9.733453   -0.139335    7.604781
     19          7           0       -7.974309    2.019524    4.274552
     20          1           0       -7.312324    2.192596    5.035353
     21          6           0       -7.313809    1.417447    3.117023
     22          1           0       -7.923566    0.579336    2.770585
     23          6           0       -5.969056    0.928165    3.683135
     24          6           0       -7.148427    2.453255    1.964724
     25          1           0       -8.156603    2.866566    1.826593
     26          8           0       -5.558572    1.384050    4.756065
     27          6           0       -6.726572    1.828390    0.621167
     28          1           0       -5.682549    1.500091    0.656937
     29          1           0       -6.751108    2.638365   -0.118130
     30          6           0       -6.195853    3.588553    2.357158
     31          1           0       -5.168155    3.225709    2.469229
     32          1           0       -6.486684    4.065630    3.299278
     33          1           0       -6.189260    4.357668    1.578775
     34          6           0       -7.614183    0.683191    0.124897
     35          1           0       -7.336589    0.402832   -0.895147
     36          1           0       -7.518826   -0.223877    0.735451
     37          1           0       -8.673367    0.967304    0.123685
     38          7           0       -5.311725    0.030296    2.932785
     39          1           0       -5.658196   -0.193739    2.004030
     40          6           0       -3.882812   -0.234928    3.071578
     41          1           0       -3.498052    0.406012    3.866861
     42          6           0       -3.272999    0.118622    1.709438
     43          6           0       -3.602305   -1.722061    3.398371
     44          1           0       -4.162107   -2.334108    2.683191
     45          1           0       -3.998618   -1.929783    4.398153
     46          8           0       -3.895268   -0.180756    0.683884
     47          6           0       -2.126036   -2.030184    3.308571
     48          6           0       -1.581277   -2.528037    2.118213
     49          1           0       -2.241190   -2.755853    1.284939
     50          6           0       -1.265409   -1.721524    4.367874
     51          1           0       -1.676670   -1.336943    5.298980
     52          6           0       -0.205019   -2.709165    1.986967
     53          1           0        0.204178   -3.086720    1.054798
     54          6           0        0.112012   -1.900025    4.238349
     55          1           0        0.769058   -1.650977    5.066345
     56          6           0        0.644789   -2.391131    3.046626
     57          1           0        1.717585   -2.521805    2.942614
     58          7           0       -2.085341    0.739488    1.736065
     59          1           0       -1.559959    0.794271    2.605094
     60          6           0       -1.260500    0.917009    0.550599
     61          1           0       -1.631002    0.240468   -0.223698
     62          6           0        0.169693    0.579138    0.967222
     63          6           0       -1.245593    2.382545    0.055226
     64          1           0       -0.594192    2.443985   -0.826898
     65          1           0       -0.760725    2.992191    0.825323
     66          8           0        0.546640    0.784494    2.118303
     67          6           0       -2.620219    2.980882   -0.278578
     68          1           0       -3.263887    2.849819    0.604382
     69          6           0       -2.464832    4.486427   -0.532621
     70          1           0       -1.857127    4.665783   -1.427863
     71          1           0       -1.962893    4.984724    0.303145
     72          1           0       -3.441474    4.959497   -0.691859
     73          6           0       -3.292460    2.287217   -1.469110
     74          1           0       -2.661445    2.360536   -2.364273
     75          1           0       -4.251101    2.766449   -1.703180
     76          1           0       -3.491346    1.232179   -1.262958
     77          7           0        0.987322    0.130772   -0.028388
     78          1           0        0.627166    0.211792   -0.973822
     79          6           0        2.420218    0.416129    0.068010
     80          1           0        2.689765    0.304311    1.120518
     81          6           0        2.582919    1.865255   -0.406727
     82          6           0        3.253202   -0.509320   -0.822550
     83          1           0        2.988384   -0.332270   -1.869289
     84          1           0        3.007448   -1.550823   -0.593182
     85          8           0        2.208728    2.185062   -1.536898
     86          6           0        4.748709   -0.251048   -0.638541
     87          1           0        4.963319    0.823615   -0.637194
     88          1           0        5.105402   -0.627355    0.329088
     89          6           0        5.603491   -0.864304   -1.735939
     90          8           0        5.167788   -1.566221   -2.627480
     91          8           0        6.881324   -0.505830   -1.596892
     92          7           0        3.137695    2.747926    0.453611
     93          1           0        3.464440    2.423773    1.353668
     94          6           0        3.371281    4.137664    0.069615
     95          1           0        2.595019    4.370946   -0.665313
     96          6           0        4.759904    4.301439   -0.591685
     97          6           0        3.207897    5.059006    1.268231
     98          1           0        3.883971    4.764590    2.080312
     99          1           0        3.518069    6.067247    0.973691
    100          8           0        5.560229    5.161932   -0.228933
    101          6           0        1.755981    5.096428    1.737611
    102          7           0        1.590727    5.336868    3.069825
    103          1           0        0.651763    5.486066    3.411881
    104          1           0        2.363014    5.590492    3.667523
    105          8           0        0.809481    4.927546    0.978646
    106          7           0        5.003281    3.392467   -1.563590
    107          1           0        4.244553    2.828577   -1.946906
    108          6           0        6.278665    3.253485   -2.236045
    109          1           0        6.546434    4.198971   -2.727621
    110          6           0        6.056006    2.180684   -3.321314
    111          6           0        7.423270    2.888183   -1.239843
    112          1           0        7.266001    3.511592   -0.356289
    113          1           0        7.323078    1.838356   -0.950941
    114          8           0        4.946851    1.695197   -3.510096
    115          6           0        8.793731    3.154522   -1.817084
    116          6           0        9.672970    2.110038   -2.136574
    117          1           0        9.400968    1.083393   -1.908144
    118          6           0        9.176097    4.465119   -2.139115
    119          1           0        8.522432    5.291651   -1.870752
    120          6           0       10.867621    2.351217   -2.813212
    121          1           0       11.504258    1.527283   -3.113514
    122          6           0       10.367475    4.719850   -2.812698
    123          1           0       10.638384    5.740097   -3.078807
    124          8           0       12.322475    3.837083   -3.952090
    125          1           0       12.535359    4.783355   -3.972774
    126          6           0       11.198905    3.655465   -3.175395
    127          7           0        7.154219    1.824882   -4.065039
    128          1           0        8.042429    2.091548   -3.644437
    129          6           0        7.181991    0.493749   -4.737294
    130          1           0        6.383641   -0.098897   -4.292245
    131          6           0        8.572849   -0.092763   -4.351119
    132          6           0        6.973711    0.533739   -6.269118
    133          1           0        7.952229    0.629799   -6.751592
    134          1           0        6.594612   -0.454340   -6.548845
    135          8           0        8.611395   -0.965597   -3.453225
    136          6           0        6.013458    1.623614   -6.794369
    137          1           0        5.368665    1.220414   -7.582884
    138          1           0        5.343965    1.953413   -5.993360
    139          6           0        6.754064    2.835149   -7.392191
    140          1           0        7.217817    2.565063   -8.347102
    141          1           0        6.059462    3.662714   -7.575928
    142          7           0        7.822934    3.259192   -6.471588
    143          1           0        7.646437    2.966571   -5.505659
    144          7           0        9.481440    3.982695   -7.927306
    145          1           0       10.380395    3.815783   -8.353227
    146          1           0        8.813560    4.554690   -8.421545
    147          7           0       10.029957    2.816046   -5.981221
    148          1           0       10.997193    3.115606   -6.004501
    149          1           0        9.798047    1.912240   -5.471069
    150          6           0        9.124195    3.340497   -6.793463
    151          8           0        9.572210    0.424617   -4.928630
    152          1           0        7.461431   -0.854361   -2.364737
 ---------------------------------------------------------------------

 SCF Done:  E(RB3LYP) =  -3586.97470792     A.U. after    3 cycles

 Alpha  occ. eigenvalues --  -19.26682 -19.22627 -19.21392 -19.18346 -19.18022
 Alpha  occ. eigenvalues --  -19.17463 -19.17079 -19.16575 -19.16565 -19.15814
 Alpha  occ. eigenvalues --  -19.14048 -19.12177 -19.11917 -14.59428 -14.48938
 Alpha  occ. eigenvalues --  -14.45379 -14.44764 -14.42692 -14.42156 -14.41932
 Alpha  occ. eigenvalues --  -14.41607 -14.41218 -14.41205 -14.40273 -14.39216
 Alpha  occ. eigenvalues --  -10.43162 -10.40309 -10.39845 -10.38312 -10.35273
 Alpha  occ. eigenvalues --  -10.34530 -10.34349 -10.34121 -10.33673 -10.33541
 Alpha  occ. eigenvalues --  -10.33493 -10.32791 -10.32487 -10.30991 -10.30802
 Alpha  occ. eigenvalues --  -10.30703 -10.30004 -10.28937 -10.28752 -10.28380
 Alpha  occ. eigenvalues --  -10.28316 -10.28127 -10.27945 -10.27926 -10.25890
 Alpha  occ. eigenvalues --  -10.25518 -10.25398 -10.25005 -10.24898 -10.24779
 Alpha  occ. eigenvalues --  -10.24706 -10.23989 -10.23818 -10.23755 -10.23667
 Alpha  occ. eigenvalues --  -10.23562 -10.23376 -10.23334 -10.23154 -10.23080
 Alpha  occ. eigenvalues --  -10.22947 -10.22507 -10.22481 -10.22465 -10.22423
 Alpha  occ. eigenvalues --  -10.22364 -10.22091 -10.21951 -10.20725 -10.20716
 Alpha  occ. eigenvalues --   -1.19109  -1.13685  -1.13135  -1.10423  -1.10289
 Alpha  occ. eigenvalues --   -1.09672  -1.09530  -1.09073  -1.08677  -1.08495
 Alpha  occ. eigenvalues --   -1.08312  -1.07293  -1.05806  -1.05392  -1.01506
 Alpha  occ. eigenvalues --   -1.01066  -0.98923  -0.98331  -0.98243  -0.97932
 Alpha  occ. eigenvalues --   -0.96936  -0.96479  -0.96097  -0.95801  -0.95696
 Alpha  occ. eigenvalues --   -0.95456  -0.90984  -0.90335  -0.89472  -0.86543
 Alpha  occ. eigenvalues --   -0.86331  -0.85108  -0.84518  -0.83882  -0.83056
 Alpha  occ. eigenvalues --   -0.82374  -0.82259  -0.81998  -0.80574  -0.79908
 Alpha  occ. eigenvalues --   -0.79291  -0.78780  -0.78544  -0.78326  -0.77034
 Alpha  occ. eigenvalues --   -0.75962  -0.74132  -0.73831  -0.73115  -0.72864
 Alpha  occ. eigenvalues --   -0.72377  -0.71996  -0.71760  -0.71022  -0.70411
 Alpha  occ. eigenvalues --   -0.70390  -0.69512  -0.69361  -0.67843  -0.67143
 Alpha  occ. eigenvalues --   -0.66291  -0.66247  -0.65760  -0.65542  -0.65264
 Alpha  occ. eigenvalues --   -0.65058  -0.64665  -0.64142  -0.63757  -0.63512
 Alpha  occ. eigenvalues --   -0.63229  -0.62909  -0.62452  -0.62101  -0.61564
 Alpha  occ. eigenvalues --   -0.61451  -0.60740  -0.60300  -0.59816  -0.59754
 Alpha  occ. eigenvalues --   -0.59448  -0.59073  -0.58414  -0.58328  -0.58301
 Alpha  occ. eigenvalues --   -0.57925  -0.57242  -0.56943  -0.56535  -0.56417
 Alpha  occ. eigenvalues --   -0.55476  -0.55002  -0.54759  -0.54544  -0.54359
 Alpha  occ. eigenvalues --   -0.53898  -0.53789  -0.53487  -0.53079  -0.52718
 Alpha  occ. eigenvalues --   -0.52298  -0.52111  -0.52050  -0.51779  -0.51379
 Alpha  occ. eigenvalues --   -0.51142  -0.51058  -0.50955  -0.50848  -0.50732
 Alpha  occ. eigenvalues --   -0.50341  -0.50269  -0.50237  -0.49866  -0.49438
 Alpha  occ. eigenvalues --   -0.49401  -0.49348  -0.48923  -0.48762  -0.48360
 Alpha  occ. eigenvalues --   -0.48214  -0.48002  -0.47829  -0.47753  -0.47718
 Alpha  occ. eigenvalues --   -0.47487  -0.47350  -0.47295  -0.47079  -0.47041
 Alpha  occ. eigenvalues --   -0.46695  -0.46371  -0.46245  -0.46136  -0.45974
 Alpha  occ. eigenvalues --   -0.45689  -0.45616  -0.45530  -0.45396  -0.45213
 Alpha  occ. eigenvalues --   -0.44756  -0.44590  -0.44511  -0.44306  -0.44008
 Alpha  occ. eigenvalues --   -0.43821  -0.43555  -0.43342  -0.43082  -0.42950
 Alpha  occ. eigenvalues --   -0.42821  -0.42411  -0.42272  -0.42130  -0.41984
 Alpha  occ. eigenvalues --   -0.41686  -0.41644  -0.41578  -0.41441  -0.41180
 Alpha  occ. eigenvalues --   -0.41054  -0.40771  -0.40653  -0.40277  -0.39982
 Alpha  occ. eigenvalues --   -0.39789  -0.39634  -0.39252  -0.39202  -0.39084
 Alpha  occ. eigenvalues --   -0.38897  -0.38671  -0.38234  -0.38073  -0.37964
 Alpha  occ. eigenvalues --   -0.37697  -0.37343  -0.36726  -0.36665  -0.36420
 Alpha  occ. eigenvalues --   -0.36361  -0.36245  -0.35455  -0.35368  -0.34948
 Alpha  occ. eigenvalues --   -0.33126  -0.33081  -0.32739  -0.32269  -0.32031
 Alpha  occ. eigenvalues --   -0.32002  -0.31844  -0.31438  -0.30757  -0.30591
 Alpha  occ. eigenvalues --   -0.30444  -0.30014  -0.29600  -0.29327  -0.29137
 Alpha  occ. eigenvalues --   -0.29057  -0.28202  -0.27912  -0.27491  -0.26678
 Alpha  occ. eigenvalues --   -0.25884  -0.25665
 Alpha virt. eigenvalues --   -0.12102  -0.11013  -0.07254  -0.06676  -0.05992
 Alpha virt. eigenvalues --   -0.05538  -0.05256  -0.05109  -0.04193  -0.04121
 Alpha virt. eigenvalues --   -0.04008  -0.03812  -0.03251  -0.02483  -0.02155

 Mulliken charges:
               1
     1  N   -0.764862
     2  H    0.414555
     3  H    0.436802
     4  H    0.408139
     5  C   -0.099023
     6  H    0.214765
     7  C    0.656117
     8  C   -0.126624
     9  H    0.191444
    10  O   -0.554591
    11  C   -0.461778
    12  H    0.138630
    13  H    0.199499
    14  H    0.171887
    15  C   -0.476993
    16  H    0.141685
    17  H    0.188320
    18  H    0.199584
    19  N   -0.610605
    20  H    0.377262
    21  C   -0.074714
    22  H    0.190897
    23  C    0.623802
    24  C   -0.082659
    25  H    0.150772
    26  O   -0.553801
    27  C   -0.299019
    28  H    0.185765
    29  H    0.155374
    30  C   -0.465758
    31  H    0.173021
    32  H    0.131921
    33  H    0.167422
    34  C   -0.463357
    35  H    0.176911
    36  H    0.134946
    37  H    0.152931
    38  N   -0.607025
    39  H    0.371226
    40  C   -0.067283
    41  H    0.183661
    42  C    0.631548
    43  C   -0.346685
    44  H    0.162218
    45  H    0.162217
    46  O   -0.557331
    47  C    0.144830
    48  C   -0.184307
    49  H    0.141630
    50  C   -0.194198
    51  H    0.124452
    52  C   -0.132557
    53  H    0.144457
    54  C   -0.110680
    55  H    0.136949
    56  C   -0.113722
    57  H    0.138372
    58  N   -0.582923
    59  H    0.360458
    60  C   -0.078184
    61  H    0.177359
    62  C    0.636238
    63  C   -0.277028
    64  H    0.160164
    65  H    0.177877
    66  O   -0.541441
    67  C   -0.078472
    68  H    0.114840
    69  C   -0.442420
    70  H    0.150990
    71  H    0.158779
    72  H    0.124101
    73  C   -0.466856
    74  H    0.139698
    75  H    0.130023
    76  H    0.175607
    77  N   -0.594964
    78  H    0.344696
    79  C   -0.063914
    80  H    0.163952
    81  C    0.629664
    82  C   -0.271669
    83  H    0.191370
    84  H    0.158424
    85  O   -0.549209
    86  C   -0.379857
    87  H    0.167543
    88  H    0.163792
    89  C    0.621451
    90  O   -0.487055
    91  O   -0.638133
    92  N   -0.585839
    93  H    0.338201
    94  C   -0.074822
    95  H    0.224680
    96  C    0.631118
    97  C   -0.392256
    98  H    0.152305
    99  H    0.210154
   100  O   -0.540667
   101  C    0.617505
   102  N   -0.748119
   103  H    0.341344
   104  H    0.342347
   105  O   -0.504681
   106  N   -0.662341
   107  H    0.403894
   108  C   -0.024667
   109  H    0.171421
   110  C    0.609067
   111  C   -0.392094
   112  H    0.191297
   113  H    0.197427
   114  O   -0.513795
   115  C    0.111581
   116  C   -0.240967
   117  H    0.186119
   118  C   -0.188094
   119  H    0.153417
   120  C   -0.147634
   121  H    0.172975
   122  C   -0.191751
   123  H    0.121279
   124  O   -0.660067
   125  H    0.408557
   126  C    0.344057
   127  N   -0.710792
   128  H    0.379119
   129  C   -0.032317
   130  H    0.210120
   131  C    0.581024
   132  C   -0.308470
   133  H    0.151126
   134  H    0.169522
   135  O   -0.571744
   136  C   -0.306878
   137  H    0.157145
   138  H    0.188274
   139  C   -0.156095
   140  H    0.158364
   141  H    0.162382
   142  N   -0.598288
   143  H    0.392966
   144  N   -0.745419
   145  H    0.365882
   146  H    0.367977
   147  N   -0.786178
   148  H    0.351762
   149  H    0.449634
   150  C    0.731425
   151  O   -0.596358
   152  H    0.463529
 Sum of Mulliken charges =   1.00000

 Dipole moment (field-independent basis, Debye):
    X=            -30.7757    Y=             22.8850    Z=             15.6935  Tot=             41.4385
 Quadrupole moment (field-independent basis, Debye-Ang):
   XX=             77.8384   YY=           -361.3471   ZZ=           -172.6074
   XY=              2.6459   XZ=           -340.7844   YZ=             -0.3976

 Normal termination of Gaussian 16 at Sat Aug 13 18:52:24 2022.
