 Gaussian 16, Revision C.01,
 Gaussian 16:  ES64L-G16RevC.01  3-Jul-2019

 ----------------------------------------------------------------------
 # B3LYP/6-31G* empiricaldispersion=gd3bj guess=read geom=check nosymm
 integral(ultrafinegrid)
 ----------------------------------------------------------------------

 ------------------------------------------------------
 Candidate Structure: Conf:126 Charge calc in gas phase
 ------------------------------------------------------
 Structure from the checkpoint file:  "conf-126.chk"
 Charge =  1 Multiplicity = 1

                          Input orientation:
 ---------------------------------------------------------------------
 Center     Atomic      Atomic             Coordinates (Angstroms)
 Number     Number       Type             X           Y           Z
 ---------------------------------------------------------------------
      1          7           0       -5.011852   -4.950949    6.895748
      2          1           0       -5.524006   -5.747650    6.509607
      3          1           0       -3.993716   -4.983893    6.557487
      4          1           0       -5.065654   -4.986025    7.916754
      5          6           0       -5.456630   -3.619407    6.324278
      6          1           0       -6.393372   -3.776376    5.785127
      7          6           0       -4.291310   -3.286923    5.355413
      8          6           0       -5.652408   -2.586203    7.459486
      9          1           0       -6.335642   -3.065272    8.177229
     10          8           0       -3.253690   -3.966922    5.462604
     11          6           0       -4.334808   -2.250708    8.172317
     12          1           0       -3.641346   -1.740445    7.496366
     13          1           0       -4.531520   -1.583858    9.016040
     14          1           0       -3.818717   -3.132800    8.571169
     15          6           0       -6.353006   -1.318389    6.950031
     16          1           0       -5.708268   -0.718794    6.301075
     17          1           0       -7.273207   -1.553466    6.403272
     18          1           0       -6.628043   -0.692074    7.803305
     19          7           0       -4.482244   -2.291100    4.511853
     20          1           0       -5.334810   -1.728014    4.499126
     21          6           0       -3.457780   -1.745964    3.620600
     22          1           0       -2.500509   -1.771237    4.146396
     23          6           0       -3.922993   -0.295967    3.392584
     24          6           0       -3.361457   -2.587670    2.313733
     25          1           0       -3.414826   -3.629297    2.658165
     26          8           0       -5.093475    0.008613    3.663866
     27          6           0       -2.019251   -2.424046    1.582874
     28          1           0       -1.941966   -1.411841    1.177478
     29          1           0       -2.053343   -3.087059    0.709766
     30          6           0       -4.540079   -2.310476    1.373596
     31          1           0       -4.464541   -1.306171    0.942377
     32          1           0       -5.505842   -2.389871    1.884596
     33          1           0       -4.536074   -3.026907    0.546292
     34          6           0       -0.782726   -2.762653    2.419988
     35          1           0        0.104307   -2.819189    1.784479
     36          1           0       -0.571718   -2.001350    3.179852
     37          1           0       -0.903519   -3.724377    2.933190
     38          7           0       -3.019159    0.559580    2.897167
     39          1           0       -2.070686    0.256741    2.680345
     40          6           0       -3.382287    1.912531    2.506564
     41          1           0       -4.438759    2.023495    2.762001
     42          6           0       -3.256528    2.049807    0.972593
     43          6           0       -2.556303    2.943571    3.325622
     44          1           0       -1.489592    2.818409    3.114686
     45          1           0       -2.709865    2.676810    4.378311
     46          8           0       -2.801232    1.129735    0.268383
     47          6           0       -2.980858    4.373749    3.077490
     48          6           0       -2.090262    5.291057    2.509931
     49          1           0       -1.063237    4.990662    2.342439
     50          6           0       -4.302016    4.780798    3.323091
     51          1           0       -5.004721    4.086628    3.779519
     52          6           0       -2.515885    6.570342    2.152083
     53          1           0       -1.816955    7.256709    1.684879
     54          6           0       -4.728961    6.061891    2.971970
     55          1           0       -5.755948    6.360291    3.162155
     56          6           0       -3.838316    6.956318    2.372650
     57          1           0       -4.173433    7.948419    2.085422
     58          7           0       -3.689138    3.203930    0.444277
     59          1           0       -3.971378    3.949971    1.069469
     60          6           0       -3.525716    3.545130   -0.973713
     61          1           0       -3.759119    2.642861   -1.542867
     62          6           0       -2.054485    3.951652   -1.214574
     63          6           0       -4.483363    4.681006   -1.327370
     64          1           0       -4.257683    5.531292   -0.672072
     65          1           0       -5.504626    4.346226   -1.100146
     66          8           0       -1.664546    5.104659   -1.043694
     67          6           0       -4.406363    5.148682   -2.790708
     68          1           0       -3.406074    5.570662   -2.945953
     69          6           0       -4.607750    3.998797   -3.786665
     70          1           0       -5.562270    3.485836   -3.609882
     71          1           0       -3.806793    3.253337   -3.726326
     72          1           0       -4.620816    4.377285   -4.814534
     73          6           0       -5.432373    6.263144   -3.026931
     74          1           0       -6.455887    5.888975   -2.895223
     75          1           0       -5.351955    6.661465   -4.044184
     76          1           0       -5.285363    7.093851   -2.327212
     77          7           0       -1.251710    2.924537   -1.573458
     78          1           0       -1.639348    2.001528   -1.737212
     79          6           0        0.153631    3.071287   -1.891153
     80          1           0        0.294913    4.045277   -2.371804
     81          6           0        0.500177    1.917700   -2.846981
     82          6           0        1.094208    2.958505   -0.658581
     83          1           0        2.083665    3.341456   -0.920631
     84          1           0        1.241542    1.903877   -0.417062
     85          8           0       -0.290708    0.998538   -3.042037
     86          6           0        0.560187    3.690890    0.572280
     87          1           0        0.506116    4.769127    0.382081
     88          1           0       -0.450434    3.358979    0.802547
     89          6           0        1.374545    3.462043    1.820183
     90          8           0        0.915803    3.301437    2.935614
     91          8           0        2.703869    3.480944    1.587406
     92          7           0        1.750920    1.970111   -3.389304
     93          1           0        2.399257    2.599637   -2.923483
     94          6           0        2.406935    0.728243   -3.776268
     95          1           0        1.649427   -0.056669   -3.773307
     96          6           0        3.462578    0.431846   -2.685676
     97          6           0        3.007298    0.810869   -5.187091
     98          1           0        2.303253    1.355430   -5.827816
     99          1           0        3.943748    1.383052   -5.187396
    100          8           0        3.804148    1.318911   -1.899305
    101          6           0        3.236881   -0.574712   -5.789824
    102          7           0        3.831982   -0.584229   -7.008980
    103          1           0        4.008169   -1.476104   -7.450235
    104          1           0        4.121076    0.258974   -7.480949
    105          8           0        2.886800   -1.608960   -5.226342
    106          7           0        3.940076   -0.826275   -2.665725
    107          1           0        3.662407   -1.480159   -3.396677
    108          6           0        4.785599   -1.313341   -1.596872
    109          1           0        5.178396   -0.439811   -1.071765
    110          6           0        5.904434   -2.165450   -2.203758
    111          6           0        3.969546   -2.193946   -0.605504
    112          1           0        3.656656   -3.091490   -1.151622
    113          1           0        4.645297   -2.521001    0.192833
    114          8           0        5.692678   -2.864793   -3.194159
    115          6           0        2.772003   -1.480329   -0.031701
    116          6           0        2.841649   -0.815984    1.199302
    117          1           0        3.767920   -0.845716    1.767988
    118          6           0        1.569611   -1.412423   -0.747660
    119          1           0        1.487111   -1.915577   -1.706370
    120          6           0        1.752667   -0.113413    1.710084
    121          1           0        1.804435    0.406571    2.661405
    122          6           0        0.473207   -0.704306   -0.260227
    123          1           0       -0.438409   -0.635789   -0.846026
    124          8           0       -0.491140    0.633890    1.508084
    125          1           0       -1.211956    0.725542    0.840541
    126          6           0        0.566887   -0.060849    0.976576
    127          7           0        7.073050   -2.135188   -1.531593
    128          1           0        7.241144   -1.490503   -0.766603
    129          6           0        8.226312   -2.949970   -1.880221
    130          1           0        7.894804   -3.966660   -2.102061
    131          6           0        9.188663   -2.979886   -0.680785
    132          6           0        8.937403   -2.362121   -3.129408
    133          1           0        8.265624   -2.518882   -3.977718
    134          1           0        9.001073   -1.274533   -2.986382
    135          8           0        9.900591   -3.987719   -0.532372
    136          6           0       10.339014   -2.940332   -3.431545
    137          1           0       10.478466   -3.883158   -2.892939
    138          1           0       10.432638   -3.155305   -4.502701
    139          6           0       11.482772   -1.974792   -3.077718
    140          1           0       12.448908   -2.367339   -3.411128
    141          1           0       11.350124   -1.027578   -3.610531
    142          7           0       11.568854   -1.633996   -1.652988
    143          1           0       10.743897   -1.164275   -1.273971
    144          7           0       13.199594   -3.201938   -1.035911
    145          1           0       13.410151   -3.942962   -0.382864
    146          1           0       13.339065   -3.445602   -2.004600
    147          7           0       11.860735   -2.146694    0.566299
    148          1           0       12.231138   -2.809624    1.235049
    149          1           0       10.828310   -1.966191    0.667639
    150          6           0       12.185715   -2.366475   -0.715790
    151          8           0        9.251821   -1.880025   -0.014619
    152          1           0        3.139013    3.334689    2.448250
 ---------------------------------------------------------------------

 SCF Done:  E(RB3LYP) =  -3586.99625352     A.U. after    1 cycles

 Alpha  occ. eigenvalues --  -19.25967 -19.24268 -19.22323 -19.20820 -19.19834
 Alpha  occ. eigenvalues --  -19.18661 -19.17412 -19.16939 -19.16258 -19.15633
 Alpha  occ. eigenvalues --  -19.14145 -19.13021 -19.11777 -14.59020 -14.48241
 Alpha  occ. eigenvalues --  -14.44508 -14.44226 -14.43336 -14.43078 -14.41206
 Alpha  occ. eigenvalues --  -14.40776 -14.40548 -14.40472 -14.39169 -14.38534
 Alpha  occ. eigenvalues --  -10.42502 -10.39765 -10.39393 -10.37806 -10.36755
 Alpha  occ. eigenvalues --  -10.36636 -10.34722 -10.34116 -10.33964 -10.33418
 Alpha  occ. eigenvalues --  -10.32761 -10.32681 -10.31398 -10.30950 -10.30018
 Alpha  occ. eigenvalues --  -10.29950 -10.29255 -10.29244 -10.29225 -10.28807
 Alpha  occ. eigenvalues --  -10.28458 -10.27766 -10.27415 -10.26783 -10.25544
 Alpha  occ. eigenvalues --  -10.25519 -10.25400 -10.24844 -10.24791 -10.24786
 Alpha  occ. eigenvalues --  -10.24473 -10.24426 -10.24425 -10.24291 -10.24107
 Alpha  occ. eigenvalues --  -10.23994 -10.23689 -10.23490 -10.23474 -10.23449
 Alpha  occ. eigenvalues --  -10.23387 -10.23312 -10.23268 -10.23183 -10.23155
 Alpha  occ. eigenvalues --  -10.23059 -10.23027 -10.22536 -10.21602 -10.21319
 Alpha  occ. eigenvalues --   -1.18477  -1.15215  -1.13186  -1.12632  -1.11624
 Alpha  occ. eigenvalues --   -1.09997  -1.09485  -1.08795  -1.08445  -1.08046
 Alpha  occ. eigenvalues --   -1.07485  -1.06196  -1.05949  -1.05346  -1.05147
 Alpha  occ. eigenvalues --   -1.01010  -0.99848  -0.98130  -0.97581  -0.97308
 Alpha  occ. eigenvalues --   -0.96947  -0.96321  -0.95875  -0.95853  -0.94729
 Alpha  occ. eigenvalues --   -0.94648  -0.91486  -0.89734  -0.89649  -0.86759
 Alpha  occ. eigenvalues --   -0.85572  -0.85284  -0.85132  -0.84195  -0.83612
 Alpha  occ. eigenvalues --   -0.82152  -0.81719  -0.80863  -0.80844  -0.79978
 Alpha  occ. eigenvalues --   -0.79343  -0.79185  -0.78852  -0.78458  -0.77820
 Alpha  occ. eigenvalues --   -0.76780  -0.74764  -0.73169  -0.72862  -0.72587
 Alpha  occ. eigenvalues --   -0.72464  -0.72190  -0.71823  -0.70706  -0.70169
 Alpha  occ. eigenvalues --   -0.69563  -0.69145  -0.68488  -0.68406  -0.67208
 Alpha  occ. eigenvalues --   -0.66542  -0.66475  -0.65853  -0.65436  -0.65143
 Alpha  occ. eigenvalues --   -0.64814  -0.64713  -0.64583  -0.64214  -0.64063
 Alpha  occ. eigenvalues --   -0.63631  -0.63106  -0.62508  -0.61715  -0.61549
 Alpha  occ. eigenvalues --   -0.61213  -0.61185  -0.61005  -0.60704  -0.59745
 Alpha  occ. eigenvalues --   -0.59568  -0.59011  -0.58768  -0.57948  -0.57097
 Alpha  occ. eigenvalues --   -0.56944  -0.56638  -0.56126  -0.56013  -0.55606
 Alpha  occ. eigenvalues --   -0.55272  -0.54723  -0.54526  -0.54417  -0.53915
 Alpha  occ. eigenvalues --   -0.53809  -0.53420  -0.53304  -0.52976  -0.52803
 Alpha  occ. eigenvalues --   -0.52619  -0.52324  -0.52098  -0.51893  -0.51686
 Alpha  occ. eigenvalues --   -0.51396  -0.51136  -0.51034  -0.50776  -0.50559
 Alpha  occ. eigenvalues --   -0.50463  -0.50352  -0.50290  -0.50053  -0.49902
 Alpha  occ. eigenvalues --   -0.49696  -0.49462  -0.49275  -0.49199  -0.49195
 Alpha  occ. eigenvalues --   -0.48477  -0.48400  -0.48208  -0.47980  -0.47843
 Alpha  occ. eigenvalues --   -0.47491  -0.47362  -0.47246  -0.47026  -0.46922
 Alpha  occ. eigenvalues --   -0.46726  -0.46616  -0.46450  -0.46427  -0.46382
 Alpha  occ. eigenvalues --   -0.46175  -0.45994  -0.45796  -0.45635  -0.45502
 Alpha  occ. eigenvalues --   -0.45313  -0.44663  -0.44593  -0.44511  -0.44432
 Alpha  occ. eigenvalues --   -0.43928  -0.43833  -0.43745  -0.43325  -0.43243
 Alpha  occ. eigenvalues --   -0.43003  -0.42867  -0.42697  -0.42319  -0.42185
 Alpha  occ. eigenvalues --   -0.41891  -0.41743  -0.41397  -0.41282  -0.41200
 Alpha  occ. eigenvalues --   -0.40959  -0.40686  -0.40622  -0.40522  -0.40239
 Alpha  occ. eigenvalues --   -0.40036  -0.39849  -0.39706  -0.39654  -0.39383
 Alpha  occ. eigenvalues --   -0.39287  -0.39148  -0.39012  -0.38867  -0.38619
 Alpha  occ. eigenvalues --   -0.37966  -0.37462  -0.37377  -0.37164  -0.36981
 Alpha  occ. eigenvalues --   -0.36719  -0.36646  -0.36221  -0.35097  -0.35004
 Alpha  occ. eigenvalues --   -0.34651  -0.34017  -0.33463  -0.32388  -0.32368
 Alpha  occ. eigenvalues --   -0.32297  -0.32037  -0.31365  -0.30863  -0.30571
 Alpha  occ. eigenvalues --   -0.30140  -0.30007  -0.29783  -0.29583  -0.29232
 Alpha  occ. eigenvalues --   -0.29046  -0.28925  -0.28394  -0.28023  -0.27366
 Alpha  occ. eigenvalues --   -0.26224  -0.25152
 Alpha virt. eigenvalues --   -0.11353  -0.10516  -0.06943  -0.06442  -0.06169
 Alpha virt. eigenvalues --   -0.05962  -0.05365  -0.05016  -0.04968  -0.04138
 Alpha virt. eigenvalues --   -0.03897  -0.03828  -0.03108  -0.02634  -0.02564

 Mulliken charges:
               1
     1  N   -0.764067
     2  H    0.414384
     3  H    0.436170
     4  H    0.409119
     5  C   -0.104312
     6  H    0.209381
     7  C    0.654593
     8  C   -0.110682
     9  H    0.157042
    10  O   -0.554723
    11  C   -0.470187
    12  H    0.187129
    13  H    0.192846
    14  H    0.141126
    15  C   -0.480382
    16  H    0.190935
    17  H    0.165186
    18  H    0.187029
    19  N   -0.604717
    20  H    0.382974
    21  C   -0.083355
    22  H    0.192026
    23  C    0.637051
    24  C   -0.076212
    25  H    0.142180
    26  O   -0.564373
    27  C   -0.273046
    28  H    0.149033
    29  H    0.151912
    30  C   -0.471836
    31  H    0.180296
    32  H    0.135533
    33  H    0.162002
    34  C   -0.466567
    35  H    0.182372
    36  H    0.141866
    37  H    0.144733
    38  N   -0.615420
    39  H    0.391109
    40  C   -0.114456
    41  H    0.207232
    42  C    0.652365
    43  C   -0.369955
    44  H    0.219268
    45  H    0.161751
    46  O   -0.583340
    47  C    0.108813
    48  C   -0.173515
    49  H    0.162932
    50  C   -0.212248
    51  H    0.132850
    52  C   -0.117051
    53  H    0.152305
    54  C   -0.126192
    55  H    0.141727
    56  C   -0.136596
    57  H    0.145151
    58  N   -0.604018
    59  H    0.372049
    60  C   -0.052863
    61  H    0.174262
    62  C    0.632927
    63  C   -0.283816
    64  H    0.161525
    65  H    0.136068
    66  O   -0.545836
    67  C   -0.084020
    68  H    0.156554
    69  C   -0.454724
    70  H    0.139673
    71  H    0.145716
    72  H    0.151705
    73  C   -0.445322
    74  H    0.138552
    75  H    0.148749
    76  H    0.145538
    77  N   -0.612137
    78  H    0.365753
    79  C   -0.051479
    80  H    0.182809
    81  C    0.605008
    82  C   -0.305933
    83  H    0.181132
    84  H    0.190169
    85  O   -0.527457
    86  C   -0.361431
    87  H    0.199187
    88  H    0.174670
    89  C    0.600597
    90  O   -0.483018
    91  O   -0.549162
    92  N   -0.593339
    93  H    0.349053
    94  C   -0.086110
    95  H    0.214966
    96  C    0.609009
    97  C   -0.381056
    98  H    0.192457
    99  H    0.173157
   100  O   -0.548596
   101  C    0.627798
   102  N   -0.746998
   103  H    0.355959
   104  H    0.345209
   105  O   -0.516276
   106  N   -0.616717
   107  H    0.391625
   108  C   -0.058435
   109  H    0.176066
   110  C    0.627684
   111  C   -0.365187
   112  H    0.167077
   113  H    0.155092
   114  O   -0.545733
   115  C    0.184177
   116  C   -0.180712
   117  H    0.129090
   118  C   -0.202246
   119  H    0.148060
   120  C   -0.172679
   121  H    0.139959
   122  C   -0.208613
   123  H    0.161581
   124  O   -0.736676
   125  H    0.467934
   126  C    0.347487
   127  N   -0.619831
   128  H    0.344700
   129  C   -0.001868
   130  H    0.170343
   131  C    0.575118
   132  C   -0.294767
   133  H    0.179923
   134  H    0.129981
   135  O   -0.582018
   136  C   -0.274090
   137  H    0.184712
   138  H    0.146030
   139  C   -0.180270
   140  H    0.146411
   141  H    0.177598
   142  N   -0.569348
   143  H    0.371612
   144  N   -0.750556
   145  H    0.364722
   146  H    0.364537
   147  N   -0.732650
   148  H    0.335122
   149  H    0.399397
   150  C    0.757886
   151  O   -0.648235
   152  H    0.410863
 Sum of Mulliken charges =   1.00000

 Dipole moment (field-independent basis, Debye):
    X=             -6.5501    Y=            -12.2498    Z=             18.4444  Tot=             23.0902
 Quadrupole moment (field-independent basis, Debye-Ang):
   XX=           -106.5251   YY=           -351.8729   ZZ=           -207.1899
   XY=             36.9280   XZ=           -190.3034   YZ=           -113.9622

 Normal termination of Gaussian 16 at Sat Aug 13 18:47:05 2022.
