 Gaussian 16, Revision C.01,
 Gaussian 16:  ES64L-G16RevC.01  3-Jul-2019

 ----------------------------------------------------------------------
 # B3LYP/6-31G* empiricaldispersion=gd3bj guess=read geom=check nosymm
 integral(ultrafinegrid)
 ----------------------------------------------------------------------

 ------------------------------------------------------
 Candidate Structure: Conf:123 Charge calc in gas phase
 ------------------------------------------------------
 Structure from the checkpoint file:  "conf-123.chk"
 Charge =  1 Multiplicity = 1

                          Input orientation:
 ---------------------------------------------------------------------
 Center     Atomic      Atomic             Coordinates (Angstroms)
 Number     Number       Type             X           Y           Z
 ---------------------------------------------------------------------
      1          7           0       -1.580028   -6.321782    2.982706
      2          1           0       -1.148445   -7.041774    3.565361
      3          1           0       -2.112173   -6.775393    2.238171
      4          1           0       -0.689525   -5.774495    2.461685
      5          6           0       -2.449723   -5.403004    3.778498
      6          1           0       -3.238841   -5.994324    4.259677
      7          6           0       -3.046791   -4.427169    2.753894
      8          6           0       -1.609020   -4.685913    4.862576
      9          1           0       -0.903382   -4.043070    4.331157
     10          8           0       -2.480050   -4.255766    1.677538
     11          6           0       -2.483516   -3.781936    5.742375
     12          1           0       -3.317341   -4.340426    6.190209
     13          1           0       -1.883451   -3.388477    6.568517
     14          1           0       -2.867640   -2.924015    5.184583
     15          6           0       -0.813308   -5.694661    5.706070
     16          1           0       -1.471195   -6.451944    6.152689
     17          1           0       -0.026221   -6.195096    5.131191
     18          1           0       -0.319406   -5.171866    6.531230
     19          7           0       -4.195986   -3.797762    3.085347
     20          1           0       -4.521095   -3.851745    4.040307
     21          6           0       -4.657765   -2.668220    2.280768
     22          1           0       -4.736270   -3.019622    1.249814
     23          6           0       -3.614973   -1.536549    2.354354
     24          6           0       -6.056781   -2.210388    2.764903
     25          1           0       -6.677840   -3.117895    2.748682
     26          8           0       -3.036939   -1.266409    3.405844
     27          6           0       -6.698056   -1.194522    1.800680
     28          1           0       -6.069077   -0.296604    1.745795
     29          1           0       -7.643834   -0.873173    2.253541
     30          6           0       -6.043981   -1.656086    4.197458
     31          1           0       -5.445473   -0.743697    4.265741
     32          1           0       -5.636014   -2.362137    4.930739
     33          1           0       -7.066584   -1.424303    4.511000
     34          6           0       -6.978828   -1.725901    0.391553
     35          1           0       -7.553698   -0.992608   -0.183534
     36          1           0       -6.068668   -1.933524   -0.179061
     37          1           0       -7.569829   -2.649012    0.431839
     38          7           0       -3.428453   -0.842579    1.202995
     39          1           0       -3.801593   -1.199926    0.324197
     40          6           0       -2.449241    0.223366    1.133032
     41          1           0       -2.426757    0.685564    2.123441
     42          6           0       -2.836519    1.262200    0.082170
     43          6           0       -1.009686   -0.286875    0.784925
     44          1           0       -0.473023    0.497836    0.241433
     45          1           0       -1.102302   -1.126128    0.093666
     46          8           0       -3.261840    0.963079   -1.040653
     47          6           0       -0.232200   -0.678857    2.015853
     48          6           0        0.184157    0.305079    2.925873
     49          1           0       -0.016659    1.352734    2.712458
     50          6           0        0.055206   -2.018125    2.298231
     51          1           0       -0.284247   -2.797820    1.624092
     52          6           0        0.805780   -0.041462    4.127020
     53          1           0        1.069336    0.731762    4.843395
     54          6           0        0.721759   -2.366179    3.473782
     55          1           0        0.956017   -3.407925    3.659427
     56          6           0        1.063541   -1.387567    4.409865
     57          1           0        1.503541   -1.672140    5.363371
     58          7           0       -2.563637    2.537946    0.432930
     59          1           0       -2.222392    2.718420    1.368306
     60          6           0       -2.498288    3.650723   -0.523462
     61          1           0       -2.889930    3.249594   -1.460007
     62          6           0       -0.999228    3.988764   -0.695594
     63          6           0       -3.313743    4.855457   -0.062967
     64          1           0       -3.244181    5.619320   -0.847676
     65          1           0       -2.828919    5.292796    0.817941
     66          8           0       -0.488877    5.003038   -0.235793
     67          6           0       -4.790135    4.549249    0.237362
     68          1           0       -4.822417    3.822087    1.061854
     69          6           0       -5.496348    5.826974    0.706643
     70          1           0       -5.507672    6.580991   -0.090155
     71          1           0       -4.993429    6.267593    1.575211
     72          1           0       -6.535644    5.621710    0.985350
     73          6           0       -5.516796    3.929783   -0.964184
     74          1           0       -5.450699    4.587794   -1.840413
     75          1           0       -6.579471    3.787185   -0.739199
     76          1           0       -5.103863    2.953904   -1.240048
     77          7           0       -0.295195    3.011358   -1.326370
     78          1           0       -0.756833    2.165721   -1.648768
     79          6           0        1.155876    2.931610   -1.318573
     80          1           0        1.582955    3.823546   -1.788028
     81          6           0        1.501077    1.671386   -2.116066
     82          6           0        1.670470    2.812155    0.144154
     83          1           0        1.251360    1.896173    0.572909
     84          1           0        1.255108    3.666543    0.683950
     85          8           0        0.667349    0.774220   -2.254193
     86          6           0        3.196119    2.768115    0.364024
     87          1           0        3.379905    2.731008    1.441065
     88          1           0        3.613422    1.866245   -0.087236
     89          6           0        3.893154    4.001683   -0.152533
     90          8           0        4.118353    5.015004    0.457580
     91          8           0        4.244690    3.866048   -1.477090
     92          7           0        2.762899    1.556406   -2.598524
     93          1           0        3.440854    2.276258   -2.368261
     94          6           0        3.215475    0.234902   -2.998410
     95          1           0        2.597719   -0.111523   -3.829187
     96          6           0        2.999828   -0.735028   -1.811243
     97          6           0        4.673415    0.274313   -3.459013
     98          1           0        4.817807    1.144165   -4.112678
     99          1           0        5.351629    0.396950   -2.605395
    100          8           0        3.040470   -0.306672   -0.647439
    101          6           0        5.035982   -0.988761   -4.245701
    102          7           0        6.330483   -1.075139   -4.631613
    103          1           0        6.613813   -1.867649   -5.191875
    104          1           0        7.000613   -0.339882   -4.462615
    105          8           0        4.208900   -1.856080   -4.518340
    106          7           0        2.708521   -2.002237   -2.117503
    107          1           0        2.868351   -2.293381   -3.079129
    108          6           0        2.087976   -2.898841   -1.166216
    109          1           0        1.483094   -2.272301   -0.502008
    110          6           0        3.079375   -3.652617   -0.264869
    111          6           0        1.133435   -3.874450   -1.913833
    112          1           0        1.547871   -4.072102   -2.910613
    113          1           0        1.118998   -4.835310   -1.391953
    114          8           0        4.288518   -3.726500   -0.508050
    115          6           0       -0.271225   -3.323767   -1.977672
    116          6           0       -1.301484   -3.957176   -1.275296
    117          1           0       -1.099995   -4.875243   -0.731293
    118          6           0       -0.550468   -2.112775   -2.623974
    119          1           0        0.229397   -1.582282   -3.157337
    120          6           0       -2.572044   -3.394058   -1.201918
    121          1           0       -3.350436   -3.870113   -0.620276
    122          6           0       -1.809686   -1.526595   -2.537244
    123          1           0       -1.994915   -0.561280   -2.995982
    124          8           0       -4.045526   -1.580471   -1.597049
    125          1           0       -3.932807   -0.606413   -1.675402
    126          6           0       -2.817042   -2.162035   -1.804642
    127          7           0        2.455402   -4.168829    0.816935
    128          1           0        1.444936   -4.043068    0.854607
    129          6           0        2.819875   -5.322690    1.644997
    130          1           0        3.184790   -6.128925    0.993835
    131          6           0        1.494952   -5.828932    2.300197
    132          6           0        3.876850   -5.079161    2.735175
    133          1           0        3.556929   -4.215254    3.330776
    134          1           0        3.811785   -5.946322    3.396556
    135          8           0        1.541171   -6.699190    3.172557
    136          6           0        5.324166   -4.909929    2.219784
    137          1           0        5.988094   -5.632206    2.708597
    138          1           0        5.360903   -5.118230    1.147541
    139          6           0        5.930928   -3.518226    2.446039
    140          1           0        6.118192   -3.328008    3.506360
    141          1           0        6.905901   -3.450511    1.954283
    142          7           0        5.092105   -2.445731    1.904014
    143          1           0        4.892668   -2.560666    0.907999
    144          7           0        4.283337   -1.660344    3.959781
    145          1           0        3.488972   -1.237233    4.421282
    146          1           0        4.699134   -2.434399    4.453752
    147          7           0        3.389065   -0.881090    1.983505
    148          1           0        2.652375   -0.430373    2.512748
    149          1           0        3.306947   -0.836535    0.958979
    150          6           0        4.241595   -1.691436    2.603937
    151          8           0        0.422099   -5.255204    1.856853
    152          1           0        4.636615    4.718295   -1.749326
 ---------------------------------------------------------------------

 SCF Done:  E(RB3LYP) =  -3587.06233384     A.U. after    1 cycles

 Alpha  occ. eigenvalues --  -19.28580 -19.23134 -19.22079 -19.22079 -19.21614
 Alpha  occ. eigenvalues --  -19.21136 -19.21046 -19.20938 -19.20700 -19.20242
 Alpha  occ. eigenvalues --  -19.19097 -19.18816 -19.18080 -14.49546 -14.47785
 Alpha  occ. eigenvalues --  -14.47054 -14.45692 -14.45637 -14.45079 -14.45043
 Alpha  occ. eigenvalues --  -14.44770 -14.44727 -14.43503 -14.43365 -14.43040
 Alpha  occ. eigenvalues --  -10.43623 -10.40174 -10.38951 -10.38412 -10.38375
 Alpha  occ. eigenvalues --  -10.38192 -10.37627 -10.37354 -10.36601 -10.36157
 Alpha  occ. eigenvalues --  -10.35858 -10.34155 -10.32889 -10.32610 -10.32149
 Alpha  occ. eigenvalues --  -10.31884 -10.31786 -10.31024 -10.31016 -10.30510
 Alpha  occ. eigenvalues --  -10.30369 -10.30229 -10.28769 -10.28725 -10.28681
 Alpha  occ. eigenvalues --  -10.28507 -10.28195 -10.27991 -10.27899 -10.27835
 Alpha  occ. eigenvalues --  -10.27279 -10.27239 -10.27182 -10.27164 -10.26955
 Alpha  occ. eigenvalues --  -10.26867 -10.25949 -10.25480 -10.25364 -10.24810
 Alpha  occ. eigenvalues --  -10.24771 -10.24679 -10.24616 -10.24549 -10.24492
 Alpha  occ. eigenvalues --  -10.24433 -10.24142 -10.23140 -10.22456 -10.22383
 Alpha  occ. eigenvalues --   -1.18662  -1.14207  -1.13602  -1.13370  -1.12893
 Alpha  occ. eigenvalues --   -1.12880  -1.12625  -1.12290  -1.11760  -1.11080
 Alpha  occ. eigenvalues --   -1.10933  -1.10633  -1.09817  -1.05242  -1.03635
 Alpha  occ. eigenvalues --   -1.02005  -1.01998  -1.01921  -1.01658  -1.01606
 Alpha  occ. eigenvalues --   -1.00410  -1.00256  -1.00070  -0.99887  -0.99738
 Alpha  occ. eigenvalues --   -0.94807  -0.91624  -0.89960  -0.89377  -0.88699
 Alpha  occ. eigenvalues --   -0.88440  -0.87920  -0.87527  -0.86892  -0.86083
 Alpha  occ. eigenvalues --   -0.83692  -0.83557  -0.83226  -0.82312  -0.81533
 Alpha  occ. eigenvalues --   -0.80544  -0.80284  -0.79930  -0.79348  -0.77561
 Alpha  occ. eigenvalues --   -0.77380  -0.76809  -0.76352  -0.74582  -0.74044
 Alpha  occ. eigenvalues --   -0.73865  -0.73453  -0.72623  -0.71216  -0.70198
 Alpha  occ. eigenvalues --   -0.70101  -0.69726  -0.69693  -0.69112  -0.68805
 Alpha  occ. eigenvalues --   -0.68195  -0.68090  -0.67750  -0.67660  -0.67501
 Alpha  occ. eigenvalues --   -0.67114  -0.66922  -0.66306  -0.65825  -0.65678
 Alpha  occ. eigenvalues --   -0.65284  -0.64933  -0.64672  -0.64349  -0.63812
 Alpha  occ. eigenvalues --   -0.63428  -0.62883  -0.62315  -0.61798  -0.61515
 Alpha  occ. eigenvalues --   -0.61135  -0.60913  -0.60165  -0.60086  -0.59841
 Alpha  occ. eigenvalues --   -0.59124  -0.58926  -0.58157  -0.57911  -0.57583
 Alpha  occ. eigenvalues --   -0.57013  -0.56861  -0.56602  -0.56458  -0.56182
 Alpha  occ. eigenvalues --   -0.55770  -0.55554  -0.55343  -0.55227  -0.55038
 Alpha  occ. eigenvalues --   -0.54735  -0.54570  -0.54522  -0.54331  -0.54192
 Alpha  occ. eigenvalues --   -0.53816  -0.53810  -0.53237  -0.53049  -0.52858
 Alpha  occ. eigenvalues --   -0.52544  -0.52487  -0.52320  -0.51696  -0.51618
 Alpha  occ. eigenvalues --   -0.51578  -0.51403  -0.51134  -0.50985  -0.50783
 Alpha  occ. eigenvalues --   -0.50555  -0.50334  -0.50127  -0.49869  -0.49729
 Alpha  occ. eigenvalues --   -0.49452  -0.49279  -0.49224  -0.49096  -0.48932
 Alpha  occ. eigenvalues --   -0.48867  -0.48685  -0.48460  -0.48231  -0.48064
 Alpha  occ. eigenvalues --   -0.47925  -0.47746  -0.47533  -0.47492  -0.47247
 Alpha  occ. eigenvalues --   -0.47157  -0.46989  -0.46701  -0.46541  -0.46308
 Alpha  occ. eigenvalues --   -0.46162  -0.45992  -0.45706  -0.45663  -0.45423
 Alpha  occ. eigenvalues --   -0.45215  -0.45091  -0.44935  -0.44556  -0.44313
 Alpha  occ. eigenvalues --   -0.44166  -0.43577  -0.43439  -0.43432  -0.43334
 Alpha  occ. eigenvalues --   -0.43174  -0.43059  -0.42858  -0.42594  -0.42567
 Alpha  occ. eigenvalues --   -0.42381  -0.42223  -0.42115  -0.42013  -0.41953
 Alpha  occ. eigenvalues --   -0.41638  -0.41481  -0.40269  -0.40084  -0.39668
 Alpha  occ. eigenvalues --   -0.39288  -0.39178  -0.38810  -0.38411  -0.38320
 Alpha  occ. eigenvalues --   -0.38126  -0.38026  -0.36942  -0.36483  -0.36245
 Alpha  occ. eigenvalues --   -0.36055  -0.35898  -0.35782  -0.35614  -0.35359
 Alpha  occ. eigenvalues --   -0.35302  -0.35243  -0.34971  -0.34870  -0.34843
 Alpha  occ. eigenvalues --   -0.34550  -0.34280  -0.34190  -0.33980  -0.33237
 Alpha  occ. eigenvalues --   -0.32836  -0.32605  -0.31796  -0.31711  -0.31481
 Alpha  occ. eigenvalues --   -0.30806  -0.28027
 Alpha virt. eigenvalues --   -0.10716  -0.09679  -0.08777  -0.08101  -0.07835
 Alpha virt. eigenvalues --   -0.07714  -0.07531  -0.07389  -0.06648  -0.06494
 Alpha virt. eigenvalues --   -0.05989  -0.05292  -0.04878  -0.04164  -0.04048

 Mulliken charges:
               1
     1  N   -0.785443
     2  H    0.387966
     3  H    0.377159
     4  H    0.491077
     5  C   -0.096851
     6  H    0.169181
     7  C    0.641507
     8  C   -0.082004
     9  H    0.169071
    10  O   -0.523853
    11  C   -0.502941
    12  H    0.137275
    13  H    0.162072
    14  H    0.208212
    15  C   -0.501845
    16  H    0.149934
    17  H    0.188760
    18  H    0.163682
    19  N   -0.609064
    20  H    0.346031
    21  C   -0.051650
    22  H    0.184667
    23  C    0.651348
    24  C   -0.112208
    25  H    0.143600
    26  O   -0.545387
    27  C   -0.261412
    28  H    0.140769
    29  H    0.148170
    30  C   -0.463509
    31  H    0.173557
    32  H    0.131755
    33  H    0.160990
    34  C   -0.479998
    35  H    0.158118
    36  H    0.173532
    37  H    0.146938
    38  N   -0.649214
    39  H    0.394230
    40  C   -0.049741
    41  H    0.180406
    42  C    0.634714
    43  C   -0.399717
    44  H    0.178389
    45  H    0.207685
    46  O   -0.574715
    47  C    0.193501
    48  C   -0.193141
    49  H    0.130400
    50  C   -0.207518
    51  H    0.202424
    52  C   -0.155737
    53  H    0.153019
    54  C   -0.140200
    55  H    0.160295
    56  C   -0.192495
    57  H    0.140145
    58  N   -0.584875
    59  H    0.341904
    60  C   -0.096223
    61  H    0.202497
    62  C    0.619865
    63  C   -0.260683
    64  H    0.157666
    65  H    0.152925
    66  O   -0.514754
    67  C   -0.070025
    68  H    0.117576
    69  C   -0.443167
    70  H    0.148706
    71  H    0.144012
    72  H    0.148344
    73  C   -0.466168
    74  H    0.144455
    75  H    0.149154
    76  H    0.158564
    77  N   -0.638225
    78  H    0.369956
    79  C   -0.034413
    80  H    0.183489
    81  C    0.634659
    82  C   -0.306238
    83  H    0.158284
    84  H    0.206476
    85  O   -0.542524
    86  C   -0.369666
    87  H    0.177464
    88  H    0.191711
    89  C    0.578848
    90  O   -0.426468
    91  O   -0.595715
    92  N   -0.656724
    93  H    0.384158
    94  C   -0.009966
    95  H    0.207034
    96  C    0.625291
    97  C   -0.427639
    98  H    0.195933
    99  H    0.187445
   100  O   -0.572917
   101  C    0.634350
   102  N   -0.743039
   103  H    0.363768
   104  H    0.352093
   105  O   -0.518455
   106  N   -0.583324
   107  H    0.389055
   108  C   -0.063763
   109  H    0.190106
   110  C    0.592285
   111  C   -0.394910
   112  H    0.174383
   113  H    0.170515
   114  O   -0.550322
   115  C    0.151946
   116  C   -0.195127
   117  H    0.137336
   118  C   -0.176647
   119  H    0.143418
   120  C   -0.143671
   121  H    0.143039
   122  C   -0.183202
   123  H    0.148983
   124  O   -0.689056
   125  H    0.451529
   126  C    0.317465
   127  N   -0.627460
   128  H    0.394669
   129  C   -0.048463
   130  H    0.182609
   131  C    0.606213
   132  C   -0.281400
   133  H    0.113770
   134  H    0.193750
   135  O   -0.543685
   136  C   -0.283643
   137  H    0.159748
   138  H    0.193361
   139  C   -0.181170
   140  H    0.155245
   141  H    0.188524
   142  N   -0.593777
   143  H    0.390945
   144  N   -0.754008
   145  H    0.357622
   146  H    0.362199
   147  N   -0.816512
   148  H    0.369635
   149  H    0.429312
   150  C    0.782510
   151  O   -0.664139
   152  H    0.423426
 Sum of Mulliken charges =   1.00000

 Dipole moment (field-independent basis, Debye):
    X=              8.2311    Y=             -9.6615    Z=              7.5592  Tot=             14.7729
 Quadrupole moment (field-independent basis, Debye-Ang):
   XX=           -305.1446   YY=           -386.0512   ZZ=           -362.9130
   XY=              8.0870   XZ=            -44.6439   YZ=            -59.4335

 Normal termination of Gaussian 16 at Sat Aug 13 18:47:53 2022.
