 Gaussian 16, Revision C.01,
 Gaussian 16:  ES64L-G16RevC.01  3-Jul-2019

 ----------------------------------------------------------------------
 # B3LYP/6-31G* empiricaldispersion=gd3bj guess=read geom=check nosymm
 integral(ultrafinegrid)
 ----------------------------------------------------------------------

 ------------------------------------------------------
 Candidate Structure: Conf:433 Charge calc in gas phase
 ------------------------------------------------------
 Structure from the checkpoint file:  "conf-433.chk"
 Charge =  1 Multiplicity = 1

                          Input orientation:
 ---------------------------------------------------------------------
 Center     Atomic      Atomic             Coordinates (Angstroms)
 Number     Number       Type             X           Y           Z
 ---------------------------------------------------------------------
      1          7           0       -8.683787    2.200609    7.546977
      2          1           0       -9.352688    2.495102    8.259644
      3          1           0       -8.754611    1.181979    7.308883
      4          1           0       -7.716619    2.307832    7.907197
      5          6           0       -8.845923    2.906105    6.217101
      6          1           0       -9.891589    3.224600    6.144192
      7          6           0       -8.557427    1.757770    5.214152
      8          6           0       -7.904998    4.134196    6.164092
      9          1           0       -6.878140    3.751748    6.192969
     10          8           0       -8.312402    0.638924    5.678370
     11          6           0       -8.066016    4.946257    4.868692
     12          1           0       -9.119685    5.084507    4.593027
     13          1           0       -7.641538    5.944127    5.010107
     14          1           0       -7.511809    4.486797    4.048287
     15          6           0       -8.150813    5.032180    7.388305
     16          1           0       -9.182522    5.404828    7.409953
     17          1           0       -7.945302    4.532611    8.342423
     18          1           0       -7.488639    5.901082    7.344798
     19          7           0       -8.557961    2.020408    3.896153
     20          1           0       -8.616627    2.991375    3.624413
     21          6           0       -7.665069    1.194947    3.067534
     22          1           0       -7.943131    0.152304    3.233508
     23          6           0       -6.243213    1.449438    3.608049
     24          6           0       -7.799088    1.513553    1.560495
     25          1           0       -8.836205    1.267040    1.293687
     26          8           0       -5.901309    2.579826    3.968714
     27          6           0       -6.866654    0.581193    0.757165
     28          1           0       -6.978016   -0.445885    1.130221
     29          1           0       -5.822035    0.859870    0.944545
     30          6           0       -7.548972    2.991737    1.230594
     31          1           0       -6.544372    3.302325    1.532195
     32          1           0       -8.269986    3.659689    1.717911
     33          1           0       -7.655637    3.162815    0.156672
     34          6           0       -7.127051    0.582417   -0.750766
     35          1           0       -6.478955   -0.147791   -1.245928
     36          1           0       -8.165848    0.314525   -0.975805
     37          1           0       -6.925161    1.558748   -1.202543
     38          7           0       -5.448474    0.370195    3.676494
     39          1           0       -5.728811   -0.517313    3.268707
     40          6           0       -4.028324    0.454970    3.962738
     41          1           0       -3.723057    1.495276    3.827964
     42          6           0       -3.355538   -0.461839    2.926798
     43          6           0       -3.704898   -0.019842    5.396084
     44          1           0       -2.621322    0.071682    5.547466
     45          1           0       -3.943640   -1.086551    5.460858
     46          8           0       -3.960534   -1.459956    2.527556
     47          6           0       -4.434707    0.733100    6.489110
     48          6           0       -4.249077    2.112014    6.671555
     49          1           0       -3.620917    2.666160    5.981412
     50          6           0       -5.272191    0.051318    7.378110
     51          1           0       -5.437907   -1.013484    7.243307
     52          6           0       -4.845725    2.780127    7.738384
     53          1           0       -4.661477    3.841225    7.880493
     54          6           0       -5.861585    0.709033    8.461082
     55          1           0       -6.460537    0.143731    9.170985
     56          6           0       -5.643945    2.077880    8.652251
     57          1           0       -6.033511    2.581061    9.535654
     58          7           0       -2.139503   -0.079261    2.510857
     59          1           0       -1.628156    0.659946    2.986378
     60          6           0       -1.319917   -0.841917    1.583733
     61          1           0       -1.624321   -1.891049    1.637049
     62          6           0        0.130564   -0.664538    2.057491
     63          6           0       -1.432918   -0.309862    0.134507
     64          1           0       -0.767200   -0.903808   -0.505309
     65          1           0       -1.018653    0.704469    0.122787
     66          8           0        0.425090    0.209774    2.868557
     67          6           0       -2.844964   -0.314080   -0.471296
     68          1           0       -3.513008    0.226942    0.213449
     69          6           0       -2.826363    0.448535   -1.803210
     70          1           0       -2.188164   -0.068576   -2.533206
     71          1           0       -2.450931    1.471508   -1.676203
     72          1           0       -3.829364    0.511196   -2.240222
     73          6           0       -3.397380   -1.730560   -0.665918
     74          1           0       -2.736560   -2.317209   -1.317218
     75          1           0       -4.384812   -1.698589   -1.142076
     76          1           0       -3.509307   -2.251017    0.287879
     77          7           0        1.027648   -1.505454    1.479954
     78          1           0        0.707021   -2.025108    0.666858
     79          6           0        2.424750   -1.109746    1.344563
     80          1           0        2.524025   -0.123631    1.805500
     81          6           0        2.681829   -0.996512   -0.164087
     82          6           0        3.396201   -2.088134    2.023281
     83          1           0        3.189942   -2.086678    3.097921
     84          1           0        4.421240   -1.721711    1.900953
     85          8           0        1.977799   -1.597850   -0.977401
     86          6           0        3.294596   -3.511852    1.480381
     87          1           0        2.289730   -3.922069    1.635811
     88          1           0        3.464054   -3.546949    0.397021
     89          6           0        4.289556   -4.438498    2.140003
     90          8           0        5.120029   -4.116057    2.960521
     91          8           0        4.150365   -5.710078    1.695580
     92          7           0        3.737390   -0.231229   -0.526611
     93          1           0        4.217889    0.331347    0.164837
     94          6           0        3.892266    0.210807   -1.896456
     95          1           0        3.527472   -0.592724   -2.539873
     96          6           0        5.363608    0.528567   -2.142462
     97          6           0        3.104277    1.525159   -2.172312
     98          1           0        3.549263    2.313763   -1.559739
     99          1           0        3.243811    1.812839   -3.219114
    100          8           0        6.025863    1.100946   -1.276458
    101          6           0        1.637326    1.421047   -1.774487
    102          7           0        0.759174    1.245927   -2.797716
    103          1           0       -0.213329    1.079608   -2.578711
    104          1           0        1.063991    1.113531   -3.749725
    105          8           0        1.282246    1.497523   -0.601157
    106          7           0        5.844753    0.220271   -3.370640
    107          1           0        5.177108   -0.091566   -4.063967
    108          6           0        7.014300    0.930213   -3.877681
    109          1           0        7.881988    0.650247   -3.273647
    110          6           0        6.751593    2.447530   -3.742759
    111          6           0        7.281831    0.560246   -5.355533
    112          1           0        7.536087   -0.504854   -5.408863
    113          1           0        6.355843    0.718154   -5.923416
    114          8           0        5.640465    2.908589   -3.992518
    115          6           0        8.381605    1.444952   -5.888036
    116          6           0        8.059940    2.678013   -6.467956
    117          1           0        7.024622    2.897776   -6.717395
    118          6           0        9.723286    1.183452   -5.580512
    119          1           0        9.996781    0.224086   -5.144654
    120          6           0        9.029232    3.658371   -6.645982
    121          1           0        8.765963    4.635788   -7.034700
    122          6           0       10.702524    2.158345   -5.756501
    123          1           0       11.731134    1.984449   -5.459068
    124          8           0       11.272648    4.422306   -6.232242
    125          1           0       10.854165    5.186128   -5.757604
    126          6           0       10.348764    3.428469   -6.229205
    127          7           0        7.807382    3.183824   -3.301371
    128          1           0        8.730551    2.762735   -3.400749
    129          6           0        7.865041    4.649160   -3.478202
    130          1           0        7.238807    4.899583   -4.335550
    131          6           0        9.346117    4.990600   -3.801161
    132          6           0        7.388460    5.471682   -2.249010
    133          1           0        8.244983    5.665724   -1.590979
    134          1           0        7.089096    6.450126   -2.635530
    135          8           0        9.564778    5.886377   -4.634920
    136          6           0        6.237389    4.850256   -1.426916
    137          1           0        5.525672    5.627157   -1.123461
    138          1           0        5.679159    4.143784   -2.045792
    139          6           0        6.713088    4.152669   -0.135895
    140          1           0        6.973909    4.898458    0.620721
    141          1           0        5.923977    3.510888    0.266941
    142          7           0        7.907690    3.339286   -0.392685
    143          1           0        7.877939    2.860995   -1.294049
    144          7           0        9.264537    4.068213    1.339218
    145          1           0       10.155911    4.402800    1.671459
    146          1           0        8.557666    3.854971    2.026597
    147          7           0       10.192850    3.430494   -0.711717
    148          1           0       11.111908    3.478334   -0.291448
    149          1           0       10.134076    3.694896   -1.753688
    150          6           0        9.132221    3.614982    0.069008
    151          8           0       10.213676    4.283596   -3.187577
    152          1           0        4.828261   -6.237481    2.158849
 ---------------------------------------------------------------------

 SCF Done:  E(RB3LYP) =  -3586.96177429     A.U. after    3 cycles

 Alpha  occ. eigenvalues --  -19.26152 -19.24211 -19.21215 -19.19815 -19.18800
 Alpha  occ. eigenvalues --  -19.18710 -19.18701 -19.18429 -19.17217 -19.16598
 Alpha  occ. eigenvalues --  -19.15111 -19.12251 -19.11258 -14.57832 -14.48222
 Alpha  occ. eigenvalues --  -14.45360 -14.45288 -14.43779 -14.42843 -14.42665
 Alpha  occ. eigenvalues --  -14.42604 -14.41916 -14.41863 -14.41736 -14.39884
 Alpha  occ. eigenvalues --  -10.42722 -10.39918 -10.39451 -10.38207 -10.36965
 Alpha  occ. eigenvalues --  -10.36896 -10.35518 -10.35457 -10.35337 -10.35128
 Alpha  occ. eigenvalues --  -10.33512 -10.33294 -10.32892 -10.32389 -10.30688
 Alpha  occ. eigenvalues --  -10.30223 -10.30100 -10.29776 -10.29771 -10.29702
 Alpha  occ. eigenvalues --  -10.29625 -10.29405 -10.29307 -10.29200 -10.29079
 Alpha  occ. eigenvalues --  -10.28835 -10.28792 -10.28703 -10.28642 -10.28612
 Alpha  occ. eigenvalues --  -10.26831 -10.26521 -10.25977 -10.25357 -10.25332
 Alpha  occ. eigenvalues --  -10.25089 -10.25080 -10.25035 -10.25014 -10.24503
 Alpha  occ. eigenvalues --  -10.24356 -10.23937 -10.23349 -10.22834 -10.22467
 Alpha  occ. eigenvalues --  -10.21603 -10.21264 -10.20924 -10.20107 -10.19857
 Alpha  occ. eigenvalues --   -1.18692  -1.15158  -1.13387  -1.12322  -1.11815
 Alpha  occ. eigenvalues --   -1.11144  -1.10634  -1.10014  -1.08891  -1.08649
 Alpha  occ. eigenvalues --   -1.08141  -1.06189  -1.05324  -1.05222  -1.03677
 Alpha  occ. eigenvalues --   -1.02091  -1.00453  -0.99562  -0.99180  -0.98982
 Alpha  occ. eigenvalues --   -0.98344  -0.97104  -0.96494  -0.96384  -0.95748
 Alpha  occ. eigenvalues --   -0.95276  -0.94080  -0.90966  -0.88797  -0.87903
 Alpha  occ. eigenvalues --   -0.87561  -0.86473  -0.85711  -0.84845  -0.84540
 Alpha  occ. eigenvalues --   -0.84269  -0.83912  -0.82379  -0.82205  -0.81419
 Alpha  occ. eigenvalues --   -0.80831  -0.79480  -0.78648  -0.78481  -0.76496
 Alpha  occ. eigenvalues --   -0.76199  -0.75499  -0.74149  -0.73897  -0.73465
 Alpha  occ. eigenvalues --   -0.73101  -0.72536  -0.72392  -0.72262  -0.71116
 Alpha  occ. eigenvalues --   -0.70635  -0.70437  -0.70063  -0.68658  -0.68561
 Alpha  occ. eigenvalues --   -0.67886  -0.67483  -0.67067  -0.66122  -0.66027
 Alpha  occ. eigenvalues --   -0.65678  -0.65303  -0.65176  -0.65016  -0.64805
 Alpha  occ. eigenvalues --   -0.64340  -0.63277  -0.63119  -0.62959  -0.62433
 Alpha  occ. eigenvalues --   -0.61921  -0.61650  -0.61392  -0.61280  -0.60374
 Alpha  occ. eigenvalues --   -0.60129  -0.59691  -0.59195  -0.58703  -0.58303
 Alpha  occ. eigenvalues --   -0.57727  -0.57342  -0.56992  -0.56830  -0.56116
 Alpha  occ. eigenvalues --   -0.56010  -0.55545  -0.55465  -0.55247  -0.55179
 Alpha  occ. eigenvalues --   -0.55065  -0.54704  -0.54627  -0.54187  -0.54115
 Alpha  occ. eigenvalues --   -0.53897  -0.53588  -0.53518  -0.53115  -0.52807
 Alpha  occ. eigenvalues --   -0.52702  -0.52661  -0.52318  -0.52215  -0.51962
 Alpha  occ. eigenvalues --   -0.51641  -0.51575  -0.51316  -0.51036  -0.50868
 Alpha  occ. eigenvalues --   -0.50631  -0.50551  -0.50484  -0.50085  -0.50063
 Alpha  occ. eigenvalues --   -0.49291  -0.49206  -0.49075  -0.49035  -0.48408
 Alpha  occ. eigenvalues --   -0.48397  -0.48262  -0.47955  -0.47739  -0.47524
 Alpha  occ. eigenvalues --   -0.47253  -0.46910  -0.46802  -0.46777  -0.46612
 Alpha  occ. eigenvalues --   -0.46573  -0.46324  -0.46108  -0.46070  -0.45973
 Alpha  occ. eigenvalues --   -0.45795  -0.45628  -0.45353  -0.45322  -0.45024
 Alpha  occ. eigenvalues --   -0.44884  -0.44796  -0.44645  -0.44564  -0.44277
 Alpha  occ. eigenvalues --   -0.44161  -0.43900  -0.43841  -0.43780  -0.43688
 Alpha  occ. eigenvalues --   -0.43262  -0.43205  -0.42746  -0.42447  -0.42274
 Alpha  occ. eigenvalues --   -0.42238  -0.42165  -0.41789  -0.41453  -0.41357
 Alpha  occ. eigenvalues --   -0.41266  -0.41087  -0.40964  -0.40516  -0.40321
 Alpha  occ. eigenvalues --   -0.40257  -0.38984  -0.38934  -0.38760  -0.38602
 Alpha  occ. eigenvalues --   -0.38451  -0.38414  -0.38112  -0.37470  -0.36783
 Alpha  occ. eigenvalues --   -0.36532  -0.35866  -0.35853  -0.35575  -0.35169
 Alpha  occ. eigenvalues --   -0.35069  -0.34284  -0.33960  -0.33852  -0.33341
 Alpha  occ. eigenvalues --   -0.33139  -0.33078  -0.32865  -0.32731  -0.32451
 Alpha  occ. eigenvalues --   -0.32292  -0.32074  -0.31339  -0.31026  -0.30492
 Alpha  occ. eigenvalues --   -0.30282  -0.29826  -0.28104  -0.26893  -0.26531
 Alpha  occ. eigenvalues --   -0.25176  -0.23293
 Alpha virt. eigenvalues --   -0.12423  -0.11622  -0.10478  -0.08422  -0.07616
 Alpha virt. eigenvalues --   -0.06018  -0.05623  -0.05527  -0.04817  -0.04342
 Alpha virt. eigenvalues --   -0.03982  -0.03613  -0.03283  -0.02609  -0.02252

 Mulliken charges:
               1
     1  N   -0.777302
     2  H    0.403492
     3  H    0.427626
     4  H    0.416163
     5  C   -0.115201
     6  H    0.207910
     7  C    0.651199
     8  C   -0.100724
     9  H    0.201149
    10  O   -0.532774
    11  C   -0.508766
    12  H    0.153182
    13  H    0.183001
    14  H    0.206573
    15  C   -0.474044
    16  H    0.165613
    17  H    0.132987
    18  H    0.192906
    19  N   -0.590366
    20  H    0.359129
    21  C   -0.072176
    22  H    0.187745
    23  C    0.631955
    24  C   -0.093023
    25  H    0.153239
    26  O   -0.562028
    27  C   -0.279904
    28  H    0.144579
    29  H    0.156731
    30  C   -0.481704
    31  H    0.178762
    32  H    0.133113
    33  H    0.174937
    34  C   -0.462699
    35  H    0.169399
    36  H    0.154688
    37  H    0.156211
    38  N   -0.585619
    39  H    0.363431
    40  C   -0.075280
    41  H    0.183754
    42  C    0.631808
    43  C   -0.363861
    44  H    0.182381
    45  H    0.173857
    46  O   -0.543906
    47  C    0.185850
    48  C   -0.145409
    49  H    0.154377
    50  C   -0.166563
    51  H    0.153991
    52  C   -0.133141
    53  H    0.153297
    54  C   -0.151367
    55  H    0.148584
    56  C   -0.223833
    57  H    0.150713
    58  N   -0.600016
    59  H    0.355535
    60  C   -0.088230
    61  H    0.186236
    62  C    0.629782
    63  C   -0.279433
    64  H    0.155848
    65  H    0.173934
    66  O   -0.531947
    67  C   -0.073691
    68  H    0.128437
    69  C   -0.463592
    70  H    0.141392
    71  H    0.147534
    72  H    0.149624
    73  C   -0.470384
    74  H    0.139259
    75  H    0.140199
    76  H    0.182944
    77  N   -0.597320
    78  H    0.355013
    79  C   -0.095769
    80  H    0.193502
    81  C    0.658455
    82  C   -0.251826
    83  H    0.174594
    84  H    0.161898
    85  O   -0.561163
    86  C   -0.371765
    87  H    0.184179
    88  H    0.194949
    89  C    0.581219
    90  O   -0.459677
    91  O   -0.566698
    92  N   -0.590944
    93  H    0.345826
    94  C   -0.080349
    95  H    0.182896
    96  C    0.653574
    97  C   -0.360669
    98  H    0.190286
    99  H    0.179600
   100  O   -0.553362
   101  C    0.616743
   102  N   -0.753339
   103  H    0.356707
   104  H    0.341948
   105  O   -0.529090
   106  N   -0.594467
   107  H    0.336345
   108  C   -0.026253
   109  H    0.168435
   110  C    0.636018
   111  C   -0.382296
   112  H    0.161625
   113  H    0.150542
   114  O   -0.553144
   115  C    0.136165
   116  C   -0.191797
   117  H    0.130349
   118  C   -0.213355
   119  H    0.116635
   120  C   -0.170933
   121  H    0.146476
   122  C   -0.144216
   123  H    0.139110
   124  O   -0.690330
   125  H    0.441392
   126  C    0.364313
   127  N   -0.660626
   128  H    0.365536
   129  C   -0.005342
   130  H    0.174913
   131  C    0.600753
   132  C   -0.300769
   133  H    0.138998
   134  H    0.170444
   135  O   -0.578800
   136  C   -0.309740
   137  H    0.147162
   138  H    0.198368
   139  C   -0.157058
   140  H    0.152572
   141  H    0.167659
   142  N   -0.569584
   143  H    0.394288
   144  N   -0.746735
   145  H    0.362102
   146  H    0.365887
   147  N   -0.770516
   148  H    0.339220
   149  H    0.432198
   150  C    0.727071
   151  O   -0.619618
   152  H    0.413511
 Sum of Mulliken charges =   1.00000

 Dipole moment (field-independent basis, Debye):
    X=            -30.6499    Y=              8.6714    Z=             30.7712  Tot=             44.2886
 Quadrupole moment (field-independent basis, Debye-Ang):
   XX=           -159.8045   YY=           -411.8255   ZZ=           -276.7031
   XY=           -119.2243   XZ=           -112.7390   YZ=            124.6276

 Normal termination of Gaussian 16 at Sat Aug 13 18:47:42 2022.
