 Gaussian 16, Revision C.01,
 Gaussian 16:  ES64L-G16RevC.01  3-Jul-2019

 ----------------------------------------------------------------------
 # B3LYP/6-31G* empiricaldispersion=gd3bj guess=read geom=check nosymm
 integral(ultrafinegrid)
 ----------------------------------------------------------------------

 ------------------------------------------------------
 Candidate Structure: Conf:156 Charge calc in gas phase
 ------------------------------------------------------
 Structure from the checkpoint file:  "conf-156.chk"
 Charge =  1 Multiplicity = 1

                          Input orientation:
 ---------------------------------------------------------------------
 Center     Atomic      Atomic             Coordinates (Angstroms)
 Number     Number       Type             X           Y           Z
 ---------------------------------------------------------------------
      1          7           0      -11.546113    1.660348    5.246771
      2          1           0      -12.339952    2.182323    4.866147
      3          1           0      -11.418217    0.764140    4.688162
      4          1           0      -11.728368    1.455069    6.232940
      5          6           0      -10.214795    2.354031    5.029667
      6          1           0      -10.413694    3.391755    4.753190
      7          6           0       -9.612972    1.543074    3.857659
      8          6           0       -9.363359    2.284813    6.324029
      9          1           0      -10.025780    2.651495    7.123360
     10          8           0      -10.133702    0.449615    3.593103
     11          6           0       -8.921149    0.852376    6.653617
     12          1           0       -8.226770    0.459961    5.904621
     13          1           0       -8.398543    0.837032    7.612546
     14          1           0       -9.755230    0.144235    6.729144
     15          6           0       -8.162660    3.240391    6.263790
     16          1           0       -7.374204    2.879294    5.596634
     17          1           0       -8.458288    4.249858    5.954631
     18          1           0       -7.722928    3.321354    7.261911
     19          7           0       -8.554692    2.066583    3.243028
     20          1           0       -8.127571    2.907754    3.618113
     21          6           0       -7.641697    1.265367    2.419377
     22          1           0       -8.070169    0.262902    2.360101
     23          6           0       -6.327287    1.252532    3.206974
     24          6           0       -7.474071    1.834932    0.986652
     25          1           0       -8.461451    1.725424    0.516712
     26          8           0       -5.928929    2.288697    3.756910
     27          6           0       -6.470412    0.969936    0.198540
     28          1           0       -6.729830   -0.090475    0.335402
     29          1           0       -5.465927    1.101200    0.620195
     30          6           0       -7.099652    3.321907    0.980664
     31          1           0       -6.130395    3.496190    1.455516
     32          1           0       -7.848694    3.928472    1.501676
     33          1           0       -7.047278    3.694375   -0.045018
     34          6           0       -6.433643    1.275616   -1.300551
     35          1           0       -5.757535    0.585838   -1.814190
     36          1           0       -7.427532    1.172872   -1.751430
     37          1           0       -6.073438    2.289163   -1.499688
     38          7           0       -5.676438    0.080666    3.272612
     39          1           0       -6.023237   -0.707905    2.742268
     40          6           0       -4.375431   -0.060611    3.931912
     41          1           0       -4.355487    0.704464    4.713104
     42          6           0       -3.269495    0.236142    2.899262
     43          6           0       -4.242913   -1.453523    4.553759
     44          1           0       -3.251389   -1.518702    5.012005
     45          1           0       -4.254773   -2.202882    3.755160
     46          8           0       -2.560164   -0.654147    2.434239
     47          6           0       -5.330073   -1.713998    5.570109
     48          6           0       -5.231928   -1.188356    6.864933
     49          1           0       -4.346317   -0.623365    7.146404
     50          6           0       -6.472568   -2.448770    5.232258
     51          1           0       -6.555235   -2.883381    4.238344
     52          6           0       -6.242599   -1.401737    7.801501
     53          1           0       -6.137202   -1.006741    8.808139
     54          6           0       -7.490173   -2.661535    6.163813
     55          1           0       -8.360048   -3.250624    5.887245
     56          6           0       -7.375711   -2.141053    7.453473
     57          1           0       -8.154296   -2.325214    8.188391
     58          7           0       -3.214508    1.532603    2.516808
     59          1           0       -3.807564    2.210428    2.983663
     60          6           0       -2.355053    1.978097    1.418148
     61          1           0       -2.315653    1.149910    0.705925
     62          6           0       -0.918481    2.222800    1.923759
     63          6           0       -2.913195    3.225711    0.739931
     64          1           0       -2.810843    4.067836    1.434459
     65          1           0       -3.985221    3.076555    0.550548
     66          8           0       -0.474187    3.346849    2.134160
     67          6           0       -2.197569    3.558094   -0.584525
     68          1           0       -1.120111    3.483093   -0.419395
     69          6           0       -2.538431    2.562781   -1.698506
     70          1           0       -3.611608    2.581653   -1.934271
     71          1           0       -2.260250    1.536909   -1.434076
     72          1           0       -1.984999    2.819300   -2.606860
     73          6           0       -2.507174    4.992954   -1.021329
     74          1           0       -3.568518    5.110575   -1.280327
     75          1           0       -1.899466    5.259905   -1.889866
     76          1           0       -2.278873    5.710116   -0.222667
     77          7           0       -0.185945    1.086902    2.105366
     78          1           0       -0.630337    0.233061    1.783628
     79          6           0        1.254892    1.167036    1.940472
     80          1           0        1.649560    1.876346    2.675036
     81          6           0        1.537284    1.709146    0.517497
     82          6           0        1.890855   -0.213057    2.138920
     83          1           0        2.972741   -0.140372    1.989295
     84          1           0        1.524970   -0.896202    1.363308
     85          8           0        0.693032    1.633007   -0.369072
     86          6           0        1.595753   -0.793761    3.521033
     87          1           0        1.969703   -0.136817    4.316667
     88          1           0        0.515873   -0.878973    3.691812
     89          6           0        2.211451   -2.161201    3.707509
     90          8           0        2.843997   -2.772842    2.876708
     91          8           0        1.965901   -2.648772    4.949349
     92          7           0        2.749219    2.290317    0.346665
     93          1           0        3.506515    2.150964    1.011718
     94          6           0        3.203043    2.734819   -0.959710
     95          1           0        2.636917    2.194119   -1.723834
     96          6           0        4.702203    2.404242   -1.032759
     97          6           0        2.989782    4.256207   -1.163533
     98          1           0        3.609374    4.796484   -0.438577
     99          1           0        3.314036    4.531642   -2.169878
    100          8           0        5.341319    2.174708   -0.001457
    101          6           0        1.520591    4.657177   -1.027417
    102          7           0        1.138756    4.978606    0.247800
    103          1           0        0.144032    4.990560    0.433983
    104          1           0        1.681581    4.606716    1.015308
    105          8           0        0.769034    4.711037   -1.991365
    106          7           0        5.242225    2.433060   -2.261223
    107          1           0        4.687884    2.581192   -3.100544
    108          6           0        6.647863    2.182548   -2.520493
    109          1           0        7.248096    2.711607   -1.774133
    110          6           0        6.921657    2.716292   -3.930748
    111          6           0        6.973533    0.661557   -2.437646
    112          1           0        6.710141    0.340385   -1.424856
    113          1           0        6.311182    0.142441   -3.138841
    114          8           0        6.009626    2.754430   -4.764194
    115          6           0        8.417547    0.368041   -2.752606
    116          6           0        8.803658   -0.071727   -4.026529
    117          1           0        8.038573   -0.280110   -4.770388
    118          6           0        9.422269    0.649326   -1.821366
    119          1           0        9.150720    0.985985   -0.823166
    120          6           0       10.141802   -0.210729   -4.374409
    121          1           0       10.437859   -0.504863   -5.374625
    122          6           0       10.769039    0.518364   -2.155359
    123          1           0       11.538794    0.753195   -1.422742
    124          8           0       12.434713   -0.019326   -3.830297
    125          1           0       13.000651    0.315330   -3.117948
    126          6           0       11.131365    0.104651   -3.439632
    127          7           0        8.190770    3.077020   -4.180557
    128          1           0        8.918630    2.954692   -3.482502
    129          6           0        8.709164    3.265477   -5.530767
    130          1           0        8.156583    2.614397   -6.213029
    131          6           0       10.198330    2.853979   -5.486762
    132          6           0        8.507546    4.742124   -5.954036
    133          1           0        7.464574    4.973752   -5.717486
    134          1           0        9.129552    5.369419   -5.302265
    135          8           0       10.661297    2.295647   -6.545473
    136          6           0        8.747458    5.097255   -7.438111
    137          1           0        8.537673    4.229121   -8.076621
    138          1           0        8.026554    5.867556   -7.735575
    139          6           0       10.133833    5.655831   -7.793253
    140          1           0       10.116713    6.055663   -8.815272
    141          1           0       10.380763    6.479861   -7.112655
    142          7           0       11.154587    4.613346   -7.687577
    143          1           0       10.793793    3.643421   -7.591273
    144          7           0       12.896809    5.979559   -6.947176
    145          1           0       13.849188    6.046152   -6.619875
    146          1           0       12.591346    6.726896   -7.552722
    147          7           0       12.977256    3.648187   -6.684645
    148          1           0       13.784741    3.753806   -6.086947
    149          1           0       12.326927    2.849218   -6.483108
    150          6           0       12.343414    4.750118   -7.102026
    151          8           0       10.839838    3.158376   -4.467506
    152          1           0        2.397337   -3.523403    4.985315
 ---------------------------------------------------------------------

 SCF Done:  E(RB3LYP) =  -3586.95582359     A.U. after    1 cycles

 Alpha  occ. eigenvalues --  -19.27835 -19.23781 -19.23243 -19.19731 -19.19255
 Alpha  occ. eigenvalues --  -19.18204 -19.17100 -19.15913 -19.15488 -19.13800
 Alpha  occ. eigenvalues --  -19.13694 -19.11505 -19.10806 -14.60706 -14.50606
 Alpha  occ. eigenvalues --  -14.47759 -14.44184 -14.43604 -14.41114 -14.40589
 Alpha  occ. eigenvalues --  -14.40091 -14.40073 -14.39326 -14.37319 -14.37260
 Alpha  occ. eigenvalues --  -10.44521 -10.41245 -10.40196 -10.38550 -10.36633
 Alpha  occ. eigenvalues --  -10.36380 -10.35050 -10.34937 -10.33644 -10.32895
 Alpha  occ. eigenvalues --  -10.32706 -10.32524 -10.31288 -10.30720 -10.30323
 Alpha  occ. eigenvalues --  -10.29991 -10.29594 -10.28827 -10.28745 -10.28203
 Alpha  occ. eigenvalues --  -10.28055 -10.28019 -10.27685 -10.27602 -10.27350
 Alpha  occ. eigenvalues --  -10.27277 -10.27269 -10.27232 -10.27186 -10.27073
 Alpha  occ. eigenvalues --  -10.26334 -10.26213 -10.26091 -10.24992 -10.24934
 Alpha  occ. eigenvalues --  -10.24532 -10.23740 -10.23492 -10.23214 -10.23076
 Alpha  occ. eigenvalues --  -10.21986 -10.21473 -10.21429 -10.20754 -10.20591
 Alpha  occ. eigenvalues --  -10.20542 -10.20418 -10.20376 -10.20143 -10.19623
 Alpha  occ. eigenvalues --   -1.20358  -1.15362  -1.14673  -1.14578  -1.11487
 Alpha  occ. eigenvalues --   -1.09163  -1.07925  -1.07604  -1.07337  -1.07315
 Alpha  occ. eigenvalues --   -1.07141  -1.05716  -1.05627  -1.05294  -1.04390
 Alpha  occ. eigenvalues --   -1.04038  -0.99917  -0.97383  -0.97276  -0.96787
 Alpha  occ. eigenvalues --   -0.95986  -0.95821  -0.95675  -0.95123  -0.93960
 Alpha  occ. eigenvalues --   -0.93891  -0.92381  -0.91827  -0.88210  -0.87038
 Alpha  occ. eigenvalues --   -0.87015  -0.86028  -0.85150  -0.83839  -0.83309
 Alpha  occ. eigenvalues --   -0.82668  -0.82591  -0.82154  -0.81532  -0.80534
 Alpha  occ. eigenvalues --   -0.80073  -0.79531  -0.77566  -0.77334  -0.76267
 Alpha  occ. eigenvalues --   -0.76170  -0.74968  -0.74962  -0.74340  -0.74017
 Alpha  occ. eigenvalues --   -0.71939  -0.71812  -0.71415  -0.70849  -0.70685
 Alpha  occ. eigenvalues --   -0.70361  -0.69644  -0.69052  -0.68831  -0.68523
 Alpha  occ. eigenvalues --   -0.67923  -0.67213  -0.66643  -0.66563  -0.65499
 Alpha  occ. eigenvalues --   -0.64702  -0.63781  -0.63727  -0.63264  -0.63247
 Alpha  occ. eigenvalues --   -0.63105  -0.62796  -0.62125  -0.61904  -0.60905
 Alpha  occ. eigenvalues --   -0.60816  -0.60769  -0.60396  -0.59852  -0.59613
 Alpha  occ. eigenvalues --   -0.59573  -0.59285  -0.58916  -0.58663  -0.58092
 Alpha  occ. eigenvalues --   -0.56883  -0.56634  -0.56474  -0.56155  -0.55821
 Alpha  occ. eigenvalues --   -0.55792  -0.55222  -0.54957  -0.54801  -0.54614
 Alpha  occ. eigenvalues --   -0.54225  -0.54104  -0.53690  -0.53457  -0.53120
 Alpha  occ. eigenvalues --   -0.53033  -0.52835  -0.52471  -0.52185  -0.52012
 Alpha  occ. eigenvalues --   -0.51669  -0.51439  -0.51285  -0.51087  -0.50862
 Alpha  occ. eigenvalues --   -0.50818  -0.50459  -0.50188  -0.50095  -0.49806
 Alpha  occ. eigenvalues --   -0.49641  -0.49467  -0.49322  -0.48831  -0.48778
 Alpha  occ. eigenvalues --   -0.48183  -0.48126  -0.48099  -0.47838  -0.47644
 Alpha  occ. eigenvalues --   -0.47474  -0.47252  -0.47192  -0.47143  -0.46875
 Alpha  occ. eigenvalues --   -0.46629  -0.46546  -0.46317  -0.46264  -0.46203
 Alpha  occ. eigenvalues --   -0.45949  -0.45576  -0.45299  -0.45281  -0.44916
 Alpha  occ. eigenvalues --   -0.44693  -0.44191  -0.44017  -0.43816  -0.43730
 Alpha  occ. eigenvalues --   -0.43696  -0.43504  -0.43423  -0.43295  -0.42935
 Alpha  occ. eigenvalues --   -0.42836  -0.42703  -0.42416  -0.42179  -0.42150
 Alpha  occ. eigenvalues --   -0.41981  -0.41924  -0.41723  -0.41601  -0.41474
 Alpha  occ. eigenvalues --   -0.41420  -0.41315  -0.41243  -0.40727  -0.40282
 Alpha  occ. eigenvalues --   -0.40008  -0.39972  -0.39789  -0.39688  -0.39634
 Alpha  occ. eigenvalues --   -0.39459  -0.38931  -0.38427  -0.37899  -0.37568
 Alpha  occ. eigenvalues --   -0.37409  -0.37142  -0.36761  -0.36630  -0.36119
 Alpha  occ. eigenvalues --   -0.36090  -0.36067  -0.35587  -0.35130  -0.34572
 Alpha  occ. eigenvalues --   -0.34476  -0.34223  -0.33404  -0.33077  -0.32248
 Alpha  occ. eigenvalues --   -0.32043  -0.31403  -0.31253  -0.30629  -0.30120
 Alpha  occ. eigenvalues --   -0.29765  -0.29309  -0.29092  -0.28877  -0.28309
 Alpha  occ. eigenvalues --   -0.27829  -0.27167  -0.26921  -0.26407  -0.25439
 Alpha  occ. eigenvalues --   -0.24870  -0.22906
 Alpha virt. eigenvalues --   -0.13391  -0.11814  -0.09892  -0.08530  -0.08472
 Alpha virt. eigenvalues --   -0.07509  -0.06029  -0.05442  -0.04034  -0.03537
 Alpha virt. eigenvalues --   -0.03362  -0.03180  -0.02447  -0.01996  -0.01873

 Mulliken charges:
               1
     1  N   -0.759305
     2  H    0.418237
     3  H    0.436302
     4  H    0.413477
     5  C   -0.111306
     6  H    0.211684
     7  C    0.652969
     8  C   -0.114974
     9  H    0.156869
    10  O   -0.539412
    11  C   -0.470356
    12  H    0.195280
    13  H    0.192474
    14  H    0.136604
    15  C   -0.497721
    16  H    0.205771
    17  H    0.159998
    18  H    0.190017
    19  N   -0.588846
    20  H    0.374342
    21  C   -0.092759
    22  H    0.189932
    23  C    0.646801
    24  C   -0.071791
    25  H    0.148509
    26  O   -0.562996
    27  C   -0.287860
    28  H    0.126967
    29  H    0.165019
    30  C   -0.478451
    31  H    0.180987
    32  H    0.132659
    33  H    0.178571
    34  C   -0.457737
    35  H    0.172215
    36  H    0.151059
    37  H    0.170150
    38  N   -0.581447
    39  H    0.348311
    40  C   -0.077057
    41  H    0.192625
    42  C    0.644483
    43  C   -0.390211
    44  H    0.188663
    45  H    0.177502
    46  O   -0.532676
    47  C    0.185743
    48  C   -0.182961
    49  H    0.140206
    50  C   -0.196146
    51  H    0.126511
    52  C   -0.135616
    53  H    0.143233
    54  C   -0.133541
    55  H    0.140051
    56  C   -0.136989
    57  H    0.136765
    58  N   -0.627686
    59  H    0.359632
    60  C   -0.059606
    61  H    0.183331
    62  C    0.646017
    63  C   -0.296552
    64  H    0.150252
    65  H    0.125234
    66  O   -0.543216
    67  C   -0.095468
    68  H    0.186473
    69  C   -0.460099
    70  H    0.118758
    71  H    0.148894
    72  H    0.175354
    73  C   -0.456410
    74  H    0.115595
    75  H    0.187250
    76  H    0.132028
    77  N   -0.596628
    78  H    0.359316
    79  C   -0.055423
    80  H    0.168248
    81  C    0.624698
    82  C   -0.296810
    83  H    0.177610
    84  H    0.175040
    85  O   -0.530845
    86  C   -0.357052
    87  H    0.179824
    88  H    0.190686
    89  C    0.583737
    90  O   -0.454194
    91  O   -0.573102
    92  N   -0.626448
    93  H    0.353200
    94  C   -0.063340
    95  H    0.198817
    96  C    0.630217
    97  C   -0.352487
    98  H    0.159000
    99  H    0.180225
   100  O   -0.554228
   101  C    0.591998
   102  N   -0.734277
   103  H    0.359582
   104  H    0.333874
   105  O   -0.512516
   106  N   -0.619349
   107  H    0.358030
   108  C   -0.031571
   109  H    0.169791
   110  C    0.610726
   111  C   -0.354222
   112  H    0.175740
   113  H    0.152874
   114  O   -0.564057
   115  C    0.146987
   116  C   -0.188526
   117  H    0.132682
   118  C   -0.207771
   119  H    0.130866
   120  C   -0.155538
   121  H    0.153005
   122  C   -0.180434
   123  H    0.115080
   124  O   -0.644953
   125  H    0.403838
   126  C    0.377025
   127  N   -0.605301
   128  H    0.359686
   129  C   -0.015869
   130  H    0.162193
   131  C    0.600779
   132  C   -0.269358
   133  H    0.169725
   134  H    0.142503
   135  O   -0.655419
   136  C   -0.304430
   137  H    0.168384
   138  H    0.155074
   139  C   -0.146003
   140  H    0.160583
   141  H    0.157915
   142  N   -0.599491
   143  H    0.398680
   144  N   -0.754630
   145  H    0.358817
   146  H    0.364670
   147  N   -0.749657
   148  H    0.339627
   149  H    0.411934
   150  C    0.753874
   151  O   -0.576224
   152  H    0.412381
 Sum of Mulliken charges =   1.00000

 Dipole moment (field-independent basis, Debye):
    X=            -33.3990    Y=             14.3704    Z=             19.9058  Tot=             41.4517
 Quadrupole moment (field-independent basis, Debye-Ang):
   XX=            272.3807   YY=           -371.7380   ZZ=           -245.7776
   XY=             47.2703   XZ=           -334.3334   YZ=            -31.9333

 Normal termination of Gaussian 16 at Sat Aug 13 18:46:12 2022.
