 Gaussian 16, Revision C.01,
 Gaussian 16:  ES64L-G16RevC.01  3-Jul-2019

 ----------------------------------------------------------------------
 # B3LYP/6-31G* empiricaldispersion=gd3bj guess=read geom=check nosymm
 integral(ultrafinegrid)
 ----------------------------------------------------------------------

 ------------------------------------------------------
 Candidate Structure: Conf:288 Charge calc in gas phase
 ------------------------------------------------------
 Structure from the checkpoint file:  "conf-288.chk"
 Charge =  1 Multiplicity = 1

                          Input orientation:
 ---------------------------------------------------------------------
 Center     Atomic      Atomic             Coordinates (Angstroms)
 Number     Number       Type             X           Y           Z
 ---------------------------------------------------------------------
      1          7           0        2.983239   -4.674156    4.301676
      2          1           0        3.421685   -5.294632    4.983988
      3          1           0        3.220761   -5.026350    3.334043
      4          1           0        3.483986   -3.756765    4.371597
      5          6           0        1.495587   -4.577702    4.519090
      6          1           0        1.164229   -5.606584    4.699242
      7          6           0        0.949299   -4.187758    3.120508
      8          6           0        1.127876   -3.708623    5.736973
      9          1           0        1.154033   -2.653723    5.434493
     10          8           0        1.451852   -4.761224    2.152389
     11          6           0       -0.293788   -4.058678    6.209038
     12          1           0       -0.315463   -5.071645    6.628439
     13          1           0       -0.613055   -3.364189    6.990911
     14          1           0       -1.035039   -4.019118    5.405687
     15          6           0        2.122702   -3.880180    6.895817
     16          1           0        2.207543   -4.932437    7.198441
     17          1           0        3.120106   -3.497823    6.653158
     18          1           0        1.771162   -3.321659    7.767903
     19          7           0       -0.003092   -3.255520    3.054408
     20          1           0       -0.354333   -2.781609    3.882989
     21          6           0       -0.494535   -2.628514    1.824118
     22          1           0        0.316624   -2.579967    1.091636
     23          6           0       -0.897794   -1.220541    2.279431
     24          6           0       -1.725645   -3.383123    1.236748
     25          1           0       -2.419331   -3.509897    2.079318
     26          8           0       -1.273781   -1.031097    3.442170
     27          6           0       -1.348417   -4.788457    0.724598
     28          1           0       -2.286645   -5.313813    0.502705
     29          1           0       -0.862313   -5.353071    1.525375
     30          6           0       -2.448169   -2.575639    0.147337
     31          1           0       -1.771701   -2.251159   -0.649810
     32          1           0       -2.937196   -1.683631    0.546394
     33          1           0       -3.222518   -3.199017   -0.311960
     34          6           0       -0.455520   -4.802407   -0.520108
     35          1           0       -0.169964   -5.830588   -0.767544
     36          1           0       -0.969548   -4.384138   -1.391448
     37          1           0        0.464788   -4.232363   -0.367756
     38          7           0       -0.839462   -0.247744    1.352139
     39          1           0       -0.623221   -0.468570    0.381776
     40          6           0       -1.544628    1.009497    1.547408
     41          1           0       -2.421607    0.806906    2.171470
     42          6           0       -2.023604    1.446595    0.151855
     43          6           0       -0.669082    2.053232    2.293162
     44          1           0        0.192574    2.330228    1.678967
     45          1           0       -0.287756    1.538616    3.181709
     46          8           0       -1.704089    0.790313   -0.846238
     47          6           0       -1.450485    3.284663    2.691078
     48          6           0       -1.157376    4.534286    2.131093
     49          1           0       -0.297577    4.630260    1.478159
     50          6           0       -2.543321    3.176123    3.564805
     51          1           0       -2.770952    2.215510    4.021621
     52          6           0       -1.956082    5.644062    2.410442
     53          1           0       -1.723737    6.600653    1.952378
     54          6           0       -3.339884    4.285347    3.848523
     55          1           0       -4.184496    4.184945    4.524130
     56          6           0       -3.054253    5.520973    3.262771
     57          1           0       -3.680876    6.382255    3.474580
     58          7           0       -2.810423    2.540269    0.098136
     59          1           0       -2.919349    3.099002    0.936076
     60          6           0       -3.256065    3.142112   -1.166991
     61          1           0       -3.519420    2.316520   -1.832389
     62          6           0       -2.053805    3.917340   -1.746892
     63          6           0       -4.455238    4.046712   -0.900130
     64          1           0       -4.143060    4.824014   -0.191738
     65          1           0       -5.231860    3.444132   -0.410171
     66          8           0       -1.883718    5.116614   -1.546891
     67          6           0       -5.040103    4.721766   -2.152351
     68          1           0       -4.256662    5.361004   -2.576594
     69          6           0       -5.470707    3.705399   -3.218060
     70          1           0       -6.201591    2.994207   -2.811311
     71          1           0       -4.623823    3.131185   -3.610331
     72          1           0       -5.939878    4.213037   -4.067920
     73          6           0       -6.216537    5.618405   -1.748621
     74          1           0       -7.033622    5.024331   -1.319150
     75          1           0       -6.616058    6.156031   -2.615479
     76          1           0       -5.912407    6.361041   -1.002175
     77          7           0       -1.168691    3.127377   -2.414295
     78          1           0       -1.290047    2.116269   -2.340606
     79          6           0        0.215048    3.535652   -2.582645
     80          1           0        0.264563    4.460490   -3.167655
     81          6           0        0.936163    2.382254   -3.275028
     82          6           0        0.853164    3.746951   -1.186229
     83          1           0        0.809275    2.786805   -0.663886
     84          1           0        0.199889    4.438547   -0.652995
     85          8           0        0.547368    1.223395   -3.141072
     86          6           0        2.276909    4.293244   -1.149535
     87          1           0        3.004601    3.651746   -1.659273
     88          1           0        2.343711    5.277681   -1.631458
     89          6           0        2.755575    4.441835    0.277455
     90          8           0        2.133623    4.127175    1.271701
     91          8           0        4.003024    4.954290    0.334715
     92          7           0        2.076502    2.696324   -3.947323
     93          1           0        2.406675    3.652077   -3.913351
     94          6           0        3.062185    1.651038   -4.240548
     95          1           0        2.521485    0.782655   -4.615972
     96          6           0        3.784218    1.292187   -2.925442
     97          6           0        4.062539    2.136262   -5.277460
     98          1           0        3.532445    2.491573   -6.168922
     99          1           0        4.645384    2.969229   -4.867674
    100          8           0        4.819980    1.865585   -2.586248
    101          6           0        5.007243    0.999210   -5.662165
    102          7           0        6.046257    1.363077   -6.465042
    103          1           0        6.738642    0.661852   -6.688155
    104          1           0        6.278961    2.330579   -6.631880
    105          8           0        4.818314   -0.155377   -5.303590
    106          7           0        3.152890    0.375217   -2.154632
    107          1           0        2.214476    0.070190   -2.399775
    108          6           0        3.662519    0.031044   -0.843823
    109          1           0        4.753366    0.027089   -0.910815
    110          6           0        3.146880   -1.363481   -0.472090
    111          6           0        3.251792    1.068499    0.247672
    112          1           0        3.791568    1.993485    0.031465
    113          1           0        2.178201    1.253496    0.162971
    114          8           0        1.950308   -1.647297   -0.588765
    115          6           0        3.594699    0.492844    1.593087
    116          6           0        2.625549   -0.211332    2.312781
    117          1           0        1.582461   -0.112480    2.035586
    118          6           0        4.934602    0.380475    1.986974
    119          1           0        5.697911    0.952164    1.464527
    120          6           0        2.993402   -1.132864    3.291690
    121          1           0        2.234962   -1.731335    3.783283
    122          6           0        5.312914   -0.532706    2.964832
    123          1           0        6.358943   -0.685902    3.209040
    124          8           0        4.732310   -2.453128    4.307861
    125          1           0        5.429187   -2.881743    3.759485
    126          6           0        4.342682   -1.346830    3.547651
    127          7           0        4.079866   -2.226666   -0.006257
    128          1           0        4.995395   -1.886015    0.265046
    129          6           0        3.706044   -3.513761    0.557568
    130          1           0        2.758894   -3.399247    1.086365
    131          6           0        4.766927   -3.958192    1.575946
    132          6           0        3.486949   -4.577640   -0.540690
    133          1           0        2.862051   -5.373498   -0.124350
    134          1           0        2.904750   -4.102349   -1.333153
    135          8           0        4.549931   -5.085324    2.165859
    136          6           0        4.807302   -5.154290   -1.093712
    137          1           0        4.768216   -5.247528   -2.184371
    138          1           0        5.629756   -4.462316   -0.874350
    139          6           0        5.123106   -6.528720   -0.472524
    140          1           0        4.748873   -6.573363    0.548409
    141          1           0        4.636764   -7.331718   -1.034864
    142          7           0        6.561917   -6.829183   -0.439881
    143          1           0        7.020240   -6.934138   -1.335632
    144          7           0        6.920742   -6.362867    1.824514
    145          1           0        7.563487   -6.415464    2.601627
    146          1           0        6.012206   -5.861569    1.997864
    147          7           0        8.660955   -7.100263    0.489710
    148          1           0        9.353657   -6.760733    1.140036
    149          1           0        9.004976   -7.464329   -0.386184
    150          6           0        7.361420   -6.736177    0.628216
    151          8           0        5.778453   -3.258502    1.776163
    152          1           0        4.235393    5.012884    1.280996
 ---------------------------------------------------------------------

 SCF Done:  E(RB3LYP) =  -3587.02840190     A.U. after    2 cycles

 Alpha  occ. eigenvalues --  -19.26289 -19.25787 -19.20984 -19.20423 -19.19465
 Alpha  occ. eigenvalues --  -19.19331 -19.19043 -19.18681 -19.18629 -19.18226
 Alpha  occ. eigenvalues --  -19.17116 -19.16886 -19.16438 -14.52533 -14.49767
 Alpha  occ. eigenvalues --  -14.49648 -14.47510 -14.45103 -14.43417 -14.42699
 Alpha  occ. eigenvalues --  -14.42413 -14.42004 -14.41253 -14.41250 -14.40051
 Alpha  occ. eigenvalues --  -10.45595 -10.38719 -10.38500 -10.36715 -10.35987
 Alpha  occ. eigenvalues --  -10.35565 -10.35510 -10.35494 -10.35069 -10.34757
 Alpha  occ. eigenvalues --  -10.34153 -10.33261 -10.32134 -10.31951 -10.30542
 Alpha  occ. eigenvalues --  -10.30376 -10.30058 -10.29537 -10.29457 -10.29381
 Alpha  occ. eigenvalues --  -10.28774 -10.28323 -10.27837 -10.27065 -10.27052
 Alpha  occ. eigenvalues --  -10.26518 -10.26349 -10.26002 -10.25981 -10.25955
 Alpha  occ. eigenvalues --  -10.25892 -10.25889 -10.25630 -10.25431 -10.25403
 Alpha  occ. eigenvalues --  -10.25087 -10.24974 -10.24944 -10.24191 -10.24125
 Alpha  occ. eigenvalues --  -10.23950 -10.23870 -10.23563 -10.23527 -10.23010
 Alpha  occ. eigenvalues --  -10.22940 -10.22697 -10.22001 -10.21208 -10.20886
 Alpha  occ. eigenvalues --   -1.16848  -1.14062  -1.13861  -1.13510  -1.12413
 Alpha  occ. eigenvalues --   -1.11414  -1.10995  -1.10416  -1.09869  -1.09060
 Alpha  occ. eigenvalues --   -1.08500  -1.08161  -1.07766  -1.07712  -1.03531
 Alpha  occ. eigenvalues --   -1.03411  -1.01667  -1.01502  -0.99682  -0.99609
 Alpha  occ. eigenvalues --   -0.98962  -0.98649  -0.98023  -0.97367  -0.96012
 Alpha  occ. eigenvalues --   -0.92729  -0.91368  -0.90896  -0.88055  -0.87707
 Alpha  occ. eigenvalues --   -0.86988  -0.85899  -0.85625  -0.84506  -0.84378
 Alpha  occ. eigenvalues --   -0.82666  -0.82494  -0.82065  -0.80873  -0.80144
 Alpha  occ. eigenvalues --   -0.79434  -0.79414  -0.78784  -0.78326  -0.77547
 Alpha  occ. eigenvalues --   -0.76897  -0.76332  -0.74559  -0.74300  -0.72295
 Alpha  occ. eigenvalues --   -0.72016  -0.71970  -0.71506  -0.71186  -0.69937
 Alpha  occ. eigenvalues --   -0.69684  -0.69312  -0.68904  -0.68584  -0.68125
 Alpha  occ. eigenvalues --   -0.67753  -0.67685  -0.66554  -0.66160  -0.65985
 Alpha  occ. eigenvalues --   -0.65577  -0.65051  -0.64626  -0.64501  -0.64162
 Alpha  occ. eigenvalues --   -0.63644  -0.63427  -0.63230  -0.62790  -0.62630
 Alpha  occ. eigenvalues --   -0.62504  -0.62213  -0.61714  -0.61548  -0.61169
 Alpha  occ. eigenvalues --   -0.60529  -0.59967  -0.59283  -0.59218  -0.58250
 Alpha  occ. eigenvalues --   -0.57643  -0.57376  -0.56824  -0.56497  -0.56286
 Alpha  occ. eigenvalues --   -0.56095  -0.56007  -0.55628  -0.55566  -0.55139
 Alpha  occ. eigenvalues --   -0.55080  -0.54767  -0.54315  -0.54121  -0.53891
 Alpha  occ. eigenvalues --   -0.53756  -0.53612  -0.53386  -0.52926  -0.52878
 Alpha  occ. eigenvalues --   -0.52558  -0.52147  -0.52045  -0.51777  -0.51415
 Alpha  occ. eigenvalues --   -0.51175  -0.50891  -0.50713  -0.50462  -0.50412
 Alpha  occ. eigenvalues --   -0.50272  -0.49866  -0.49755  -0.49707  -0.49604
 Alpha  occ. eigenvalues --   -0.49456  -0.49319  -0.49173  -0.48831  -0.48420
 Alpha  occ. eigenvalues --   -0.48363  -0.48195  -0.48053  -0.47959  -0.47512
 Alpha  occ. eigenvalues --   -0.47259  -0.47098  -0.46877  -0.46782  -0.46397
 Alpha  occ. eigenvalues --   -0.46327  -0.46281  -0.45993  -0.45875  -0.45646
 Alpha  occ. eigenvalues --   -0.45537  -0.45297  -0.45033  -0.44834  -0.44689
 Alpha  occ. eigenvalues --   -0.44628  -0.44377  -0.44303  -0.44236  -0.44068
 Alpha  occ. eigenvalues --   -0.43882  -0.43803  -0.43652  -0.43429  -0.43377
 Alpha  occ. eigenvalues --   -0.43090  -0.42765  -0.42485  -0.42440  -0.42334
 Alpha  occ. eigenvalues --   -0.42168  -0.42019  -0.41654  -0.41390  -0.41258
 Alpha  occ. eigenvalues --   -0.41059  -0.40723  -0.40629  -0.40396  -0.40228
 Alpha  occ. eigenvalues --   -0.40067  -0.39954  -0.39327  -0.39199  -0.38909
 Alpha  occ. eigenvalues --   -0.38675  -0.38164  -0.38027  -0.37930  -0.37544
 Alpha  occ. eigenvalues --   -0.37004  -0.36525  -0.36293  -0.35935  -0.35370
 Alpha  occ. eigenvalues --   -0.34759  -0.34478  -0.33987  -0.33919  -0.33811
 Alpha  occ. eigenvalues --   -0.33234  -0.33086  -0.32770  -0.32624  -0.32492
 Alpha  occ. eigenvalues --   -0.32340  -0.32319  -0.32207  -0.31482  -0.31062
 Alpha  occ. eigenvalues --   -0.30731  -0.30594  -0.30115  -0.29902  -0.29440
 Alpha  occ. eigenvalues --   -0.29065  -0.28834
 Alpha virt. eigenvalues --   -0.09444  -0.09059  -0.07756  -0.07273  -0.06529
 Alpha virt. eigenvalues --   -0.06254  -0.05517  -0.05472  -0.05215  -0.05138
 Alpha virt. eigenvalues --   -0.05033  -0.04646  -0.04462  -0.03378  -0.02762

 Mulliken charges:
               1
     1  N   -0.832611
     2  H    0.382352
     3  H    0.460795
     4  H    0.445863
     5  C   -0.079043
     6  H    0.200131
     7  C    0.632162
     8  C   -0.127213
     9  H    0.176663
    10  O   -0.530799
    11  C   -0.467792
    12  H    0.159519
    13  H    0.181883
    14  H    0.169339
    15  C   -0.484689
    16  H    0.148677
    17  H    0.163439
    18  H    0.188061
    19  N   -0.629050
    20  H    0.376731
    21  C   -0.078898
    22  H    0.222448
    23  C    0.598411
    24  C   -0.067048
    25  H    0.133669
    26  O   -0.556683
    27  C   -0.258229
    28  H    0.138339
    29  H    0.138667
    30  C   -0.481436
    31  H    0.177319
    32  H    0.154252
    33  H    0.157449
    34  C   -0.467452
    35  H    0.138532
    36  H    0.152222
    37  H    0.179272
    38  N   -0.610439
    39  H    0.384138
    40  C   -0.067754
    41  H    0.188879
    42  C    0.623145
    43  C   -0.364589
    44  H    0.185765
    45  H    0.181324
    46  O   -0.550796
    47  C    0.101732
    48  C   -0.190633
    49  H    0.168523
    50  C   -0.194322
    51  H    0.143960
    52  C   -0.126444
    53  H    0.147930
    54  C   -0.128114
    55  H    0.140921
    56  C   -0.134779
    57  H    0.142692
    58  N   -0.616496
    59  H    0.367245
    60  C   -0.063378
    61  H    0.178777
    62  C    0.630162
    63  C   -0.277503
    64  H    0.157451
    65  H    0.137176
    66  O   -0.537493
    67  C   -0.083205
    68  H    0.156485
    69  C   -0.453313
    70  H    0.140194
    71  H    0.143883
    72  H    0.150765
    73  C   -0.445262
    74  H    0.138631
    75  H    0.147559
    76  H    0.145783
    77  N   -0.628722
    78  H    0.399609
    79  C   -0.046360
    80  H    0.168851
    81  C    0.621545
    82  C   -0.302132
    83  H    0.167659
    84  H    0.206790
    85  O   -0.530496
    86  C   -0.402008
    87  H    0.200045
    88  H    0.184371
    89  C    0.599249
    90  O   -0.460877
    91  O   -0.564736
    92  N   -0.613874
    93  H    0.336661
    94  C   -0.041606
    95  H    0.203611
    96  C    0.655885
    97  C   -0.400631
    98  H    0.184589
    99  H    0.176108
   100  O   -0.564431
   101  C    0.629140
   102  N   -0.752880
   103  H    0.346122
   104  H    0.341561
   105  O   -0.510539
   106  N   -0.621642
   107  H    0.380278
   108  C   -0.016013
   109  H    0.170764
   110  C    0.618797
   111  C   -0.380446
   112  H    0.174824
   113  H    0.170273
   114  O   -0.561635
   115  C    0.149091
   116  C   -0.193219
   117  H    0.172906
   118  C   -0.210285
   119  H    0.147814
   120  C   -0.177161
   121  H    0.114486
   122  C   -0.135928
   123  H    0.144776
   124  O   -0.722223
   125  H    0.434681
   126  C    0.337774
   127  N   -0.598871
   128  H    0.354826
   129  C   -0.054184
   130  H    0.202041
   131  C    0.589881
   132  C   -0.275580
   133  H    0.174160
   134  H    0.183863
   135  O   -0.670205
   136  C   -0.289380
   137  H    0.158183
   138  H    0.158154
   139  C   -0.187297
   140  H    0.214116
   141  H    0.181357
   142  N   -0.596451
   143  H    0.350509
   144  N   -0.785056
   145  H    0.353421
   146  H    0.440240
   147  N   -0.768892
   148  H    0.371909
   149  H    0.369506
   150  C    0.807472
   151  O   -0.574113
   152  H    0.416123
 Sum of Mulliken charges =   1.00000

 Dipole moment (field-independent basis, Debye):
    X=             24.5500    Y=            -19.2237    Z=              7.2880  Tot=             32.0214
 Quadrupole moment (field-independent basis, Debye-Ang):
   XX=           -217.6947   YY=           -255.5234   ZZ=           -347.2438
   XY=           -144.8381   XZ=             -5.4987   YZ=            -67.8242

 Normal termination of Gaussian 16 at Sat Aug 13 18:47:56 2022.
