 Gaussian 16, Revision C.01,
 Gaussian 16:  ES64L-G16RevC.01  3-Jul-2019

 -------------------------------------------------------------------
 # B3LYP/6-31G* guess=read geom=check nosymm integral(ultrafinegrid)
 -------------------------------------------------------------------

 -----------------------------------------------------
 Candidate Structure: Conf:34 Charge calc in gas phase
 -----------------------------------------------------
 Structure from the checkpoint file:  "conf-34.chk"
 Charge =  1 Multiplicity = 1

                          Input orientation:
 ---------------------------------------------------------------------
 Center     Atomic      Atomic             Coordinates (Angstroms)
 Number     Number       Type             X           Y           Z
 ---------------------------------------------------------------------
      1          7           0        0.154023   -2.050032    2.793847
      2          1           0        0.666983   -1.243728    2.340795
      3          1           0        0.427983   -2.177821    3.772673
      4          1           0        0.409318   -2.890457    2.259761
      5          6           0       -1.343347   -1.811455    2.615684
      6          1           0       -1.590075   -0.966602    3.265700
      7          6           0       -1.374863   -1.444649    1.110849
      8          6           0       -2.128034   -3.063647    2.983170
      9          1           0       -1.882438   -3.376220    4.004568
     10          1           0       -1.828516   -3.877391    2.313644
     11          8           0       -1.073507   -2.320319    0.313833
     12          6           0       -3.641046   -2.850351    2.875734
     13          1           0       -3.948978   -2.642766    1.844319
     14          1           0       -3.975346   -1.994622    3.477495
     15          6           0       -4.389091   -4.080556    3.364056
     16          8           0       -3.866520   -5.043977    3.876373
     17          8           0       -5.713179   -3.954415    3.161075
     18          7           0       -1.595010   -0.129632    0.824647
     19          1           0       -1.775395    0.456694    1.631363
     20          6           0       -0.832705    0.565877   -0.220741
     21          1           0       -1.231627    1.584988   -0.241870
     22          6           0        0.640827    0.666554    0.272604
     23          6           0       -1.020654   -0.048259   -1.632644
     24          1           0       -0.591314   -1.050932   -1.650134
     25          1           0       -2.103035   -0.170544   -1.765103
     26          8           0        1.088432   -0.057528    1.180722
     27          6           0       -0.440711    0.791538   -2.752809
     28          6           0       -0.884237    2.102345   -3.003078
     29          1           0       -1.672094    2.537659   -2.390440
     30          6           0        0.538451    0.260353   -3.600085
     31          1           0        0.894078   -0.754377   -3.439515
     32          6           0       -0.360284    2.860416   -4.046129
     33          1           0       -0.709895    3.868859   -4.241983
     34          6           0        1.063072    1.000432   -4.659172
     35          1           0        1.816988    0.560979   -5.308876
     36          8           0        1.096126    3.094358   -5.886815
     37          1           0        1.703932    2.583549   -6.444713
     38          6           0        0.617730    2.307614   -4.884099
     39          7           0        1.393707    1.617339   -0.296357
     40          1           0        0.987805    2.185108   -1.031119
     41          6           0        2.695506    1.999062    0.240868
     42          1           0        3.344106    1.117295    0.272195
     43          6           0        2.518309    2.498025    1.682502
     44          6           0        3.353799    3.096073   -0.620421
     45          1           0        2.695592    3.976386   -0.634660
     46          1           0        4.268715    3.403537   -0.103335
     47          8           0        1.469436    2.808848    2.198111
     48          6           0        3.694686    2.669167   -2.054884
     49          1           0        2.782629    2.388179   -2.598198
     50          1           0        4.323654    1.768044   -2.024906
     51          6           0        4.418731    3.786017   -2.819014
     52          1           0        3.831358    4.712234   -2.789211
     53          1           0        5.371202    4.008367   -2.315373
     54          6           0        4.694431    3.444781   -4.286262
     55          1           0        5.222184    2.472989   -4.342007
     56          1           0        3.735627    3.315226   -4.805515
     57          7           0        5.399601    4.552638   -4.933610
     58          1           0        5.498857    4.374065   -5.931114
     59          1           0        6.346976    4.624034   -4.564479
     60          8           0        3.712903    2.574583    2.301536
     61          1           0        3.556315    2.953260    3.187664
     62          1           0       -6.137684   -4.765589    3.501510
 ---------------------------------------------------------------------

 SCF Done:  E(RB3LYP) =  -1526.20472535     A.U. after    2 cycles

 Alpha  occ. eigenvalues --  -19.29701 -19.29080 -19.26549 -19.26299 -19.25864
 Alpha  occ. eigenvalues --  -19.24094 -19.23721 -14.59628 -14.50038 -14.48569
 Alpha  occ. eigenvalues --  -14.37336 -10.43583 -10.42195 -10.42187 -10.42164
 Alpha  occ. eigenvalues --  -10.40585 -10.36776 -10.34753 -10.34121 -10.33137
 Alpha  occ. eigenvalues --  -10.32149 -10.30059 -10.29064 -10.28925 -10.28724
 Alpha  occ. eigenvalues --  -10.28557 -10.28130 -10.27786 -10.27540 -10.27142
 Alpha  occ. eigenvalues --  -10.25408  -1.20697  -1.20158  -1.18960  -1.16796
 Alpha  occ. eigenvalues --   -1.14674  -1.13835  -1.11742  -1.11348  -1.06652
 Alpha  occ. eigenvalues --   -1.05126  -0.95104  -0.94356  -0.94277  -0.91223
 Alpha  occ. eigenvalues --   -0.89181  -0.86557  -0.84926  -0.84104  -0.83085
 Alpha  occ. eigenvalues --   -0.78822  -0.77813  -0.76809  -0.74338  -0.74050
 Alpha  occ. eigenvalues --   -0.72332  -0.71614  -0.70791  -0.69950  -0.69850
 Alpha  occ. eigenvalues --   -0.68499  -0.67903  -0.66282  -0.66058  -0.63761
 Alpha  occ. eigenvalues --   -0.63658  -0.63329  -0.61188  -0.61055  -0.59928
 Alpha  occ. eigenvalues --   -0.58695  -0.58350  -0.57613  -0.57339  -0.57265
 Alpha  occ. eigenvalues --   -0.56398  -0.55797  -0.55539  -0.55096  -0.54766
 Alpha  occ. eigenvalues --   -0.54283  -0.54081  -0.53713  -0.52743  -0.51858
 Alpha  occ. eigenvalues --   -0.51786  -0.51406  -0.50599  -0.50300  -0.50163
 Alpha  occ. eigenvalues --   -0.49684  -0.48932  -0.48848  -0.48567  -0.48184
 Alpha  occ. eigenvalues --   -0.48044  -0.47617  -0.46599  -0.45919  -0.44982
 Alpha  occ. eigenvalues --   -0.43863  -0.42831  -0.42419  -0.42092  -0.41717
 Alpha  occ. eigenvalues --   -0.41375  -0.41186  -0.41052  -0.40506  -0.39837
 Alpha  occ. eigenvalues --   -0.39126  -0.38482  -0.37458  -0.37124  -0.34609
 Alpha  occ. eigenvalues --   -0.31043  -0.29555
 Alpha virt. eigenvalues --   -0.14398  -0.11146  -0.09916  -0.09565  -0.09013
 Alpha virt. eigenvalues --   -0.08748  -0.08383  -0.06536  -0.04198  -0.02490
 Alpha virt. eigenvalues --   -0.02069  -0.01931  -0.01409  -0.00442  -0.00148

 Mulliken charges:
               1
     1  N   -0.760734
     2  H    0.457517
     3  H    0.409214
     4  H    0.417421
     5  C   -0.117419
     6  H    0.193149
     7  C    0.610336
     8  C   -0.269413
     9  H    0.183111
    10  H    0.200047
    11  O   -0.486316
    12  C   -0.378666
    13  H    0.207318
    14  H    0.190624
    15  C    0.596698
    16  O   -0.445869
    17  O   -0.557212
    18  N   -0.570283
    19  H    0.348172
    20  C   -0.108232
    21  H    0.189253
    22  C    0.677554
    23  C   -0.350245
    24  H    0.198298
    25  H    0.185616
    26  O   -0.593239
    27  C    0.143877
    28  C   -0.222884
    29  H    0.139109
    30  C   -0.190169
    31  H    0.144682
    32  C   -0.154920
    33  H    0.166670
    34  C   -0.190639
    35  H    0.142782
    36  O   -0.627891
    37  H    0.419718
    38  C    0.361079
    39  N   -0.595437
    40  H    0.365684
    41  C   -0.020056
    42  H    0.194000
    43  C    0.594869
    44  C   -0.314384
    45  H    0.158603
    46  H    0.185830
    47  O   -0.471075
    48  C   -0.278332
    49  H    0.146663
    50  H    0.141711
    51  C   -0.247581
    52  H    0.157902
    53  H    0.136404
    54  C   -0.140586
    55  H    0.111869
    56  H    0.131647
    57  N   -0.712065
    58  H    0.302215
    59  H    0.299378
    60  O   -0.559990
    61  H    0.424946
    62  H    0.429671
 Sum of Mulliken charges =   1.00000

 Dipole moment (field-independent basis, Debye):
    X=              1.6767    Y=             -2.0159    Z=              5.4713  Tot=              6.0671
 Quadrupole moment (field-independent basis, Debye-Ang):
   XX=           -128.2458   YY=           -169.2912   ZZ=           -114.1266
   XY=             18.9047   XZ=            -25.8190   YZ=            -19.2070

 Normal termination of Gaussian 16 at Tue May 24 03:11:47 2022.
