 Gaussian 16, Revision C.01,
 Gaussian 16:  ES64L-G16RevC.01  3-Jul-2019

 -------------------------------------------------------------------
 # B3LYP/6-31G* guess=read geom=check nosymm integral(ultrafinegrid)
 -------------------------------------------------------------------

 ------------------------------------------------------
 Candidate Structure: Conf:446 Charge calc in gas phase
 ------------------------------------------------------
 Structure from the checkpoint file:  "conf-446.chk"
 Charge =  1 Multiplicity = 1

                          Input orientation:
 ---------------------------------------------------------------------
 Center     Atomic      Atomic             Coordinates (Angstroms)
 Number     Number       Type             X           Y           Z
 ---------------------------------------------------------------------
      1          7           0        0.385421   -2.778103    2.889839
      2          1           0        0.972404   -1.929946    2.727302
      3          1           0        0.657202   -3.265815    3.748347
      4          1           0        0.517963   -3.383045    2.065883
      5          6           0       -1.056889   -2.300308    2.878187
      6          1           0       -1.137238   -1.549020    3.660041
      7          6           0       -1.119819   -1.671555    1.465265
      8          6           0       -2.027815   -3.459937    3.109855
      9          1           0       -1.878341   -3.861946    4.119961
     10          1           0       -1.804413   -4.263316    2.397850
     11          8           0       -0.683215   -2.345790    0.537387
     12          6           0       -3.508587   -3.071143    2.919769
     13          1           0       -4.143786   -3.928791    3.151501
     14          1           0       -3.690890   -2.818135    1.866541
     15          6           0       -3.953823   -1.871594    3.736256
     16          8           0       -3.311907   -0.841488    3.866234
     17          8           0       -5.161465   -2.050757    4.279909
     18          7           0       -1.549880   -0.384141    1.391470
     19          1           0       -1.907892   -0.018633    2.268900
     20          6           0       -0.792692    0.571894    0.576266
     21          1           0       -1.224556    1.554379    0.793007
     22          6           0        0.670846    0.583265    1.121432
     23          6           0       -0.934022    0.307261   -0.946270
     24          1           0       -0.469832   -0.651870   -1.183728
     25          1           0       -2.009784    0.184430   -1.124943
     26          8           0        1.068990   -0.264358    1.940306
     27          6           0       -0.375661    1.396434   -1.839946
     28          6           0       -0.834414    2.723938   -1.768520
     29          1           0       -1.611658    2.994480   -1.055916
     30          6           0        0.591496    1.092110   -2.805530
     31          1           0        0.958889    0.072718   -2.893686
     32          6           0       -0.336984    3.712199   -2.613118
     33          1           0       -0.697731    4.734211   -2.558720
     34          6           0        1.089210    2.066522   -3.669822
     35          1           0        1.835527    1.801857   -4.415800
     36          8           0        1.085070    4.391052   -4.369436
     37          1           0        1.702654    4.033709   -5.027158
     38          6           0        0.629717    3.384518   -3.572978
     39          7           0        1.464475    1.584235    0.718195
     40          1           0        1.113161    2.255086    0.044688
     41          6           0        2.821594    1.744398    1.245668
     42          1           0        3.414100    0.860501    0.990343
     43          6           0        2.835281    1.823135    2.774514
     44          6           0        3.494645    3.009009    0.675724
     45          1           0        2.888018    3.884068    0.944874
     46          1           0        4.451451    3.120788    1.199037
     47          8           0        3.712211    1.359102    3.462321
     48          6           0        3.749397    2.979176   -0.838033
     49          1           0        2.801273    2.908443   -1.388079
     50          1           0        4.319439    2.073937   -1.090859
     51          6           0        4.520855    4.220007   -1.307778
     52          1           0        3.979861    5.125818   -0.995224
     53          1           0        5.502149    4.261170   -0.819526
     54          6           0        4.739134    4.268619   -2.823087
     55          1           0        5.264830    3.358485   -3.140718
     56          1           0        3.753507    4.260744   -3.328124
     57          7           0        5.583597    5.411818   -3.173194
     58          1           0        5.074268    6.281400   -3.021186
     59          1           0        5.818570    5.389296   -4.163534
     60          8           0        1.803953    2.550808    3.265010
     61          1           0        1.949600    2.613538    4.228395
     62          1           0       -5.406498   -1.228424    4.748772
 ---------------------------------------------------------------------

 SCF Done:  E(RB3LYP) =  -1526.20925473     A.U. after    2 cycles

 Alpha  occ. eigenvalues --  -19.31874 -19.28770 -19.26698 -19.26516 -19.25872
 Alpha  occ. eigenvalues --  -19.25112 -19.22815 -14.59352 -14.48460 -14.48084
 Alpha  occ. eigenvalues --  -14.37137 -10.45015 -10.42922 -10.41495 -10.41104
 Alpha  occ. eigenvalues --  -10.39568 -10.36210 -10.34606 -10.34037 -10.33936
 Alpha  occ. eigenvalues --  -10.33364 -10.29676 -10.28800 -10.28623 -10.28498
 Alpha  occ. eigenvalues --  -10.28440 -10.28029 -10.27710 -10.27339 -10.26814
 Alpha  occ. eigenvalues --  -10.25097  -1.23063  -1.19625  -1.18571  -1.16058
 Alpha  occ. eigenvalues --   -1.14625  -1.13975  -1.13390  -1.10580  -1.05606
 Alpha  occ. eigenvalues --   -1.04444  -0.95046  -0.94648  -0.94064  -0.90643
 Alpha  occ. eigenvalues --   -0.88744  -0.86832  -0.84468  -0.84000  -0.82793
 Alpha  occ. eigenvalues --   -0.79516  -0.77373  -0.76322  -0.74147  -0.73060
 Alpha  occ. eigenvalues --   -0.72814  -0.71352  -0.70566  -0.70400  -0.69324
 Alpha  occ. eigenvalues --   -0.69052  -0.67744  -0.65827  -0.65694  -0.64134
 Alpha  occ. eigenvalues --   -0.63519  -0.63180  -0.61636  -0.60863  -0.60205
 Alpha  occ. eigenvalues --   -0.59074  -0.58273  -0.58107  -0.57249  -0.56427
 Alpha  occ. eigenvalues --   -0.56127  -0.56011  -0.55584  -0.55333  -0.54528
 Alpha  occ. eigenvalues --   -0.54099  -0.53557  -0.52970  -0.52432  -0.52247
 Alpha  occ. eigenvalues --   -0.51826  -0.51541  -0.51261  -0.50658  -0.50122
 Alpha  occ. eigenvalues --   -0.49732  -0.49525  -0.48980  -0.48640  -0.48405
 Alpha  occ. eigenvalues --   -0.48243  -0.46996  -0.46325  -0.45624  -0.44856
 Alpha  occ. eigenvalues --   -0.44118  -0.43438  -0.42739  -0.42173  -0.41650
 Alpha  occ. eigenvalues --   -0.41092  -0.40484  -0.40329  -0.40243  -0.39948
 Alpha  occ. eigenvalues --   -0.39491  -0.38817  -0.37749  -0.35725  -0.34507
 Alpha  occ. eigenvalues --   -0.30937  -0.29333
 Alpha virt. eigenvalues --   -0.13620  -0.12079  -0.10672  -0.09736  -0.08976
 Alpha virt. eigenvalues --   -0.08345  -0.07748  -0.03928  -0.03081  -0.02848
 Alpha virt. eigenvalues --   -0.02471  -0.01987  -0.01388  -0.00236   0.00300

 Mulliken charges:
               1
     1  N   -0.752352
     2  H    0.456176
     3  H    0.406417
     4  H    0.415192
     5  C   -0.103219
     6  H    0.226073
     7  C    0.608572
     8  C   -0.288103
     9  H    0.178745
    10  H    0.188449
    11  O   -0.509300
    12  C   -0.377615
    13  H    0.214466
    14  H    0.216955
    15  C    0.604148
    16  O   -0.485748
    17  O   -0.532438
    18  N   -0.578008
    19  H    0.371958
    20  C   -0.112512
    21  H    0.188170
    22  C    0.672490
    23  C   -0.347058
    24  H    0.195114
    25  H    0.182783
    26  O   -0.593639
    27  C    0.136910
    28  C   -0.217413
    29  H    0.138035
    30  C   -0.190667
    31  H    0.145212
    32  C   -0.155204
    33  H    0.163774
    34  C   -0.189994
    35  H    0.143031
    36  O   -0.631205
    37  H    0.419762
    38  C    0.361575
    39  N   -0.612511
    40  H    0.366705
    41  C    0.004797
    42  H    0.188602
    43  C    0.585697
    44  C   -0.321523
    45  H    0.162251
    46  H    0.184519
    47  O   -0.453780
    48  C   -0.281428
    49  H    0.142995
    50  H    0.144152
    51  C   -0.248232
    52  H    0.132963
    53  H    0.163144
    54  C   -0.140075
    55  H    0.139933
    56  H    0.101760
    57  N   -0.712207
    58  H    0.299363
    59  H    0.302746
    60  O   -0.572198
    61  H    0.420212
    62  H    0.432583
 Sum of Mulliken charges =   1.00000

 Dipole moment (field-independent basis, Debye):
    X=             -3.1217    Y=             -4.0853    Z=              8.1006  Tot=              9.5945
 Quadrupole moment (field-independent basis, Debye-Ang):
   XX=           -160.3240   YY=           -129.0555   ZZ=           -112.0518
   XY=             11.7171   XZ=            -36.3209   YZ=            -42.2420

 Normal termination of Gaussian 16 at Tue May 24 03:11:50 2022.
