 Gaussian 16, Revision C.01,
 Gaussian 16:  ES64L-G16RevC.01  3-Jul-2019

 -------------------------------------------------------------------
 # B3LYP/6-31G* guess=read geom=check nosymm integral(ultrafinegrid)
 -------------------------------------------------------------------

 ------------------------------------------------------
 Candidate Structure: Conf:156 Charge calc in gas phase
 ------------------------------------------------------
 Structure from the checkpoint file:  "conf-156.chk"
 Charge =  1 Multiplicity = 1

                          Input orientation:
 ---------------------------------------------------------------------
 Center     Atomic      Atomic             Coordinates (Angstroms)
 Number     Number       Type             X           Y           Z
 ---------------------------------------------------------------------
      1          7           0       -2.228599   -0.031864    4.456817
      2          1           0       -3.134962   -0.474444    4.632254
      3          1           0       -1.821799    0.247497    5.353471
      4          1           0       -2.372318    0.813881    3.818098
      5          6           0       -1.304018   -0.887607    3.611591
      6          1           0       -1.743651   -1.885901    3.546031
      7          6           0       -1.369566   -0.174663    2.227168
      8          6           0        0.107777   -0.987142    4.220706
      9          1           0        0.705158   -1.595713    3.531517
     10          1           0        0.045216   -1.554593    5.156213
     11          8           0       -1.900600    0.943528    2.190936
     12          6           0        0.828213    0.358511    4.455770
     13          1           0        0.267016    0.992286    5.157528
     14          1           0        0.976291    0.912257    3.526463
     15          6           0        2.199940    0.147655    5.078001
     16          8           0        3.261412    0.480635    4.594474
     17          8           0        2.108655   -0.467557    6.272943
     18          7           0       -0.860186   -0.849586    1.200193
     19          1           0       -0.296096   -1.678466    1.381233
     20          6           0       -0.534059   -0.256674   -0.105712
     21          1           0       -0.861024    0.784859   -0.079055
     22          6           0        1.002977   -0.374950   -0.168757
     23          6           0       -1.227181   -1.014321   -1.263904
     24          1           0       -0.896065   -0.547532   -2.199865
     25          1           0       -0.843877   -2.041564   -1.276107
     26          8           0        1.538843   -1.363727    0.330351
     27          6           0       -2.736225   -1.008921   -1.165063
     28          6           0       -3.427432   -2.097925   -0.614400
     29          1           0       -2.872797   -2.977145   -0.293270
     30          6           0       -3.485509    0.090536   -1.601134
     31          1           0       -2.982658    0.945601   -2.048226
     32          6           0       -4.813619   -2.093577   -0.493160
     33          1           0       -5.348205   -2.945571   -0.085045
     34          6           0       -4.874238    0.112495   -1.487103
     35          1           0       -5.436454    0.974548   -1.840338
     36          8           0       -6.898864   -1.029267   -0.783157
     37          1           0       -7.297134   -0.237833   -1.178619
     38          6           0       -5.544891   -0.982195   -0.929072
     39          7           0        1.697963    0.646648   -0.735001
     40          1           0        1.174840    1.499944   -0.896983
     41          6           0        3.070735    0.857641   -0.264658
     42          1           0        3.625342   -0.073172   -0.400851
     43          6           0        2.984122    1.145179    1.243234
     44          6           0        3.768741    1.997524   -1.025039
     45          1           0        3.189628    2.924355   -0.893858
     46          1           0        4.736489    2.169979   -0.539087
     47          8           0        1.958038    1.532981    1.778529
     48          6           0        3.980202    1.696772   -2.514174
     49          1           0        3.010621    1.517525   -2.998996
     50          1           0        4.556899    0.772165   -2.629381
     51          6           0        4.712608    2.826946   -3.247837
     52          1           0        4.117995    3.750652   -3.213431
     53          1           0        5.655894    3.051635   -2.727130
     54          6           0        5.020657    2.492810   -4.713086
     55          1           0        4.084426    2.247883   -5.231491
     56          1           0        5.424617    3.394910   -5.204942
     57          7           0        5.898059    1.319600   -4.807166
     58          1           0        6.840769    1.572805   -4.512328
     59          1           0        5.979150    1.022841   -5.777876
     60          8           0        4.123439    0.920824    1.890643
     61          1           0        3.941385    1.019211    2.854597
     62          1           0        3.015649   -0.573917    6.621813
 ---------------------------------------------------------------------

 SCF Done:  E(RB3LYP) =  -1526.20733792     A.U. after    2 cycles

 Alpha  occ. eigenvalues --  -19.31749 -19.27806 -19.27761 -19.26675 -19.25591
 Alpha  occ. eigenvalues --  -19.23026 -19.22797 -14.60940 -14.50266 -14.46248
 Alpha  occ. eigenvalues --  -14.36724 -10.44880 -10.44453 -10.42036 -10.40969
 Alpha  occ. eigenvalues --  -10.39600 -10.35637 -10.35114 -10.33256 -10.33080
 Alpha  occ. eigenvalues --  -10.32653 -10.29492 -10.27745 -10.27598 -10.27544
 Alpha  occ. eigenvalues --  -10.27427 -10.27125 -10.26651 -10.26457 -10.24837
 Alpha  occ. eigenvalues --  -10.24423  -1.22838  -1.20200  -1.19355  -1.15046
 Alpha  occ. eigenvalues --   -1.14518  -1.13820  -1.13725  -1.10335  -1.06981
 Alpha  occ. eigenvalues --   -1.02893  -0.95840  -0.93868  -0.93487  -0.90377
 Alpha  occ. eigenvalues --   -0.88308  -0.87344  -0.83367  -0.83024  -0.82050
 Alpha  occ. eigenvalues --   -0.79777  -0.76460  -0.75837  -0.75191  -0.73987
 Alpha  occ. eigenvalues --   -0.73108  -0.72330  -0.70633  -0.70411  -0.69073
 Alpha  occ. eigenvalues --   -0.67932  -0.67595  -0.65955  -0.64325  -0.63750
 Alpha  occ. eigenvalues --   -0.62534  -0.62233  -0.61716  -0.60695  -0.59708
 Alpha  occ. eigenvalues --   -0.59422  -0.58787  -0.58010  -0.57832  -0.56777
 Alpha  occ. eigenvalues --   -0.55936  -0.55727  -0.55305  -0.54846  -0.54377
 Alpha  occ. eigenvalues --   -0.53763  -0.53221  -0.52401  -0.51996  -0.51619
 Alpha  occ. eigenvalues --   -0.51139  -0.50938  -0.50554  -0.50443  -0.50241
 Alpha  occ. eigenvalues --   -0.49998  -0.48832  -0.48316  -0.47543  -0.47499
 Alpha  occ. eigenvalues --   -0.46992  -0.46783  -0.45499  -0.44098  -0.44058
 Alpha  occ. eigenvalues --   -0.43843  -0.42858  -0.42267  -0.41857  -0.41090
 Alpha  occ. eigenvalues --   -0.40616  -0.40436  -0.40224  -0.40095  -0.39696
 Alpha  occ. eigenvalues --   -0.39407  -0.37362  -0.36583  -0.35525  -0.33453
 Alpha  occ. eigenvalues --   -0.29958  -0.28947
 Alpha virt. eigenvalues --   -0.13287  -0.12539  -0.11460  -0.09887  -0.08508
 Alpha virt. eigenvalues --   -0.07931  -0.07520  -0.06966  -0.05306  -0.03082
 Alpha virt. eigenvalues --   -0.02457  -0.02011  -0.01376  -0.00406   0.00397

 Mulliken charges:
               1
     1  N   -0.760216
     2  H    0.420879
     3  H    0.413761
     4  H    0.438293
     5  C   -0.120602
     6  H    0.224532
     7  C    0.667710
     8  C   -0.314535
     9  H    0.213328
    10  H    0.200076
    11  O   -0.531178
    12  C   -0.401374
    13  H    0.160480
    14  H    0.266390
    15  C    0.601912
    16  O   -0.458344
    17  O   -0.551789
    18  N   -0.576166
    19  H    0.364789
    20  C   -0.088245
    21  H    0.194346
    22  C    0.643320
    23  C   -0.374181
    24  H    0.177068
    25  H    0.174290
    26  O   -0.535914
    27  C    0.180354
    28  C   -0.198863
    29  H    0.124153
    30  C   -0.185422
    31  H    0.132284
    32  C   -0.164029
    33  H    0.151020
    34  C   -0.189999
    35  H    0.137324
    36  O   -0.633094
    37  H    0.416485
    38  C    0.352822
    39  N   -0.575465
    40  H    0.338112
    41  C   -0.047778
    42  H    0.211437
    43  C    0.591203
    44  C   -0.300767
    45  H    0.140757
    46  H    0.176582
    47  O   -0.503332
    48  C   -0.249901
    49  H    0.131836
    50  H    0.176868
    51  C   -0.257446
    52  H    0.131710
    53  H    0.133673
    54  C   -0.141183
    55  H    0.139173
    56  H    0.127567
    57  N   -0.716935
    58  H    0.298303
    59  H    0.306331
    60  O   -0.571481
    61  H    0.453182
    62  H    0.435891
 Sum of Mulliken charges =   1.00000

 Dipole moment (field-independent basis, Debye):
    X=             -4.3655    Y=              0.9951    Z=             13.8126  Tot=             14.5202
 Quadrupole moment (field-independent basis, Debye-Ang):
   XX=           -125.2406   YY=           -171.4186   ZZ=            -65.7885
   XY=              7.8337   XZ=            -28.7478   YZ=            -22.3578

 Normal termination of Gaussian 16 at Tue May 24 03:11:45 2022.
