 Gaussian 16, Revision C.01,
 Gaussian 16:  ES64L-G16RevC.01  3-Jul-2019

 -------------------------------------------------------------------
 # B3LYP/6-31G* guess=read geom=check nosymm integral(ultrafinegrid)
 -------------------------------------------------------------------

 ------------------------------------------------------
 Candidate Structure: Conf:883 Charge calc in gas phase
 ------------------------------------------------------
 Structure from the checkpoint file:  "conf-883.chk"
 Charge =  1 Multiplicity = 1

                          Input orientation:
 ---------------------------------------------------------------------
 Center     Atomic      Atomic             Coordinates (Angstroms)
 Number     Number       Type             X           Y           Z
 ---------------------------------------------------------------------
      1          7           0        0.654447   -2.249837    3.307961
      2          1           0        1.289777   -1.431310    3.412081
      3          1           0        0.545453   -2.734567    4.203448
      4          1           0        1.097233   -2.862569    2.593880
      5          6           0       -0.663197   -1.818418    2.687922
      6          1           0       -0.951594   -0.889180    3.186024
      7          6           0       -0.231180   -1.569901    1.223762
      8          6           0       -1.758570   -2.875683    2.869577
      9          1           0       -2.675725   -2.477884    2.422187
     10          1           0       -1.982275   -2.973823    3.939750
     11          8           0        0.670098   -2.280468    0.774991
     12          6           0       -1.475844   -4.254308    2.258378
     13          1           0       -0.705852   -4.813976    2.802662
     14          1           0       -1.118797   -4.174093    1.224476
     15          6           0       -2.748546   -5.090109    2.243088
     16          8           0       -3.860397   -4.646683    2.418199
     17          8           0       -2.474701   -6.381127    1.990556
     18          7           0       -0.789766   -0.541531    0.565753
     19          1           0       -1.534882   -0.020517    1.010065
     20          6           0       -0.140102    0.039617   -0.636811
     21          1           0       -0.602153    1.025345   -0.762334
     22          6           0        1.367122    0.236000   -0.294963
     23          6           0       -0.361968   -0.776945   -1.927931
     24          1           0        0.329060   -1.623264   -1.925179
     25          1           0       -1.380562   -1.179128   -1.878999
     26          8           0        2.270765   -0.227203   -0.960808
     27          6           0       -0.203453    0.056499   -3.185099
     28          6           0        1.019057    0.134150   -3.869995
     29          1           0        1.876406   -0.413177   -3.491839
     30          6           0       -1.290860    0.776939   -3.695344
     31          1           0       -2.259120    0.720196   -3.200487
     32          6           0        1.153313    0.904604   -5.019644
     33          1           0        2.096918    0.958511   -5.553006
     34          6           0       -1.171167    1.556325   -4.844990
     35          1           0       -2.032165    2.100058   -5.228708
     36          8           0        0.249180    2.358662   -6.642543
     37          1           0       -0.583070    2.786059   -6.899129
     38          6           0        0.056791    1.622208   -5.513154
     39          7           0        1.588746    0.908046    0.894156
     40          1           0        0.874400    1.553934    1.209055
     41          6           0        2.957832    1.159626    1.342984
     42          1           0        3.526026    0.269507    1.042900
     43          6           0        2.985757    1.221501    2.867818
     44          6           0        3.607887    2.400357    0.700749
     45          1           0        3.342861    2.368816   -0.361906
     46          1           0        3.157262    3.306825    1.124454
     47          8           0        3.530663    2.056820    3.537522
     48          6           0        5.136557    2.456067    0.834775
     49          1           0        5.566545    1.531413    0.421353
     50          1           0        5.411544    2.493454    1.894671
     51          6           0        5.743973    3.661804    0.105435
     52          1           0        5.472317    3.618121   -0.959324
     53          1           0        5.302391    4.588983    0.500854
     54          6           0        7.279797    3.747228    0.222226
     55          1           0        7.726052    2.831408   -0.188074
     56          1           0        7.633510    4.569052   -0.411765
     57          7           0        7.838842    3.951339    1.558358
     58          1           0        7.590867    3.184843    2.180431
     59          1           0        7.462587    4.801240    1.975830
     60          8           0        2.306745    0.181701    3.508065
     61          1           0        2.471127    0.368436    4.454802
     62          1           0       -3.325036   -6.861441    1.960056
 ---------------------------------------------------------------------

 SCF Done:  E(RB3LYP) =  -1526.18227682     A.U. after    1 cycles

 Alpha  occ. eigenvalues --  -19.34335 -19.30408 -19.28113 -19.27879 -19.25048
 Alpha  occ. eigenvalues --  -19.24428 -19.23998 -14.61328 -14.52008 -14.48512
 Alpha  occ. eigenvalues --  -14.36741 -10.45607 -10.45200 -10.43551 -10.42532
 Alpha  occ. eigenvalues --  -10.41037 -10.36551 -10.35935 -10.35327 -10.33652
 Alpha  occ. eigenvalues --  -10.31898 -10.28759 -10.28370 -10.26712 -10.26659
 Alpha  occ. eigenvalues --  -10.26377 -10.26306 -10.26050 -10.25865 -10.25208
 Alpha  occ. eigenvalues --  -10.24804  -1.24169  -1.21505  -1.20864  -1.16068
 Alpha  occ. eigenvalues --   -1.15516  -1.15056  -1.12709  -1.12576  -1.08175
 Alpha  occ. eigenvalues --   -1.04661  -0.96113  -0.93565  -0.92956  -0.90852
 Alpha  occ. eigenvalues --   -0.89352  -0.87552  -0.84637  -0.82146  -0.81760
 Alpha  occ. eigenvalues --   -0.80004  -0.78435  -0.76047  -0.75510  -0.74866
 Alpha  occ. eigenvalues --   -0.74230  -0.72554  -0.71040  -0.70463  -0.69412
 Alpha  occ. eigenvalues --   -0.69098  -0.68128  -0.66458  -0.65265  -0.64584
 Alpha  occ. eigenvalues --   -0.63669  -0.62994  -0.62163  -0.61496  -0.61282
 Alpha  occ. eigenvalues --   -0.60589  -0.59727  -0.58990  -0.58812  -0.57569
 Alpha  occ. eigenvalues --   -0.56690  -0.55923  -0.55509  -0.55289  -0.54847
 Alpha  occ. eigenvalues --   -0.54408  -0.54054  -0.53700  -0.52956  -0.52389
 Alpha  occ. eigenvalues --   -0.51949  -0.51285  -0.50772  -0.50228  -0.49673
 Alpha  occ. eigenvalues --   -0.49488  -0.49238  -0.48978  -0.48236  -0.47347
 Alpha  occ. eigenvalues --   -0.47289  -0.47131  -0.46360  -0.45719  -0.44895
 Alpha  occ. eigenvalues --   -0.43518  -0.43306  -0.42783  -0.42688  -0.42025
 Alpha  occ. eigenvalues --   -0.41472  -0.41364  -0.40583  -0.40176  -0.39879
 Alpha  occ. eigenvalues --   -0.39745  -0.38806  -0.37828  -0.36490  -0.32191
 Alpha  occ. eigenvalues --   -0.28848  -0.28690
 Alpha virt. eigenvalues --   -0.15217  -0.13273  -0.11926  -0.10679  -0.09924
 Alpha virt. eigenvalues --   -0.07708  -0.07323  -0.06535  -0.06205  -0.04494
 Alpha virt. eigenvalues --   -0.03472  -0.02974  -0.01860  -0.01003   0.00043

 Mulliken charges:
               1
     1  N   -0.770363
     2  H    0.444107
     3  H    0.407216
     4  H    0.429586
     5  C   -0.131610
     6  H    0.200936
     7  C    0.671688
     8  C   -0.288512
     9  H    0.218103
    10  H    0.185931
    11  O   -0.515220
    12  C   -0.388747
    13  H    0.176105
    14  H    0.224699
    15  C    0.596298
    16  O   -0.441659
    17  O   -0.553311
    18  N   -0.614350
    19  H    0.349560
    20  C   -0.065217
    21  H    0.182943
    22  C    0.629374
    23  C   -0.349189
    24  H    0.196855
    25  H    0.154438
    26  O   -0.470500
    27  C    0.137776
    28  C   -0.183790
    29  H    0.160374
    30  C   -0.193180
    31  H    0.118905
    32  C   -0.159063
    33  H    0.155719
    34  C   -0.189998
    35  H    0.131942
    36  O   -0.630584
    37  H    0.414497
    38  C    0.355673
    39  N   -0.627789
    40  H    0.325632
    41  C   -0.044530
    42  H    0.215424
    43  C    0.595092
    44  C   -0.262188
    45  H    0.171308
    46  H    0.149418
    47  O   -0.407097
    48  C   -0.276906
    49  H    0.141337
    50  H    0.148509
    51  C   -0.265257
    52  H    0.136767
    53  H    0.130921
    54  C   -0.147430
    55  H    0.144961
    56  H    0.155086
    57  N   -0.700866
    58  H    0.295020
    59  H    0.296802
    60  O   -0.630185
    61  H    0.425453
    62  H    0.433086
 Sum of Mulliken charges =   1.00000

 Dipole moment (field-independent basis, Debye):
    X=             -2.6728    Y=             -5.1473    Z=             12.5718  Tot=             13.8452
 Quadrupole moment (field-independent basis, Debye-Ang):
   XX=           -187.9229   YY=           -135.7009   ZZ=           -117.9380
   XY=             -1.2236   XZ=             16.1402   YZ=            -38.9365

 Normal termination of Gaussian 16 at Tue May 24 03:11:47 2022.
