 Gaussian 16, Revision C.01,
 Gaussian 16:  ES64L-G16RevC.01  3-Jul-2019

 -------------------------------------------------------------------
 # B3LYP/6-31G* guess=read geom=check nosymm integral(ultrafinegrid)
 -------------------------------------------------------------------

 ------------------------------------------------------
 Candidate Structure: Conf:549 Charge calc in gas phase
 ------------------------------------------------------
 Structure from the checkpoint file:  "conf-549.chk"
 Charge =  1 Multiplicity = 1

                          Input orientation:
 ---------------------------------------------------------------------
 Center     Atomic      Atomic             Coordinates (Angstroms)
 Number     Number       Type             X           Y           Z
 ---------------------------------------------------------------------
      1          7           0       -2.228538   -2.230652    4.025792
      2          1           0       -2.617310   -3.148868    3.797091
      3          1           0       -2.352755   -2.066875    5.028725
      4          1           0       -2.724616   -1.466420    3.463462
      5          6           0       -0.790233   -2.053793    3.567956
      6          1           0       -0.509034   -2.967316    3.037165
      7          6           0       -0.908909   -0.887312    2.542712
      8          6           0        0.169275   -1.813409    4.739542
      9          1           0        1.188865   -1.813499    4.340354
     10          1           0        0.135348   -2.673224    5.418166
     11          8           0       -2.035251   -0.390875    2.366853
     12          6           0       -0.063132   -0.513443    5.518695
     13          1           0       -1.072659   -0.437975    5.947414
     14          1           0        0.053911    0.368089    4.877658
     15          6           0        0.925303   -0.400807    6.671405
     16          8           0        1.757049   -1.235021    6.942386
     17          8           0        0.746933    0.747863    7.347646
     18          7           0        0.208087   -0.521900    1.936500
     19          1           0        1.108872   -0.975890    2.110849
     20          6           0        0.309759    0.482429    0.880029
     21          1           0       -0.113977    1.425824    1.245380
     22          6           0        1.833474    0.663960    0.687168
     23          6           0       -0.452402    0.072789   -0.417316
     24          1           0       -1.517215    0.238601   -0.230788
     25          1           0       -0.160803    0.778034   -1.205466
     26          8           0        2.620084   -0.105701    1.238914
     27          6           0       -0.234035   -1.357195   -0.862782
     28          6           0        0.980138   -1.784774   -1.425907
     29          1           0        1.793425   -1.077649   -1.564984
     30          6           0       -1.259253   -2.300598   -0.726751
     31          1           0       -2.218510   -1.991366   -0.316392
     32          6           0        1.167309   -3.100669   -1.830658
     33          1           0        2.102700   -3.425343   -2.274573
     34          6           0       -1.089540   -3.625689   -1.132675
     35          1           0       -1.908831   -4.336242   -1.038633
     36          8           0        0.370867   -5.301855   -2.109939
     37          1           0       -0.438054   -5.832829   -2.039833
     38          6           0        0.128541   -4.030815   -1.688718
     39          7           0        2.208567    1.680682   -0.120786
     40          1           0        1.505244    2.349953   -0.408406
     41          6           0        3.604972    2.075811   -0.285418
     42          1           0        4.206175    1.199340   -0.027434
     43          6           0        4.029819    3.182388    0.686478
     44          6           0        3.920532    2.504097   -1.733307
     45          1           0        3.274681    3.351000   -2.009213
     46          1           0        4.946734    2.885748   -1.734305
     47          8           0        5.160686    3.596314    0.763600
     48          6           0        3.775563    1.373883   -2.758517
     49          1           0        2.743698    0.995143   -2.751683
     50          1           0        4.415578    0.531797   -2.457263
     51          6           0        4.144640    1.808599   -4.183618
     52          1           0        3.515492    2.659567   -4.485101
     53          1           0        5.182626    2.171350   -4.199442
     54          6           0        3.988414    0.676927   -5.216224
     55          1           0        4.611911   -0.176008   -4.916406
     56          1           0        2.950782    0.315877   -5.203659
     57          7           0        4.326265    1.007362   -6.598990
     58          1           0        5.297267    1.310116   -6.661286
     59          1           0        3.761786    1.791832   -6.922306
     60          8           0        3.004722    3.665042    1.430673
     61          1           0        3.387206    4.369715    1.989003
     62          1           0        1.404441    0.767234    8.070128
 ---------------------------------------------------------------------

 SCF Done:  E(RB3LYP) =  -1526.19810222     A.U. after    3 cycles

 Alpha  occ. eigenvalues --  -19.30560 -19.28901 -19.28293 -19.26272 -19.25228
 Alpha  occ. eigenvalues --  -19.23807 -19.22627 -14.61105 -14.50591 -14.47696
 Alpha  occ. eigenvalues --  -14.36515 -10.44875 -10.43733 -10.42127 -10.40913
 Alpha  occ. eigenvalues --  -10.40797 -10.36272 -10.35213 -10.34150 -10.33876
 Alpha  occ. eigenvalues --  -10.33537 -10.30435 -10.28634 -10.28574 -10.28091
 Alpha  occ. eigenvalues --  -10.28089 -10.27852 -10.27256 -10.26541 -10.26412
 Alpha  occ. eigenvalues --  -10.24856  -1.21660  -1.20604  -1.19535  -1.15863
 Alpha  occ. eigenvalues --   -1.14884  -1.14460  -1.12899  -1.10498  -1.07438
 Alpha  occ. eigenvalues --   -1.04180  -0.96107  -0.94581  -0.93439  -0.90986
 Alpha  occ. eigenvalues --   -0.88933  -0.87771  -0.84392  -0.83782  -0.82901
 Alpha  occ. eigenvalues --   -0.80214  -0.77624  -0.76768  -0.75543  -0.73914
 Alpha  occ. eigenvalues --   -0.72989  -0.71226  -0.71207  -0.70662  -0.70113
 Alpha  occ. eigenvalues --   -0.69484  -0.67948  -0.66676  -0.65743  -0.63550
 Alpha  occ. eigenvalues --   -0.63322  -0.62979  -0.62146  -0.61119  -0.60378
 Alpha  occ. eigenvalues --   -0.59038  -0.58972  -0.58216  -0.57172  -0.56951
 Alpha  occ. eigenvalues --   -0.56631  -0.56398  -0.55637  -0.55187  -0.54303
 Alpha  occ. eigenvalues --   -0.54266  -0.53655  -0.53037  -0.52380  -0.52290
 Alpha  occ. eigenvalues --   -0.51359  -0.50982  -0.50652  -0.50249  -0.49961
 Alpha  occ. eigenvalues --   -0.49745  -0.49644  -0.49270  -0.49025  -0.48566
 Alpha  occ. eigenvalues --   -0.48055  -0.46370  -0.46258  -0.44705  -0.44437
 Alpha  occ. eigenvalues --   -0.43060  -0.42978  -0.42787  -0.42492  -0.42236
 Alpha  occ. eigenvalues --   -0.41882  -0.41018  -0.40564  -0.40392  -0.39741
 Alpha  occ. eigenvalues --   -0.39066  -0.38957  -0.37653  -0.34869  -0.34260
 Alpha  occ. eigenvalues --   -0.30800  -0.28548
 Alpha virt. eigenvalues --   -0.13718  -0.12744  -0.10144  -0.09830  -0.09045
 Alpha virt. eigenvalues --   -0.08188  -0.07913  -0.07648  -0.05513  -0.03366
 Alpha virt. eigenvalues --   -0.02686  -0.02386  -0.01668  -0.01171  -0.00521

 Mulliken charges:
               1
     1  N   -0.761834
     2  H    0.418556
     3  H    0.412524
     4  H    0.436740
     5  C   -0.118941
     6  H    0.234430
     7  C    0.663777
     8  C   -0.300414
     9  H    0.218959
    10  H    0.199660
    11  O   -0.550678
    12  C   -0.384344
    13  H    0.171193
    14  H    0.211605
    15  C    0.596332
    16  O   -0.434928
    17  O   -0.556528
    18  N   -0.615392
    19  H    0.383642
    20  C   -0.046836
    21  H    0.194306
    22  C    0.638522
    23  C   -0.386961
    24  H    0.187874
    25  H    0.170120
    26  O   -0.532459
    27  C    0.164613
    28  C   -0.194811
    29  H    0.152200
    30  C   -0.214719
    31  H    0.129580
    32  C   -0.155985
    33  H    0.164342
    34  C   -0.198028
    35  H    0.127871
    36  O   -0.626788
    37  H    0.415479
    38  C    0.356035
    39  N   -0.600256
    40  H    0.344302
    41  C   -0.068260
    42  H    0.220840
    43  C    0.597337
    44  C   -0.285634
    45  H    0.141188
    46  H    0.191738
    47  O   -0.438562
    48  C   -0.269529
    49  H    0.135565
    50  H    0.145783
    51  C   -0.266342
    52  H    0.128391
    53  H    0.138718
    54  C   -0.139929
    55  H    0.144604
    56  H    0.138375
    57  N   -0.700042
    58  H    0.299036
    59  H    0.296020
    60  O   -0.579563
    61  H    0.424038
    62  H    0.433469
 Sum of Mulliken charges =   1.00000

 Dipole moment (field-independent basis, Debye):
    X=             -5.8745    Y=             -4.4847    Z=             14.2726  Tot=             16.0726
 Quadrupole moment (field-independent basis, Debye-Ang):
   XX=           -167.1390   YY=           -131.5256   ZZ=           -101.2553
   XY=             37.6978   XZ=            -31.9425   YZ=            -30.5890

 Normal termination of Gaussian 16 at Tue May 24 03:12:13 2022.
