 Gaussian 16, Revision C.01,
 Gaussian 16:  ES64L-G16RevC.01  3-Jul-2019

 -------------------------------------------------------------------
 # B3LYP/6-31G* guess=read geom=check nosymm integral(ultrafinegrid)
 -------------------------------------------------------------------

 ------------------------------------------------------
 Candidate Structure: Conf:578 Charge calc in gas phase
 ------------------------------------------------------
 Structure from the checkpoint file:  "conf-578.chk"
 Charge =  1 Multiplicity = 1

                          Input orientation:
 ---------------------------------------------------------------------
 Center     Atomic      Atomic             Coordinates (Angstroms)
 Number     Number       Type             X           Y           Z
 ---------------------------------------------------------------------
      1          7           0        0.537082   -2.723478    3.297462
      2          1           0        1.203975   -2.219457    3.890108
      3          1           0        0.144511   -3.501429    3.835111
      4          1           0        1.053075   -3.065034    2.428326
      5          6           0       -0.508637   -1.811386    2.681177
      6          1           0       -0.592921   -0.911178    3.289362
      7          6           0        0.122144   -1.513893    1.287257
      8          6           0       -1.846762   -2.578383    2.625126
      9          1           0       -2.154882   -2.799213    3.655493
     10          1           0       -1.679205   -3.537701    2.119583
     11          8           0        0.969700   -2.321410    0.878896
     12          6           0       -3.009190   -1.872089    1.896007
     13          1           0       -3.905203   -2.489606    1.985987
     14          1           0       -2.779964   -1.782064    0.827955
     15          6           0       -3.292074   -0.474495    2.412324
     16          8           0       -2.458250    0.420292    2.443413
     17          8           0       -4.548314   -0.314711    2.823638
     18          7           0       -0.289332   -0.413741    0.662502
     19          1           0       -1.004261    0.142774    1.132332
     20          6           0        0.184412   -0.011238   -0.681743
     21          1           0       -0.216304    0.997335   -0.830921
     22          6           0        1.735052    0.101959   -0.700406
     23          6           0       -0.351665   -0.931941   -1.805772
     24          1           0        0.311890   -1.796299   -1.887679
     25          1           0       -1.335700   -1.296377   -1.483676
     26          8           0        2.408725   -0.435546   -1.559262
     27          6           0       -0.500001   -0.230336   -3.141140
     28          6           0       -1.684270    0.458018   -3.447304
     29          1           0       -2.501431    0.471080   -2.727331
     30          6           0        0.520251   -0.242712   -4.099422
     31          1           0        1.450308   -0.756668   -3.881201
     32          6           0       -1.852784    1.116644   -4.660039
     33          1           0       -2.772258    1.642338   -4.896464
     34          6           0        0.364943    0.409437   -5.321413
     35          1           0        1.168856    0.385902   -6.054701
     36          8           0       -1.037217    1.750534   -6.781184
     37          1           0       -0.258006    1.656134   -7.351310
     38          6           0       -0.821508    1.093741   -5.606582
     39          7           0        2.264708    0.834237    0.336435
     40          1           0        1.626061    1.497054    0.759952
     41          6           0        3.655098    1.297147    0.273003
     42          1           0        3.815360    1.870472    1.196316
     43          6           0        3.785004    2.314277   -0.873063
     44          6           0        4.690813    0.146518    0.253886
     45          1           0        4.212773   -0.725855    0.715491
     46          1           0        4.909131   -0.135715   -0.779214
     47          8           0        2.843891    2.846810   -1.416125
     48          6           0        5.978837    0.485351    1.016503
     49          1           0        5.747903    0.679658    2.072073
     50          1           0        6.416203    1.406257    0.612170
     51          6           0        7.023122   -0.634902    0.945502
     52          1           0        6.561399   -1.595008    1.225294
     53          1           0        7.371883   -0.755160   -0.089054
     54          6           0        8.233365   -0.384645    1.853792
     55          1           0        9.030834   -1.103775    1.600015
     56          1           0        8.637128    0.614581    1.647501
     57          7           0        7.840052   -0.421225    3.271651
     58          1           0        8.601367   -0.066454    3.848057
     59          1           0        7.708601   -1.391492    3.557231
     60          8           0        5.069221    2.592166   -1.170152
     61          1           0        5.054826    3.264756   -1.878288
     62          1           0       -4.664540    0.614177    3.108672
 ---------------------------------------------------------------------

 SCF Done:  E(RB3LYP) =  -1526.18981320     A.U. after    2 cycles

 Alpha  occ. eigenvalues --  -19.33849 -19.28727 -19.27771 -19.27393 -19.23591
 Alpha  occ. eigenvalues --  -19.21586 -19.21255 -14.61495 -14.50492 -14.45142
 Alpha  occ. eigenvalues --  -14.37224 -10.46980 -10.44422 -10.42263 -10.39720
 Alpha  occ. eigenvalues --  -10.38351 -10.37117 -10.35179 -10.34546 -10.32420
 Alpha  occ. eigenvalues --  -10.30972 -10.27919 -10.26462 -10.25722 -10.25709
 Alpha  occ. eigenvalues --  -10.25622 -10.25022 -10.24850 -10.24584 -10.24060
 Alpha  occ. eigenvalues --  -10.23990  -1.25079  -1.20362  -1.18316  -1.15981
 Alpha  occ. eigenvalues --   -1.15167  -1.13180  -1.11713  -1.09279  -1.07020
 Alpha  occ. eigenvalues --   -1.01485  -0.96813  -0.93754  -0.91974  -0.89998
 Alpha  occ. eigenvalues --   -0.87822  -0.86549  -0.82641  -0.81982  -0.80842
 Alpha  occ. eigenvalues --   -0.80182  -0.75889  -0.75864  -0.75360  -0.74724
 Alpha  occ. eigenvalues --   -0.72785  -0.72366  -0.69904  -0.68807  -0.68307
 Alpha  occ. eigenvalues --   -0.67363  -0.65692  -0.65214  -0.64772  -0.64273
 Alpha  occ. eigenvalues --   -0.63677  -0.61915  -0.61701  -0.61532  -0.60409
 Alpha  occ. eigenvalues --   -0.58795  -0.58412  -0.58055  -0.56405  -0.56013
 Alpha  occ. eigenvalues --   -0.55880  -0.55237  -0.54648  -0.54497  -0.53756
 Alpha  occ. eigenvalues --   -0.52858  -0.52624  -0.52479  -0.51976  -0.51622
 Alpha  occ. eigenvalues --   -0.51222  -0.50667  -0.49951  -0.49652  -0.49171
 Alpha  occ. eigenvalues --   -0.48271  -0.47929  -0.47349  -0.46607  -0.46301
 Alpha  occ. eigenvalues --   -0.46153  -0.46060  -0.45982  -0.43651  -0.42971
 Alpha  occ. eigenvalues --   -0.42902  -0.42264  -0.42035  -0.41713  -0.40525
 Alpha  occ. eigenvalues --   -0.40148  -0.39637  -0.39330  -0.39233  -0.38831
 Alpha  occ. eigenvalues --   -0.38694  -0.36008  -0.35083  -0.33856  -0.31251
 Alpha  occ. eigenvalues --   -0.29439  -0.27879
 Alpha virt. eigenvalues --   -0.14400  -0.13707  -0.11965  -0.08313  -0.07677
 Alpha virt. eigenvalues --   -0.06632  -0.06318  -0.05567  -0.05293  -0.04194
 Alpha virt. eigenvalues --   -0.02918  -0.02388  -0.01224  -0.01130   0.00373

 Mulliken charges:
               1
     1  N   -0.756363
     2  H    0.421545
     3  H    0.413286
     4  H    0.436511
     5  C   -0.113244
     6  H    0.231193
     7  C    0.648692
     8  C   -0.309437
     9  H    0.189340
    10  H    0.197007
    11  O   -0.532748
    12  C   -0.374907
    13  H    0.220504
    14  H    0.216530
    15  C    0.604529
    16  O   -0.481848
    17  O   -0.524376
    18  N   -0.630002
    19  H    0.390721
    20  C   -0.078892
    21  H    0.197070
    22  C    0.648256
    23  C   -0.358600
    24  H    0.194887
    25  H    0.132547
    26  O   -0.487000
    27  C    0.145617
    28  C   -0.188525
    29  H    0.106569
    30  C   -0.176553
    31  H    0.163460
    32  C   -0.153761
    33  H    0.148591
    34  C   -0.192357
    35  H    0.131513
    36  O   -0.634034
    37  H    0.414079
    38  C    0.355982
    39  N   -0.598482
    40  H    0.326731
    41  C   -0.066076
    42  H    0.177987
    43  C    0.601884
    44  C   -0.254514
    45  H    0.137071
    46  H    0.178903
    47  O   -0.464901
    48  C   -0.274511
    49  H    0.149293
    50  H    0.156542
    51  C   -0.249889
    52  H    0.116549
    53  H    0.140949
    54  C   -0.147379
    55  H    0.126842
    56  H    0.145156
    57  N   -0.719640
    58  H    0.304912
    59  H    0.289979
    60  O   -0.555922
    61  H    0.423685
    62  H    0.439050
 Sum of Mulliken charges =   1.00000

 Dipole moment (field-independent basis, Debye):
    X=              0.2041    Y=             -7.3562    Z=             13.8833  Tot=             15.7131
 Quadrupole moment (field-independent basis, Debye-Ang):
   XX=           -118.0867   YY=           -148.5103   ZZ=           -110.1592
   XY=              6.3633   XZ=             -9.5211   YZ=            -38.1971

 Normal termination of Gaussian 16 at Tue May 24 03:12:01 2022.
