 Gaussian 16, Revision C.01,
 Gaussian 16:  ES64L-G16RevC.01  3-Jul-2019

 -------------------------------------------------------------------
 # B3LYP/6-31G* guess=read geom=check nosymm integral(ultrafinegrid)
 -------------------------------------------------------------------

 ------------------------------------------------------
 Candidate Structure: Conf:950 Charge calc in gas phase
 ------------------------------------------------------
 Structure from the checkpoint file:  "conf-950.chk"
 Charge =  1 Multiplicity = 1

                          Input orientation:
 ---------------------------------------------------------------------
 Center     Atomic      Atomic             Coordinates (Angstroms)
 Number     Number       Type             X           Y           Z
 ---------------------------------------------------------------------
      1          7           0        0.555647   -4.046965    2.730133
      2          1           0        1.291309   -3.786665    3.393236
      3          1           0        0.239080   -4.996602    2.940723
      4          1           0        0.960503   -3.976870    1.739250
      5          6           0       -0.556662   -3.018248    2.658292
      6          1           0       -0.396726   -2.305766    3.467953
      7          6           0       -0.238668   -2.293478    1.319692
      8          6           0       -1.966177   -3.653621    2.725150
      9          1           0       -1.901722   -4.729976    2.521432
     10          1           0       -2.571895   -3.237402    1.915488
     11          8           0        0.626421   -2.797674    0.593011
     12          6           0       -2.695355   -3.428189    4.055001
     13          1           0       -2.121888   -3.797291    4.915531
     14          1           0       -3.639374   -3.984493    4.069267
     15          6           0       -3.008773   -1.962541    4.289818
     16          8           0       -2.641110   -1.062438    3.583476
     17          8           0       -3.740470   -1.777374    5.385794
     18          7           0       -0.949887   -1.185578    1.077190
     19          1           0       -1.543686   -0.891799    1.852372
     20          6           0       -0.381437   -0.100326    0.268108
     21          1           0       -1.101573    0.721422    0.337830
     22          6           0        0.928578    0.355989    0.988526
     23          6           0       -0.227387   -0.478049   -1.230784
     24          1           0        0.633496   -1.140152   -1.351575
     25          1           0       -1.114824   -1.068364   -1.490201
     26          8           0        1.303302   -0.200085    2.019562
     27          6           0       -0.118246    0.713172   -2.164021
     28          6           0       -1.192056    1.606573   -2.328253
     29          1           0       -2.117672    1.445983   -1.778472
     30          6           0        1.041155    0.942771   -2.916426
     31          1           0        1.884207    0.261846   -2.825462
     32          6           0       -1.112653    2.688116   -3.196001
     33          1           0       -1.945551    3.371764   -3.323771
     34          6           0        1.137319    2.024444   -3.793581
     35          1           0        2.046984    2.177530   -4.370314
     36          8           0        0.076461    3.977791   -4.768628
     37          1           0        0.927204    4.021489   -5.233268
     38          6           0        0.058784    2.903808   -3.936196
     39          7           0        1.569034    1.399629    0.414459
     40          1           0        1.233866    1.751664   -0.476335
     41          6           0        2.801836    1.980271    0.958151
     42          1           0        2.995323    1.448947    1.892293
     43          6           0        2.505511    3.451518    1.278297
     44          6           0        3.979483    1.831916   -0.013318
     45          1           0        4.042116    0.773755   -0.297230
     46          1           0        3.761285    2.403308   -0.923991
     47          8           0        2.740005    4.385924    0.535669
     48          6           0        5.319461    2.292467    0.576546
     49          1           0        5.516616    1.743409    1.509750
     50          1           0        5.248571    3.354561    0.841825
     51          6           0        6.495053    2.087820   -0.387537
     52          1           0        6.567094    1.022695   -0.653910
     53          1           0        6.295504    2.628266   -1.325149
     54          6           0        7.853402    2.548717    0.179083
     55          1           0        8.067815    1.993900    1.102628
     56          1           0        8.642118    2.273703   -0.531913
     57          7           0        8.006330    3.973080    0.475406
     58          1           0        7.335189    4.272501    1.179768
     59          1           0        7.821499    4.530520   -0.357400
     60          8           0        1.903114    3.586661    2.480290
     61          1           0        1.716707    4.538868    2.594151
     62          1           0       -3.906503   -0.818853    5.485455
 ---------------------------------------------------------------------

 SCF Done:  E(RB3LYP) =  -1526.20083918     A.U. after    1 cycles

 Alpha  occ. eigenvalues --  -19.32403 -19.27895 -19.27851 -19.27382 -19.25487
 Alpha  occ. eigenvalues --  -19.22222 -19.22037 -14.60308 -14.48875 -14.46132
 Alpha  occ. eigenvalues --  -14.36107 -10.45729 -10.43784 -10.41078 -10.40241
 Alpha  occ. eigenvalues --  -10.39248 -10.35709 -10.35116 -10.34448 -10.33192
 Alpha  occ. eigenvalues --  -10.32253 -10.29261 -10.28061 -10.27838 -10.27735
 Alpha  occ. eigenvalues --  -10.27233 -10.26744 -10.26527 -10.25828 -10.25246
 Alpha  occ. eigenvalues --  -10.24114  -1.24477  -1.19800  -1.18555  -1.15610
 Alpha  occ. eigenvalues --   -1.14308  -1.13712  -1.13577  -1.09519  -1.06133
 Alpha  occ. eigenvalues --   -1.02497  -0.95904  -0.94058  -0.92928  -0.90128
 Alpha  occ. eigenvalues --   -0.88122  -0.86916  -0.83260  -0.83056  -0.81864
 Alpha  occ. eigenvalues --   -0.80543  -0.76358  -0.75951  -0.74547  -0.73826
 Alpha  occ. eigenvalues --   -0.72034  -0.71710  -0.70750  -0.70134  -0.68656
 Alpha  occ. eigenvalues --   -0.67763  -0.67008  -0.66173  -0.64472  -0.64118
 Alpha  occ. eigenvalues --   -0.63156  -0.62641  -0.61869  -0.61445  -0.60455
 Alpha  occ. eigenvalues --   -0.58821  -0.58044  -0.57360  -0.56741  -0.56617
 Alpha  occ. eigenvalues --   -0.56031  -0.55571  -0.55184  -0.54587  -0.54298
 Alpha  occ. eigenvalues --   -0.53525  -0.52958  -0.52656  -0.51869  -0.51608
 Alpha  occ. eigenvalues --   -0.51155  -0.50565  -0.50426  -0.50183  -0.49852
 Alpha  occ. eigenvalues --   -0.49460  -0.48863  -0.48492  -0.47926  -0.46973
 Alpha  occ. eigenvalues --   -0.46724  -0.45763  -0.45600  -0.45274  -0.44461
 Alpha  occ. eigenvalues --   -0.44149  -0.42147  -0.42014  -0.41773  -0.41502
 Alpha  occ. eigenvalues --   -0.41403  -0.40983  -0.40223  -0.39525  -0.39258
 Alpha  occ. eigenvalues --   -0.38915  -0.36727  -0.35954  -0.34365  -0.33596
 Alpha  occ. eigenvalues --   -0.30072  -0.28095
 Alpha virt. eigenvalues --   -0.12773  -0.12249  -0.11233  -0.09284  -0.08690
 Alpha virt. eigenvalues --   -0.08020  -0.07676  -0.06131  -0.04700  -0.03912
 Alpha virt. eigenvalues --   -0.02460  -0.01101  -0.00744  -0.00068   0.00204

 Mulliken charges:
               1
     1  N   -0.764422
     2  H    0.422404
     3  H    0.406537
     4  H    0.436394
     5  C   -0.100504
     6  H    0.237837
     7  C    0.646836
     8  C   -0.312155
     9  H    0.174318
    10  H    0.217772
    11  O   -0.532831
    12  C   -0.369054
    13  H    0.194933
    14  H    0.223648
    15  C    0.599264
    16  O   -0.464115
    17  O   -0.536936
    18  N   -0.595416
    19  H    0.395384
    20  C   -0.105613
    21  H    0.189795
    22  C    0.637504
    23  C   -0.349312
    24  H    0.187421
    25  H    0.175632
    26  O   -0.544577
    27  C    0.116512
    28  C   -0.186830
    29  H    0.132531
    30  C   -0.206990
    31  H    0.143459
    32  C   -0.151813
    33  H    0.161933
    34  C   -0.185644
    35  H    0.141180
    36  O   -0.625809
    37  H    0.418565
    38  C    0.358614
    39  N   -0.621545
    40  H    0.364408
    41  C   -0.032714
    42  H    0.198867
    43  C    0.581604
    44  C   -0.261364
    45  H    0.142022
    46  H    0.157318
    47  O   -0.452535
    48  C   -0.272227
    49  H    0.132930
    50  H    0.146473
    51  C   -0.261570
    52  H    0.126512
    53  H    0.130131
    54  C   -0.145416
    55  H    0.140623
    56  H    0.150237
    57  N   -0.701748
    58  H    0.297795
    59  H    0.296867
    60  O   -0.559310
    61  H    0.419856
    62  H    0.436336
 Sum of Mulliken charges =   1.00000

 Dipole moment (field-independent basis, Debye):
    X=             -2.8842    Y=            -11.5262    Z=             10.6867  Tot=             15.9805
 Quadrupole moment (field-independent basis, Debye-Ang):
   XX=           -169.3477   YY=           -110.6804   ZZ=           -114.5159
   XY=              2.7486   XZ=            -28.1506   YZ=            -51.0883

 Normal termination of Gaussian 16 at Tue May 24 03:11:48 2022.
