 Gaussian 16, Revision C.01,
 Gaussian 16:  ES64L-G16RevC.01  3-Jul-2019

 -------------------------------------------------------------------
 # B3LYP/6-31G* guess=read geom=check nosymm integral(ultrafinegrid)
 -------------------------------------------------------------------

 ------------------------------------------------------
 Candidate Structure: Conf:231 Charge calc in gas phase
 ------------------------------------------------------
 Structure from the checkpoint file:  "conf-231.chk"
 Charge =  1 Multiplicity = 1

                          Input orientation:
 ---------------------------------------------------------------------
 Center     Atomic      Atomic             Coordinates (Angstroms)
 Number     Number       Type             X           Y           Z
 ---------------------------------------------------------------------
      1          7           0        1.094595   -1.879447    2.871768
      2          1           0        1.769962   -1.111924    2.667676
      3          1           0        1.157809   -2.162526    3.854372
      4          1           0        1.362003   -2.659345    2.240283
      5          6           0       -0.316109   -1.507606    2.444541
      6          1           0       -0.534559   -0.522951    2.867182
      7          6           0       -0.148362   -1.483108    0.906149
      8          6           0       -1.299988   -2.574919    2.937914
      9          1           0       -1.207646   -2.688067    4.024366
     10          1           0       -1.028335   -3.533634    2.478619
     11          8           0        0.570702   -2.355193    0.418667
     12          6           0       -2.758076   -2.222711    2.590588
     13          1           0       -2.895574   -2.065177    1.517960
     14          1           0       -3.054121   -1.303569    3.114101
     15          6           0       -3.731335   -3.319375    2.997863
     16          8           0       -4.568903   -3.801554    2.276497
     17          8           0       -3.544601   -3.686239    4.287427
     18          7           0       -0.678026   -0.451920    0.227457
     19          1           0       -1.388750    0.120900    0.664184
     20          6           0       -0.345449   -0.214841   -1.192449
     21          1           0       -0.747037    0.781344   -1.413648
     22          6           0        1.197745   -0.139660   -1.348493
     23          6           0       -0.984131   -1.229760   -2.163938
     24          1           0       -0.682692   -0.929395   -3.172032
     25          1           0       -0.538574   -2.211846   -1.985925
     26          8           0        1.766114   -0.573001   -2.332101
     27          6           0       -2.489782   -1.278541   -2.025579
     28          6           0       -3.112504   -2.272764   -1.254534
     29          1           0       -2.506518   -3.061338   -0.811961
     30          6           0       -3.307173   -0.313778   -2.627675
     31          1           0       -2.862870    0.457984   -3.253412
     32          6           0       -4.492172   -2.299756   -1.066910
     33          1           0       -4.962403   -3.067906   -0.461556
     34          6           0       -4.691456   -0.328343   -2.459090
     35          1           0       -5.306840    0.424971   -2.946997
     36          8           0       -6.632489   -1.388165   -1.457751
     37          1           0       -7.081587   -0.698552   -1.971748
     38          6           0       -5.289795   -1.319877   -1.672101
     39          7           0        1.851578    0.461395   -0.295936
     40          1           0        1.307985    0.989924    0.372209
     41          6           0        3.288775    0.674178   -0.308356
     42          1           0        3.691953    0.026922   -1.092047
     43          6           0        3.942277    0.249428    0.997553
     44          6           0        3.655747    2.149225   -0.639675
     45          1           0        3.071296    2.398159   -1.533708
     46          1           0        3.288979    2.799606    0.167772
     47          8           0        5.112272    0.036352    1.159012
     48          6           0        5.140913    2.423256   -0.907483
     49          1           0        5.490301    1.756376   -1.707729
     50          1           0        5.737978    2.177168   -0.021722
     51          6           0        5.388224    3.885383   -1.302355
     52          1           0        4.803808    4.126394   -2.203078
     53          1           0        5.032788    4.560328   -0.513068
     54          6           0        6.865395    4.194178   -1.563960
     55          1           0        7.442874    3.977114   -0.656152
     56          1           0        7.245807    3.511733   -2.346875
     57          7           0        7.037559    5.617045   -1.868781
     58          1           0        6.651251    5.822212   -2.789658
     59          1           0        8.029099    5.842393   -1.925644
     60          8           0        3.076817    0.211391    2.104907
     61          1           0        3.697738    0.165671    2.860529
     62          1           0       -4.206677   -4.376262    4.488493
 ---------------------------------------------------------------------

 SCF Done:  E(RB3LYP) =  -1526.18559648     A.U. after    2 cycles

 Alpha  occ. eigenvalues --  -19.34041 -19.30512 -19.27995 -19.27308 -19.25426
 Alpha  occ. eigenvalues --  -19.24822 -19.22922 -14.61757 -14.52031 -14.47748
 Alpha  occ. eigenvalues --  -14.36704 -10.45164 -10.45041 -10.43318 -10.42664
 Alpha  occ. eigenvalues --  -10.40443 -10.36208 -10.35713 -10.35468 -10.33406
 Alpha  occ. eigenvalues --  -10.33032 -10.29334 -10.28635 -10.27747 -10.27633
 Alpha  occ. eigenvalues --  -10.27544 -10.27197 -10.26740 -10.26512 -10.26498
 Alpha  occ. eigenvalues --  -10.24962  -1.23596  -1.21319  -1.20811  -1.15797
 Alpha  occ. eigenvalues --   -1.15020  -1.14801  -1.13600  -1.12471  -1.08148
 Alpha  occ. eigenvalues --   -1.04212  -0.96447  -0.93889  -0.93601  -0.90886
 Alpha  occ. eigenvalues --   -0.89371  -0.87572  -0.84866  -0.83015  -0.82701
 Alpha  occ. eigenvalues --   -0.79987  -0.78280  -0.76327  -0.75779  -0.74688
 Alpha  occ. eigenvalues --   -0.73955  -0.72657  -0.71976  -0.70547  -0.70236
 Alpha  occ. eigenvalues --   -0.68881  -0.68281  -0.66747  -0.65765  -0.65406
 Alpha  occ. eigenvalues --   -0.64615  -0.62623  -0.61806  -0.61730  -0.60706
 Alpha  occ. eigenvalues --   -0.59889  -0.58900  -0.58628  -0.58000  -0.57985
 Alpha  occ. eigenvalues --   -0.57034  -0.56582  -0.55973  -0.55030  -0.54607
 Alpha  occ. eigenvalues --   -0.54304  -0.53893  -0.53568  -0.53268  -0.52512
 Alpha  occ. eigenvalues --   -0.51995  -0.51410  -0.51270  -0.50712  -0.50322
 Alpha  occ. eigenvalues --   -0.50007  -0.49634  -0.49308  -0.48595  -0.48259
 Alpha  occ. eigenvalues --   -0.48230  -0.47472  -0.46090  -0.45395  -0.45097
 Alpha  occ. eigenvalues --   -0.43951  -0.43651  -0.42638  -0.42208  -0.41968
 Alpha  occ. eigenvalues --   -0.41840  -0.41382  -0.41103  -0.40850  -0.40751
 Alpha  occ. eigenvalues --   -0.39740  -0.38291  -0.36791  -0.35986  -0.33551
 Alpha  occ. eigenvalues --   -0.29922  -0.28981
 Alpha virt. eigenvalues --   -0.15175  -0.12608  -0.11726  -0.10206  -0.09740
 Alpha virt. eigenvalues --   -0.08698  -0.07482  -0.07216  -0.07004  -0.04364
 Alpha virt. eigenvalues --   -0.04314  -0.02546  -0.01818  -0.01530  -0.01030

 Mulliken charges:
               1
     1  N   -0.768390
     2  H    0.438002
     3  H    0.409423
     4  H    0.426435
     5  C   -0.123363
     6  H    0.200561
     7  C    0.664295
     8  C   -0.290029
     9  H    0.192210
    10  H    0.196974
    11  O   -0.514447
    12  C   -0.380183
    13  H    0.207259
    14  H    0.188578
    15  C    0.585083
    16  O   -0.423096
    17  O   -0.563124
    18  N   -0.618621
    19  H    0.357209
    20  C   -0.072606
    21  H    0.188473
    22  C    0.639595
    23  C   -0.359555
    24  H    0.193287
    25  H    0.191930
    26  O   -0.479613
    27  C    0.156279
    28  C   -0.218448
    29  H    0.130407
    30  C   -0.200421
    31  H    0.136699
    32  C   -0.165330
    33  H    0.177168
    34  C   -0.189158
    35  H    0.138489
    36  O   -0.628975
    37  H    0.416394
    38  C    0.351742
    39  N   -0.624500
    40  H    0.322418
    41  C   -0.060137
    42  H    0.232799
    43  C    0.603581
    44  C   -0.276154
    45  H    0.172774
    46  H    0.139108
    47  O   -0.402655
    48  C   -0.273594
    49  H    0.151814
    50  H    0.160040
    51  C   -0.250851
    52  H    0.131363
    53  H    0.149232
    54  C   -0.136844
    55  H    0.142829
    56  H    0.120398
    57  N   -0.716726
    58  H    0.296995
    59  H    0.305789
    60  O   -0.634956
    61  H    0.423375
    62  H    0.432770
 Sum of Mulliken charges =   1.00000

 Dipole moment (field-independent basis, Debye):
    X=              0.5192    Y=             -1.5748    Z=             11.4544  Tot=             11.5738
 Quadrupole moment (field-independent basis, Debye-Ang):
   XX=           -139.5211   YY=           -165.4576   ZZ=           -123.9093
   XY=              3.8564   XZ=              4.9170   YZ=            -41.3426

 Normal termination of Gaussian 16 at Tue May 24 03:11:47 2022.
