 Gaussian 16, Revision C.01,
 Gaussian 16:  ES64L-G16RevC.01  3-Jul-2019

 -------------------------------------------------------------------
 # B3LYP/6-31G* guess=read geom=check nosymm integral(ultrafinegrid)
 -------------------------------------------------------------------

 ------------------------------------------------------
 Candidate Structure: Conf:807 Charge calc in gas phase
 ------------------------------------------------------
 Structure from the checkpoint file:  "conf-807.chk"
 Charge =  1 Multiplicity = 1

                          Input orientation:
 ---------------------------------------------------------------------
 Center     Atomic      Atomic             Coordinates (Angstroms)
 Number     Number       Type             X           Y           Z
 ---------------------------------------------------------------------
      1          7           0       -0.483613   -2.213080    3.158755
      2          1           0        0.072330   -1.359735    2.885021
      3          1           0       -0.346679   -2.454101    4.144386
      4          1           0       -0.143905   -2.980741    2.564607
      5          6           0       -1.939871   -1.938606    2.790670
      6          1           0       -2.274538   -1.153173    3.474525
      7          6           0       -1.752528   -1.436936    1.338717
      8          6           0       -2.802544   -3.192467    2.901814
      9          1           0       -2.428383   -3.948272    2.203447
     10          1           0       -3.803707   -2.914448    2.550095
     11          8           0       -1.253230   -2.214762    0.538126
     12          6           0       -2.906636   -3.764691    4.328496
     13          1           0       -3.289403   -3.019475    5.031142
     14          1           0       -1.926679   -4.109597    4.687010
     15          6           0       -3.849931   -4.958625    4.389471
     16          8           0       -4.855869   -5.012164    5.051100
     17          8           0       -3.410156   -5.958533    3.590816
     18          7           0       -2.021168   -0.121247    1.110935
     19          1           0       -2.343163    0.396630    1.919468
     20          6           0       -1.139194    0.656817    0.230391
     21          1           0       -1.485941    1.692519    0.313562
     22          6           0        0.289317    0.622883    0.856906
     23          6           0       -1.253009    0.233074   -1.257110
     24          1           0       -0.833556   -0.767446   -1.376862
     25          1           0       -2.328586    0.145011   -1.456779
     26          8           0        0.526123   -0.002943    1.908518
     27          6           0       -0.616397    1.191462   -2.245470
     28          6           0       -0.964418    2.553586   -2.294006
     29          1           0       -1.708722    2.952389   -1.607229
     30          6           0        0.312322    0.722452   -3.183480
     31          1           0        0.591524   -0.328238   -3.182598
     32          6           0       -0.393275    3.417875   -3.222386
     33          1           0       -0.665799    4.467597   -3.257118
     34          6           0        0.882641    1.572352   -4.130901
     35          1           0        1.595803    1.180447   -4.852976
     36          8           0        1.074536    3.821695   -5.022668
     37          1           0        1.649391    3.360154   -5.653741
     38          6           0        0.537932    2.928479   -4.148142
     39          7           0        1.236141    1.358813    0.264845
     40          1           0        1.001659    1.884335   -0.570359
     41          6           0        2.560592    1.525385    0.868764
     42          1           0        3.000391    0.537342    1.031354
     43          6           0        2.484993    2.175921    2.253023
     44          6           0        3.486029    2.362908   -0.035620
     45          1           0        3.015397    3.338285   -0.213467
     46          1           0        4.398307    2.557726    0.540302
     47          8           0        3.269985    1.947306    3.140567
     48          6           0        3.863452    1.675445   -1.357685
     49          1           0        2.972472    1.537136   -1.985058
     50          1           0        4.239978    0.668840   -1.130837
     51          6           0        4.938199    2.436587   -2.151609
     52          1           0        5.828055    2.591534   -1.528926
     53          1           0        5.259534    1.804021   -2.991306
     54          6           0        4.494948    3.796223   -2.704997
     55          1           0        3.591158    3.659321   -3.331056
     56          1           0        4.199765    4.457596   -1.880759
     57          7           0        5.614730    4.440593   -3.392370
     58          1           0        5.353072    5.376239   -3.696537
     59          1           0        5.856216    3.921568   -4.235499
     60          8           0        1.492637    3.093142    2.345826
     61          1           0        1.582922    3.502623    3.227872
     62          1           0       -4.051634   -6.691525    3.666525
 ---------------------------------------------------------------------

 SCF Done:  E(RB3LYP) =  -1526.19574413     A.U. after    1 cycles

 Alpha  occ. eigenvalues --  -19.29904 -19.29365 -19.26940 -19.26817 -19.26115
 Alpha  occ. eigenvalues --  -19.24232 -19.23343 -14.60129 -14.50394 -14.48808
 Alpha  occ. eigenvalues --  -14.37481 -10.44069 -10.42763 -10.42487 -10.41608
 Alpha  occ. eigenvalues --  -10.41255 -10.37229 -10.34565 -10.34497 -10.34283
 Alpha  occ. eigenvalues --  -10.33262 -10.30464 -10.29426 -10.29193 -10.29049
 Alpha  occ. eigenvalues --  -10.28888 -10.28563 -10.28169 -10.27641 -10.27189
 Alpha  occ. eigenvalues --  -10.25472  -1.20741  -1.20174  -1.19550  -1.17017
 Alpha  occ. eigenvalues --   -1.15098  -1.14331  -1.11952  -1.11140  -1.07057
 Alpha  occ. eigenvalues --   -1.05241  -0.95567  -0.95018  -0.94421  -0.91419
 Alpha  occ. eigenvalues --   -0.89406  -0.87500  -0.84874  -0.84547  -0.83290
 Alpha  occ. eigenvalues --   -0.78807  -0.77643  -0.76888  -0.75008  -0.73901
 Alpha  occ. eigenvalues --   -0.72453  -0.71942  -0.71587  -0.71511  -0.70465
 Alpha  occ. eigenvalues --   -0.70013  -0.68526  -0.66814  -0.65435  -0.64232
 Alpha  occ. eigenvalues --   -0.63947  -0.63694  -0.61886  -0.60577  -0.59704
 Alpha  occ. eigenvalues --   -0.58791  -0.58410  -0.57816  -0.57552  -0.56882
 Alpha  occ. eigenvalues --   -0.56451  -0.56179  -0.55869  -0.55310  -0.54923
 Alpha  occ. eigenvalues --   -0.54705  -0.54276  -0.53956  -0.53248  -0.52536
 Alpha  occ. eigenvalues --   -0.51926  -0.51631  -0.51425  -0.51032  -0.50335
 Alpha  occ. eigenvalues --   -0.49880  -0.49567  -0.49334  -0.49253  -0.48893
 Alpha  occ. eigenvalues --   -0.48684  -0.47222  -0.46887  -0.45594  -0.45420
 Alpha  occ. eigenvalues --   -0.45095  -0.43246  -0.42620  -0.42088  -0.42050
 Alpha  occ. eigenvalues --   -0.41479  -0.41198  -0.40854  -0.40377  -0.40066
 Alpha  occ. eigenvalues --   -0.39885  -0.39136  -0.37671  -0.36171  -0.35013
 Alpha  occ. eigenvalues --   -0.31476  -0.29658
 Alpha virt. eigenvalues --   -0.14642  -0.11739  -0.11007  -0.10179  -0.09001
 Alpha virt. eigenvalues --   -0.08712  -0.08359  -0.06909  -0.04592  -0.02563
 Alpha virt. eigenvalues --   -0.02520  -0.02221  -0.02097  -0.00929  -0.00444

 Mulliken charges:
               1
     1  N   -0.758216
     2  H    0.460535
     3  H    0.410350
     4  H    0.417952
     5  C   -0.113943
     6  H    0.196012
     7  C    0.616465
     8  C   -0.288579
     9  H    0.212142
    10  H    0.204863
    11  O   -0.492041
    12  C   -0.365396
    13  H    0.194798
    14  H    0.162081
    15  C    0.576236
    16  O   -0.419979
    17  O   -0.559692
    18  N   -0.565308
    19  H    0.345909
    20  C   -0.116256
    21  H    0.195134
    22  C    0.671771
    23  C   -0.344632
    24  H    0.197198
    25  H    0.187536
    26  O   -0.599356
    27  C    0.118861
    28  C   -0.207504
    29  H    0.138356
    30  C   -0.191304
    31  H    0.148384
    32  C   -0.153904
    33  H    0.166303
    34  C   -0.189473
    35  H    0.144602
    36  O   -0.630441
    37  H    0.419497
    38  C    0.364011
    39  N   -0.605590
    40  H    0.371863
    41  C   -0.004103
    42  H    0.190786
    43  C    0.586607
    44  C   -0.321041
    45  H    0.163943
    46  H    0.187630
    47  O   -0.448471
    48  C   -0.280788
    49  H    0.140003
    50  H    0.144529
    51  C   -0.252421
    52  H    0.162375
    53  H    0.134206
    54  C   -0.140389
    55  H    0.107384
    56  H    0.142096
    57  N   -0.712588
    58  H    0.305714
    59  H    0.295505
    60  O   -0.574801
    61  H    0.422473
    62  H    0.432105
 Sum of Mulliken charges =   1.00000

 Dipole moment (field-independent basis, Debye):
    X=             -2.7018    Y=             -2.8235    Z=              5.3209  Tot=              6.6018
 Quadrupole moment (field-independent basis, Debye-Ang):
   XX=           -176.8709   YY=           -133.2560   ZZ=           -120.1089
   XY=              9.3330   XZ=            -27.8619   YZ=            -33.1402

 Normal termination of Gaussian 16 at Tue May 24 03:11:48 2022.
