 Gaussian 16, Revision C.01,
 Gaussian 16:  ES64L-G16RevC.01  3-Jul-2019

 -------------------------------------------------------------------
 # B3LYP/6-31G* guess=read geom=check nosymm integral(ultrafinegrid)
 -------------------------------------------------------------------

 ------------------------------------------------------
 Candidate Structure: Conf:222 Charge calc in gas phase
 ------------------------------------------------------
 Structure from the checkpoint file:  "conf-222.chk"
 Charge =  1 Multiplicity = 1

                          Input orientation:
 ---------------------------------------------------------------------
 Center     Atomic      Atomic             Coordinates (Angstroms)
 Number     Number       Type             X           Y           Z
 ---------------------------------------------------------------------
      1          7           0       -0.239548   -1.508010    3.220755
      2          1           0        0.262853   -0.649715    2.868815
      3          1           0       -0.154281   -1.610771    4.236635
      4          1           0        0.206615   -2.312070    2.760887
      5          6           0       -1.687083   -1.431144    2.742803
      6          1           0       -2.145725   -0.614626    3.308503
      7          6           0       -1.460361   -1.077320    1.253525
      8          6           0       -2.395566   -2.758794    2.980036
      9          1           0       -2.327962   -3.038014    4.037717
     10          1           0       -1.885191   -3.539742    2.405636
     11          8           0       -0.872976   -1.897178    0.562367
     12          6           0       -3.870421   -2.708921    2.569385
     13          1           0       -3.986828   -2.533151    1.493519
     14          1           0       -4.406766   -1.895582    3.076185
     15          6           0       -4.566060   -4.014096    2.922492
     16          8           0       -4.054409   -4.918895    3.541334
     17          8           0       -5.830831   -4.027774    2.464125
     18          7           0       -1.795102    0.186795    0.872005
     19          1           0       -2.183319    0.769591    1.603456
     20          6           0       -0.927852    0.913984   -0.064267
     21          1           0       -1.328855    1.932704   -0.104492
     22          6           0        0.482822    1.017786    0.591191
     23          6           0       -0.964376    0.331820   -1.503482
     24          1           0       -0.432473   -0.621496   -1.519619
     25          1           0       -2.018047    0.103489   -1.705341
     26          8           0        0.707674    0.581245    1.736520
     27          6           0       -0.424671    1.262262   -2.573726
     28          6           0       -1.027709    2.505840   -2.836728
     29          1           0       -1.895366    2.821191   -2.260138
     30          6           0        0.667442    0.886414   -3.367692
     31          1           0        1.145352   -0.076280   -3.202044
     32          6           0       -0.559033    3.343637   -3.841062
     33          1           0       -1.032729    4.298034   -4.046182
     34          6           0        1.147966    1.714226   -4.383455
     35          1           0        1.990298    1.393754   -4.992908
     36          8           0        0.944209    3.808204   -5.594118
     37          1           0        1.665164    3.410021   -6.107288
     38          6           0        0.534363    2.948494   -4.625353
     39          7           0        1.429865    1.649790   -0.108436
     40          1           0        1.204428    2.007184   -1.030944
     41          6           0        2.774703    1.874750    0.427276
     42          1           0        3.198800    0.913718    0.732148
     43          6           0        2.749380    2.736512    1.691833
     44          6           0        3.659198    2.519482   -0.662157
     45          1           0        3.529597    1.928702   -1.577430
     46          1           0        3.277751    3.527365   -0.875728
     47          8           0        3.503339    2.589786    2.623373
     48          6           0        5.147234    2.586498   -0.283927
     49          1           0        5.525152    1.565361   -0.133759
     50          1           0        5.255048    3.092537    0.681971
     51          6           0        6.023215    3.309209   -1.319204
     52          1           0        5.642575    4.330896   -1.470208
     53          1           0        7.035875    3.416502   -0.914876
     54          6           0        6.141886    2.605706   -2.675488
     55          1           0        6.493429    1.577739   -2.514630
     56          1           0        5.143562    2.524766   -3.148434
     57          7           0        7.137040    3.287286   -3.505481
     58          1           0        6.804910    4.216773   -3.759318
     59          1           0        7.275629    2.783895   -4.379530
     60          8           0        1.831644    3.728994    1.619181
     61          1           0        1.939180    4.260966    2.431087
     62          1           0       -6.226459   -4.881030    2.727971
 ---------------------------------------------------------------------

 SCF Done:  E(RB3LYP) =  -1526.20050060     A.U. after    1 cycles

 Alpha  occ. eigenvalues --  -19.29321 -19.29268 -19.26736 -19.26729 -19.26007
 Alpha  occ. eigenvalues --  -19.23963 -19.23376 -14.59981 -14.50362 -14.48730
 Alpha  occ. eigenvalues --  -14.37322 -10.43914 -10.42414 -10.42398 -10.41590
 Alpha  occ. eigenvalues --  -10.40979 -10.37131 -10.34513 -10.34481 -10.33481
 Alpha  occ. eigenvalues --  -10.32459 -10.30469 -10.29341 -10.29104 -10.29036
 Alpha  occ. eigenvalues --  -10.29004 -10.28513 -10.27993 -10.27473 -10.26536
 Alpha  occ. eigenvalues --  -10.25019  -1.20400  -1.20124  -1.19421  -1.16923
 Alpha  occ. eigenvalues --   -1.14976  -1.14185  -1.11598  -1.11099  -1.06971
 Alpha  occ. eigenvalues --   -1.05252  -0.95457  -0.94714  -0.94230  -0.91282
 Alpha  occ. eigenvalues --   -0.89194  -0.86889  -0.84637  -0.84418  -0.83093
 Alpha  occ. eigenvalues --   -0.79136  -0.77513  -0.76759  -0.74616  -0.74145
 Alpha  occ. eigenvalues --   -0.72535  -0.71978  -0.71548  -0.70256  -0.70015
 Alpha  occ. eigenvalues --   -0.68819  -0.68348  -0.66738  -0.64837  -0.64385
 Alpha  occ. eigenvalues --   -0.64004  -0.63780  -0.61353  -0.61033  -0.59131
 Alpha  occ. eigenvalues --   -0.59009  -0.58772  -0.57798  -0.57519  -0.57056
 Alpha  occ. eigenvalues --   -0.56235  -0.56056  -0.55655  -0.55191  -0.54696
 Alpha  occ. eigenvalues --   -0.54401  -0.54240  -0.53275  -0.52538  -0.52221
 Alpha  occ. eigenvalues --   -0.52090  -0.51752  -0.50808  -0.50651  -0.50329
 Alpha  occ. eigenvalues --   -0.49743  -0.49312  -0.48831  -0.48331  -0.48184
 Alpha  occ. eigenvalues --   -0.47934  -0.47281  -0.46780  -0.46704  -0.45462
 Alpha  occ. eigenvalues --   -0.43700  -0.43120  -0.42500  -0.41819  -0.41613
 Alpha  occ. eigenvalues --   -0.41391  -0.41103  -0.40640  -0.40224  -0.40102
 Alpha  occ. eigenvalues --   -0.39637  -0.38962  -0.37702  -0.36234  -0.34919
 Alpha  occ. eigenvalues --   -0.31378  -0.29453
 Alpha virt. eigenvalues --   -0.14593  -0.11589  -0.09975  -0.09873  -0.09221
 Alpha virt. eigenvalues --   -0.08978  -0.08314  -0.06852  -0.04474  -0.02789
 Alpha virt. eigenvalues --   -0.01964  -0.01444  -0.00873  -0.00413  -0.00393

 Mulliken charges:
               1
     1  N   -0.758445
     2  H    0.459266
     3  H    0.411430
     4  H    0.418561
     5  C   -0.116760
     6  H    0.192216
     7  C    0.611417
     8  C   -0.270514
     9  H    0.184775
    10  H    0.200667
    11  O   -0.490719
    12  C   -0.378840
    13  H    0.206336
    14  H    0.190700
    15  C    0.597118
    16  O   -0.444779
    17  O   -0.557284
    18  N   -0.564972
    19  H    0.345193
    20  C   -0.110713
    21  H    0.196752
    22  C    0.668852
    23  C   -0.346780
    24  H    0.195381
    25  H    0.186344
    26  O   -0.599319
    27  C    0.106540
    28  C   -0.189257
    29  H    0.137193
    30  C   -0.202391
    31  H    0.146536
    32  C   -0.152578
    33  H    0.166357
    34  C   -0.189592
    35  H    0.142937
    36  O   -0.624202
    37  H    0.418948
    38  C    0.356739
    39  N   -0.616675
    40  H    0.373185
    41  C    0.006734
    42  H    0.189270
    43  C    0.593728
    44  C   -0.324926
    45  H    0.162018
    46  H    0.164713
    47  O   -0.448515
    48  C   -0.278256
    49  H    0.144626
    50  H    0.168156
    51  C   -0.256226
    52  H    0.130049
    53  H    0.170524
    54  C   -0.133635
    55  H    0.142456
    56  H    0.099056
    57  N   -0.710438
    58  H    0.296810
    59  H    0.302152
    60  O   -0.571027
    61  H    0.422852
    62  H    0.430255
 Sum of Mulliken charges =   1.00000

 Dipole moment (field-independent basis, Debye):
    X=             -3.5233    Y=              0.6719    Z=              4.9458  Tot=              6.1095
 Quadrupole moment (field-independent basis, Debye-Ang):
   XX=           -154.4284   YY=           -155.6776   ZZ=           -117.4171
   XY=             14.3328   XZ=            -36.9245   YZ=            -22.5218

 Normal termination of Gaussian 16 at Tue May 24 03:11:32 2022.
