 Gaussian 16, Revision C.01,
 Gaussian 16:  ES64L-G16RevC.01  3-Jul-2019

 -------------------------------------------------------------------
 # B3LYP/6-31G* guess=read geom=check nosymm integral(ultrafinegrid)
 -------------------------------------------------------------------

 ------------------------------------------------------
 Candidate Structure: Conf:879 Charge calc in gas phase
 ------------------------------------------------------
 Structure from the checkpoint file:  "conf-879.chk"
 Charge =  1 Multiplicity = 1

                          Input orientation:
 ---------------------------------------------------------------------
 Center     Atomic      Atomic             Coordinates (Angstroms)
 Number     Number       Type             X           Y           Z
 ---------------------------------------------------------------------
      1          7           0       -0.129022   -2.056849    3.375575
      2          1           0        0.295563   -1.167419    3.012662
      3          1           0       -0.327891   -2.037931    4.397722
      4          1           0        0.531723   -2.805480    3.141667
      5          6           0       -1.445882   -2.284216    2.653778
      6          1           0       -2.124004   -1.537917    3.074092
      7          6           0       -1.058265   -1.982885    1.187665
      8          6           0       -1.986536   -3.704105    2.851736
      9          1           0       -1.457622   -4.369562    2.161780
     10          1           0       -3.033907   -3.686520    2.530761
     11          8           0       -0.327486   -2.772262    0.608196
     12          6           0       -1.894094   -4.311457    4.275681
     13          1           0       -0.866025   -4.637264    4.479729
     14          1           0       -2.520858   -5.204258    4.319826
     15          6           0       -2.267466   -3.362639    5.397014
     16          8           0       -1.660671   -2.324154    5.637694
     17          8           0       -3.315067   -3.765417    6.109875
     18          7           0       -1.451810   -0.767253    0.714649
     19          1           0       -1.973056   -0.195761    1.368116
     20          6           0       -0.575007    0.005790   -0.171556
     21          1           0       -1.086974    0.961806   -0.327261
     22          6           0        0.725271    0.334691    0.619710
     23          6           0       -0.375088   -0.658654   -1.560967
     24          1           0        0.274641   -1.529482   -1.454890
     25          1           0       -1.360806   -1.040822   -1.853332
     26          8           0        0.884330   -0.016455    1.801948
     27          6           0        0.154366    0.274080   -2.634414
     28          6           0       -0.569432    1.409237   -3.042451
     29          1           0       -1.527466    1.637635   -2.579187
     30          6           0        1.366226    0.005639   -3.284742
     31          1           0        1.942996   -0.872141   -3.003072
     32          6           0       -0.103256    2.246584   -4.048686
     33          1           0       -0.668586    3.117110   -4.364806
     34          6           0        1.846090    0.833171   -4.300812
     35          1           0        2.784985    0.596524   -4.797093
     36          8           0        1.513517    2.812376   -5.666572
     37          1           0        2.335975    2.490371   -6.068420
     38          6           0        1.111139    1.959266   -4.688051
     39          7           0        1.644904    1.064029   -0.025928
     40          1           0        1.443632    1.371785   -0.971071
     41          6           0        2.808495    1.625532    0.653824
     42          1           0        3.329836    0.821450    1.178787
     43          6           0        2.333060    2.645200    1.696372
     44          6           0        3.736273    2.268839   -0.403270
     45          1           0        3.911885    1.506938   -1.174202
     46          1           0        3.184820    3.087765   -0.885050
     47          8           0        1.290244    3.253995    1.645253
     48          6           0        5.087716    2.791336    0.108922
     49          1           0        4.928979    3.587422    0.846527
     50          1           0        5.588254    3.262074   -0.747040
     51          6           0        6.012101    1.721373    0.703768
     52          1           0        5.554536    1.289974    1.604737
     53          1           0        6.131268    0.896328   -0.016018
     54          6           0        7.408005    2.258146    1.088332
     55          1           0        7.293727    3.061243    1.828302
     56          1           0        7.962204    1.456462    1.591677
     57          7           0        8.253859    2.768439    0.011669
     58          1           0        7.835369    3.580518   -0.436183
     59          1           0        8.384384    2.062772   -0.711246
     60          8           0        3.246376    2.800788    2.677375
     61          1           0        2.908739    3.497490    3.273140
     62          1           0       -3.471687   -3.115657    6.824642
 ---------------------------------------------------------------------

 SCF Done:  E(RB3LYP) =  -1526.21439159     A.U. after    2 cycles

 Alpha  occ. eigenvalues --  -19.33452 -19.29043 -19.28492 -19.26105 -19.25699
 Alpha  occ. eigenvalues --  -19.24957 -19.23223 -14.57437 -14.49437 -14.47652
 Alpha  occ. eigenvalues --  -14.37139 -10.46559 -10.42933 -10.41380 -10.41335
 Alpha  occ. eigenvalues --  -10.39911 -10.36118 -10.34301 -10.34255 -10.34014
 Alpha  occ. eigenvalues --  -10.33808 -10.29685 -10.28933 -10.28617 -10.28401
 Alpha  occ. eigenvalues --  -10.28332 -10.27846 -10.27323 -10.26895 -10.26617
 Alpha  occ. eigenvalues --  -10.25320  -1.24743  -1.19904  -1.18212  -1.15960
 Alpha  occ. eigenvalues --   -1.15700  -1.14329  -1.12250  -1.10947  -1.06022
 Alpha  occ. eigenvalues --   -1.04342  -0.94824  -0.94509  -0.93985  -0.90819
 Alpha  occ. eigenvalues --   -0.89004  -0.87257  -0.84059  -0.83750  -0.82588
 Alpha  occ. eigenvalues --   -0.79370  -0.77770  -0.76454  -0.74002  -0.73787
 Alpha  occ. eigenvalues --   -0.72859  -0.71239  -0.70888  -0.70762  -0.69263
 Alpha  occ. eigenvalues --   -0.68556  -0.67589  -0.65712  -0.64992  -0.64231
 Alpha  occ. eigenvalues --   -0.63292  -0.62627  -0.62392  -0.60875  -0.60664
 Alpha  occ. eigenvalues --   -0.60053  -0.59574  -0.57794  -0.57192  -0.57092
 Alpha  occ. eigenvalues --   -0.56485  -0.56032  -0.55576  -0.55233  -0.54583
 Alpha  occ. eigenvalues --   -0.54486  -0.53688  -0.53253  -0.52797  -0.52422
 Alpha  occ. eigenvalues --   -0.52202  -0.51068  -0.50742  -0.50621  -0.50093
 Alpha  occ. eigenvalues --   -0.49834  -0.49268  -0.48902  -0.48844  -0.48487
 Alpha  occ. eigenvalues --   -0.48270  -0.47163  -0.46065  -0.45842  -0.45618
 Alpha  occ. eigenvalues --   -0.44741  -0.43509  -0.42729  -0.42447  -0.42284
 Alpha  occ. eigenvalues --   -0.41773  -0.41238  -0.40414  -0.40112  -0.39712
 Alpha  occ. eigenvalues --   -0.39129  -0.38506  -0.37986  -0.36563  -0.34245
 Alpha  occ. eigenvalues --   -0.30699  -0.29059
 Alpha virt. eigenvalues --   -0.13678  -0.13173  -0.10610  -0.09257  -0.08609
 Alpha virt. eigenvalues --   -0.07869  -0.07690  -0.05937  -0.04046  -0.01624
 Alpha virt. eigenvalues --   -0.01460  -0.00785  -0.00008   0.00338   0.00507

 Mulliken charges:
               1
     1  N   -0.779476
     2  H    0.450320
     3  H    0.430897
     4  H    0.402989
     5  C   -0.104101
     6  H    0.199305
     7  C    0.605762
     8  C   -0.300957
     9  H    0.214565
    10  H    0.201711
    11  O   -0.490145
    12  C   -0.385395
    13  H    0.191408
    14  H    0.222673
    15  C    0.610583
    16  O   -0.493788
    17  O   -0.521770
    18  N   -0.567799
    19  H    0.345753
    20  C   -0.111514
    21  H    0.199301
    22  C    0.670814
    23  C   -0.346026
    24  H    0.193822
    25  H    0.184753
    26  O   -0.592455
    27  C    0.107131
    28  C   -0.189963
    29  H    0.137741
    30  C   -0.198585
    31  H    0.144189
    32  C   -0.153015
    33  H    0.165153
    34  C   -0.190622
    35  H    0.140500
    36  O   -0.625305
    37  H    0.418351
    38  C    0.355768
    39  N   -0.606540
    40  H    0.370923
    41  C   -0.011886
    42  H    0.192621
    43  C    0.596135
    44  C   -0.317165
    45  H    0.161246
    46  H    0.163369
    47  O   -0.462309
    48  C   -0.261217
    49  H    0.153549
    50  H    0.137138
    51  C   -0.269446
    52  H    0.136552
    53  H    0.123164
    54  C   -0.144696
    55  H    0.147372
    56  H    0.150815
    57  N   -0.701016
    58  H    0.300245
    59  H    0.295478
    60  O   -0.558910
    61  H    0.423294
    62  H    0.438710
 Sum of Mulliken charges =   1.00000

 Dipole moment (field-independent basis, Debye):
    X=             -1.2376    Y=             -6.1429    Z=              9.3938  Tot=             11.2920
 Quadrupole moment (field-independent basis, Debye-Ang):
   XX=           -154.6190   YY=           -147.4914   ZZ=            -97.4780
   XY=             19.3164   XZ=            -39.1768   YZ=            -42.3613

 Normal termination of Gaussian 16 at Tue May 24 03:12:00 2022.
