 Gaussian 16, Revision C.01,
 Gaussian 16:  ES64L-G16RevC.01  3-Jul-2019

 -------------------------------------------------------------------
 # B3LYP/6-31G* guess=read geom=check nosymm integral(ultrafinegrid)
 -------------------------------------------------------------------

 ------------------------------------------------------
 Candidate Structure: Conf:538 Charge calc in gas phase
 ------------------------------------------------------
 Structure from the checkpoint file:  "conf-538.chk"
 Charge =  1 Multiplicity = 1

                          Input orientation:
 ---------------------------------------------------------------------
 Center     Atomic      Atomic             Coordinates (Angstroms)
 Number     Number       Type             X           Y           Z
 ---------------------------------------------------------------------
      1          7           0        0.827186   -1.553688    2.848015
      2          1           0        1.540552   -0.817908    2.659865
      3          1           0        0.800814   -1.797438    3.841189
      4          1           0        1.120054   -2.359794    2.264098
      5          6           0       -0.519241   -1.139948    2.289540
      6          1           0       -0.705075   -0.116679    2.627640
      7          6           0       -0.262817   -1.212548    0.766593
      8          6           0       -1.629401   -2.099415    2.730057
      9          1           0       -1.363164   -3.120411    2.430949
     10          1           0       -2.528254   -1.858144    2.152488
     11          8           0        0.551521   -2.044205    0.366784
     12          6           0       -1.972067   -2.047922    4.222747
     13          1           0       -2.194965   -1.022936    4.548231
     14          1           0       -1.157568   -2.403473    4.868016
     15          6           0       -3.197800   -2.903533    4.519695
     16          8           0       -3.892546   -3.418575    3.675477
     17          8           0       -3.407245   -2.999127    5.844595
     18          7           0       -0.891413   -0.310081   -0.007315
     19          1           0       -1.672926    0.206297    0.376403
     20          6           0       -0.655875   -0.234934   -1.465082
     21          1           0       -1.157864    0.685976   -1.783472
     22          6           0        0.862784   -0.054423   -1.726407
     23          6           0       -1.251643   -1.424797   -2.245606
     24          1           0       -1.071914   -1.229051   -3.307188
     25          1           0       -0.684942   -2.325486   -1.995850
     26          8           0        1.431506   -0.605518   -2.649855
     27          6           0       -2.725300   -1.608352   -1.954949
     28          6           0       -3.161841   -2.544901   -1.004599
     29          1           0       -2.433818   -3.198285   -0.527583
     30          6           0       -3.695822   -0.820892   -2.587250
     31          1           0       -3.396808   -0.099930   -3.345625
     32          6           0       -4.508507   -2.685722   -0.680487
     33          1           0       -4.841035   -3.418662    0.047826
     34          6           0       -5.049740   -0.950595   -2.279193
     35          1           0       -5.786144   -0.335422   -2.792496
     36          8           0       -6.765045   -2.059110   -0.965341
     37          1           0       -7.331942   -1.494777   -1.514474
     38          6           0       -5.461758   -1.882762   -1.319437
     39          7           0        1.482871    0.813111   -0.859579
     40          1           0        0.953345    1.136094   -0.062846
     41          6           0        2.926216    0.863288   -0.734059
     42          1           0        3.325204    0.081859   -1.392059
     43          6           0        3.312755    0.496147    0.695025
     44          6           0        3.542937    2.216826   -1.168784
     45          1           0        4.632499    2.114374   -1.145506
     46          1           0        3.256308    2.362358   -2.216511
     47          8           0        2.522449    0.294651    1.613199
     48          6           0        3.089223    3.419677   -0.330072
     49          1           0        3.435312    3.301879    0.708730
     50          1           0        1.991372    3.436778   -0.293779
     51          6           0        3.575776    4.771489   -0.876671
     52          1           0        3.237841    4.903144   -1.912036
     53          1           0        3.099595    5.572869   -0.294349
     54          6           0        5.094887    4.972728   -0.831935
     55          1           0        5.452362    4.789090    0.200646
     56          1           0        5.589159    4.228228   -1.468059
     57          7           0        5.436180    6.292002   -1.364493
     58          1           0        6.446512    6.393319   -1.437510
     59          1           0        5.122059    7.019912   -0.724118
     60          8           0        4.632918    0.436201    0.860159
     61          1           0        4.825384    0.227050    1.794230
     62          1           0       -4.210941   -3.538954    5.976462
 ---------------------------------------------------------------------

 SCF Done:  E(RB3LYP) =  -1526.20432186     A.U. after    3 cycles

 Alpha  occ. eigenvalues --  -19.33194 -19.30481 -19.28713 -19.27280 -19.25364
 Alpha  occ. eigenvalues --  -19.25143 -19.22038 -14.60305 -14.51131 -14.46483
 Alpha  occ. eigenvalues --  -14.37315 -10.46171 -10.44395 -10.43647 -10.41637
 Alpha  occ. eigenvalues --  -10.39475 -10.35395 -10.34927 -10.34668 -10.34110
 Alpha  occ. eigenvalues --  -10.32922 -10.28481 -10.28176 -10.27534 -10.27515
 Alpha  occ. eigenvalues --  -10.27511 -10.27425 -10.27407 -10.27027 -10.26533
 Alpha  occ. eigenvalues --  -10.25523  -1.24571  -1.21566  -1.19942  -1.15552
 Alpha  occ. eigenvalues --   -1.14619  -1.13936  -1.13521  -1.12808  -1.07346
 Alpha  occ. eigenvalues --   -1.03316  -0.95689  -0.94287  -0.93655  -0.90711
 Alpha  occ. eigenvalues --   -0.89346  -0.87287  -0.85065  -0.82874  -0.82425
 Alpha  occ. eigenvalues --   -0.79517  -0.78211  -0.76090  -0.75163  -0.74767
 Alpha  occ. eigenvalues --   -0.73546  -0.72603  -0.71095  -0.70836  -0.70105
 Alpha  occ. eigenvalues --   -0.68779  -0.67625  -0.66242  -0.65110  -0.64619
 Alpha  occ. eigenvalues --   -0.63773  -0.63301  -0.62371  -0.61473  -0.60577
 Alpha  occ. eigenvalues --   -0.59684  -0.59162  -0.58884  -0.58407  -0.57500
 Alpha  occ. eigenvalues --   -0.56552  -0.55836  -0.55552  -0.55141  -0.54770
 Alpha  occ. eigenvalues --   -0.54119  -0.53831  -0.53155  -0.52948  -0.52043
 Alpha  occ. eigenvalues --   -0.51607  -0.51450  -0.51119  -0.50968  -0.50208
 Alpha  occ. eigenvalues --   -0.49883  -0.49496  -0.49408  -0.48853  -0.48124
 Alpha  occ. eigenvalues --   -0.47619  -0.46912  -0.46151  -0.45489  -0.45100
 Alpha  occ. eigenvalues --   -0.44800  -0.43572  -0.42763  -0.42398  -0.41746
 Alpha  occ. eigenvalues --   -0.41641  -0.41291  -0.41023  -0.40923  -0.40381
 Alpha  occ. eigenvalues --   -0.39948  -0.38846  -0.36203  -0.35606  -0.33404
 Alpha  occ. eigenvalues --   -0.29776  -0.29544
 Alpha virt. eigenvalues --   -0.13939  -0.12907  -0.11010  -0.09634  -0.09087
 Alpha virt. eigenvalues --   -0.08418  -0.07166  -0.06111  -0.05077  -0.04422
 Alpha virt. eigenvalues --   -0.03780  -0.02288  -0.01210  -0.00762  -0.00310

 Mulliken charges:
               1
     1  N   -0.759016
     2  H    0.449282
     3  H    0.405732
     4  H    0.419813
     5  C   -0.137330
     6  H    0.201934
     7  C    0.672839
     8  C   -0.285618
     9  H    0.196557
    10  H    0.220515
    11  O   -0.521658
    12  C   -0.383572
    13  H    0.200822
    14  H    0.172030
    15  C    0.599397
    16  O   -0.435615
    17  O   -0.556531
    18  N   -0.626049
    19  H    0.356894
    20  C   -0.068599
    21  H    0.189827
    22  C    0.632439
    23  C   -0.360034
    24  H    0.191178
    25  H    0.190431
    26  O   -0.485198
    27  C    0.156852
    28  C   -0.216186
    29  H    0.128932
    30  C   -0.199398
    31  H    0.138518
    32  C   -0.163334
    33  H    0.161799
    34  C   -0.190208
    35  H    0.138455
    36  O   -0.631044
    37  H    0.416541
    38  C    0.353032
    39  N   -0.593424
    40  H    0.326060
    41  C   -0.070737
    42  H    0.230296
    43  C    0.619344
    44  C   -0.262479
    45  H    0.174587
    46  H    0.178909
    47  O   -0.543657
    48  C   -0.283479
    49  H    0.127830
    50  H    0.130024
    51  C   -0.250070
    52  H    0.160715
    53  H    0.135394
    54  C   -0.134352
    55  H    0.108316
    56  H    0.144673
    57  N   -0.713628
    58  H    0.306253
    59  H    0.298128
    60  O   -0.523484
    61  H    0.426579
    62  H    0.433771
 Sum of Mulliken charges =   1.00000

 Dipole moment (field-independent basis, Debye):
    X=              0.7855    Y=             -0.3076    Z=             13.1699  Tot=             13.1969
 Quadrupole moment (field-independent basis, Debye-Ang):
   XX=           -117.9706   YY=           -162.9609   ZZ=           -132.1391
   XY=              9.6669   XZ=             17.0673   YZ=            -22.6869

 Normal termination of Gaussian 16 at Tue May 24 03:12:13 2022.
