 Gaussian 16, Revision C.01,
 Gaussian 16:  ES64L-G16RevC.01  3-Jul-2019

 -------------------------------------------------------------------
 # B3LYP/6-31G* guess=read geom=check nosymm integral(ultrafinegrid)
 -------------------------------------------------------------------

 ------------------------------------------------------
 Candidate Structure: Conf:112 Charge calc in gas phase
 ------------------------------------------------------
 Structure from the checkpoint file:  "conf-112.chk"
 Charge =  1 Multiplicity = 1

                          Input orientation:
 ---------------------------------------------------------------------
 Center     Atomic      Atomic             Coordinates (Angstroms)
 Number     Number       Type             X           Y           Z
 ---------------------------------------------------------------------
      1          7           0       -2.943223   -3.126844    1.997061
      2          1           0       -2.839198   -4.115511    1.751227
      3          1           0       -3.484772   -3.060589    2.864035
      4          1           0       -3.432385   -2.620754    1.194986
      5          6           0       -1.621225   -2.381211    2.064222
      6          1           0       -0.816159   -3.119663    2.103269
      7          6           0       -1.621160   -1.604680    0.714369
      8          6           0       -1.611817   -1.480004    3.310672
      9          1           0       -1.885077   -2.084423    4.183980
     10          1           0       -2.385428   -0.709375    3.207616
     11          8           0       -2.700004   -1.533896    0.101433
     12          6           0       -0.259568   -0.821906    3.610252
     13          1           0        0.029491   -0.072121    2.866793
     14          1           0        0.551234   -1.563038    3.630877
     15          6           0       -0.304150   -0.154481    4.977508
     16          8           0       -1.225385   -0.251675    5.756842
     17          8           0        0.816666    0.547826    5.210177
     18          7           0       -0.474126   -1.066164    0.329906
     19          1           0        0.366527   -1.073340    0.914458
     20          6           0       -0.321765   -0.166226   -0.815443
     21          1           0       -1.197843    0.488860   -0.860092
     22          6           0        0.938229    0.662362   -0.460584
     23          6           0       -0.215286   -0.952553   -2.153674
     24          1           0        0.745007   -1.480053   -2.179795
     25          1           0       -1.001542   -1.716032   -2.125296
     26          8           0        1.606490    0.354766    0.536554
     27          6           0       -0.388404   -0.091215   -3.386839
     28          6           0       -1.641271    0.469123   -3.692152
     29          1           0       -2.491415    0.272856   -3.041431
     30          6           0        0.674201    0.158884   -4.263227
     31          1           0        1.652496   -0.271017   -4.061082
     32          6           0       -1.826672    1.257258   -4.820731
     33          1           0       -2.794814    1.686358   -5.057195
     34          6           0        0.503081    0.945299   -5.402464
     35          1           0        1.341986    1.123216   -6.071839
     36          8           0       -0.991691    2.277059   -6.773759
     37          1           0       -0.177726    2.379264   -7.291833
     38          6           0       -0.749457    1.501044   -5.684196
     39          7           0        1.227230    1.691429   -1.266546
     40          1           0        0.667632    1.884825   -2.092532
     41          6           0        2.378191    2.568449   -1.047699
     42          1           0        2.481218    2.746369    0.026501
     43          6           0        2.041789    3.876559   -1.753450
     44          6           0        3.690054    1.935461   -1.582651
     45          1           0        3.734955    0.928824   -1.150347
     46          1           0        3.596970    1.814993   -2.670612
     47          8           0        1.261871    3.960328   -2.678925
     48          6           0        4.971391    2.697225   -1.223482
     49          1           0        5.031415    2.841740   -0.138734
     50          1           0        4.955730    3.699866   -1.667850
     51          6           0        6.234782    1.961785   -1.689550
     52          1           0        6.230222    0.933440   -1.296303
     53          1           0        6.236766    1.870295   -2.784843
     54          6           0        7.530763    2.655772   -1.251331
     55          1           0        8.384452    2.161963   -1.747770
     56          1           0        7.520935    3.693822   -1.607675
     57          7           0        7.635398    2.691410    0.213058
     58          1           0        8.411967    3.288556    0.491108
     59          1           0        7.859845    1.759982    0.561966
     60          8           0        2.720404    4.920016   -1.250199
     61          1           0        2.479216    5.703764   -1.781769
     62          1           0        0.736993    0.938626    6.101958
 ---------------------------------------------------------------------

 SCF Done:  E(RB3LYP) =  -1526.20729991     A.U. after    1 cycles

 Alpha  occ. eigenvalues --  -19.29768 -19.28577 -19.27761 -19.25129 -19.24464
 Alpha  occ. eigenvalues --  -19.22999 -19.22782 -14.60842 -14.50126 -14.46249
 Alpha  occ. eigenvalues --  -14.36725 -10.44455 -10.42941 -10.41899 -10.41032
 Alpha  occ. eigenvalues --  -10.39788 -10.35319 -10.34847 -10.32928 -10.32825
 Alpha  occ. eigenvalues --  -10.32772 -10.29728 -10.27717 -10.27472 -10.27295
 Alpha  occ. eigenvalues --  -10.26849 -10.26805 -10.26345 -10.26309 -10.24347
 Alpha  occ. eigenvalues --  -10.24260  -1.20909  -1.20161  -1.19616  -1.14926
 Alpha  occ. eigenvalues --   -1.14377  -1.13342  -1.12096  -1.10687  -1.06832
 Alpha  occ. eigenvalues --   -1.02835  -0.95546  -0.93745  -0.93437  -0.90032
 Alpha  occ. eigenvalues --   -0.87964  -0.86930  -0.83323  -0.82786  -0.82142
 Alpha  occ. eigenvalues --   -0.79696  -0.76616  -0.76382  -0.74783  -0.73767
 Alpha  occ. eigenvalues --   -0.72857  -0.71290  -0.70012  -0.69861  -0.69202
 Alpha  occ. eigenvalues --   -0.67480  -0.67135  -0.66419  -0.64357  -0.64003
 Alpha  occ. eigenvalues --   -0.62400  -0.62150  -0.60816  -0.60027  -0.59214
 Alpha  occ. eigenvalues --   -0.58395  -0.57922  -0.57362  -0.56772  -0.56523
 Alpha  occ. eigenvalues --   -0.55555  -0.55319  -0.54968  -0.54562  -0.53938
 Alpha  occ. eigenvalues --   -0.53592  -0.52680  -0.52261  -0.52084  -0.51638
 Alpha  occ. eigenvalues --   -0.51187  -0.50661  -0.50180  -0.49915  -0.49700
 Alpha  occ. eigenvalues --   -0.48833  -0.48635  -0.48346  -0.47954  -0.47767
 Alpha  occ. eigenvalues --   -0.46643  -0.46422  -0.45259  -0.44363  -0.43497
 Alpha  occ. eigenvalues --   -0.42488  -0.42311  -0.42021  -0.41552  -0.41413
 Alpha  occ. eigenvalues --   -0.40948  -0.40329  -0.39715  -0.39427  -0.38905
 Alpha  occ. eigenvalues --   -0.38220  -0.37254  -0.36441  -0.35382  -0.33172
 Alpha  occ. eigenvalues --   -0.29677  -0.28921
 Alpha virt. eigenvalues --   -0.13188  -0.11863  -0.09468  -0.08871  -0.08226
 Alpha virt. eigenvalues --   -0.07718  -0.07221  -0.06980  -0.05366  -0.02451
 Alpha virt. eigenvalues --   -0.01484  -0.01147  -0.00509   0.00144   0.00170

 Mulliken charges:
               1
     1  N   -0.758515
     2  H    0.418407
     3  H    0.417614
     4  H    0.436119
     5  C   -0.114665
     6  H    0.214503
     7  C    0.648700
     8  C   -0.291746
     9  H    0.195077
    10  H    0.197215
    11  O   -0.541938
    12  C   -0.392799
    13  H    0.217585
    14  H    0.197774
    15  C    0.595267
    16  O   -0.447506
    17  O   -0.551111
    18  N   -0.608111
    19  H    0.381797
    20  C   -0.069784
    21  H    0.201442
    22  C    0.631103
    23  C   -0.350345
    24  H    0.163168
    25  H    0.177902
    26  O   -0.554821
    27  C    0.128904
    28  C   -0.194182
    29  H    0.139664
    30  C   -0.197717
    31  H    0.137920
    32  C   -0.150325
    33  H    0.159689
    34  C   -0.182087
    35  H    0.137685
    36  O   -0.627460
    37  H    0.417317
    38  C    0.361375
    39  N   -0.620604
    40  H    0.377016
    41  C   -0.031412
    42  H    0.199247
    43  C    0.581843
    44  C   -0.274196
    45  H    0.164501
    46  H    0.144606
    47  O   -0.461750
    48  C   -0.258505
    49  H    0.173473
    50  H    0.142889
    51  C   -0.255459
    52  H    0.125929
    53  H    0.131679
    54  C   -0.143031
    55  H    0.125204
    56  H    0.142877
    57  N   -0.715889
    58  H    0.305758
    59  H    0.294930
    60  O   -0.549413
    61  H    0.425988
    62  H    0.431203
 Sum of Mulliken charges =   1.00000

 Dipole moment (field-independent basis, Debye):
    X=             -1.4725    Y=             -6.8822    Z=              3.8729  Tot=              8.0332
 Quadrupole moment (field-independent basis, Debye-Ang):
   XX=           -122.2801   YY=           -121.9153   ZZ=           -132.2121
   XY=             43.5012   XZ=            -29.6578   YZ=            -32.4630

 Normal termination of Gaussian 16 at Tue May 24 03:11:30 2022.
