 Gaussian 16, Revision C.01,
 Gaussian 16:  ES64L-G16RevC.01  3-Jul-2019

 -------------------------------------------------------------------
 # B3LYP/6-31G* guess=read geom=check nosymm integral(ultrafinegrid)
 -------------------------------------------------------------------

 ------------------------------------------------------
 Candidate Structure: Conf:962 Charge calc in gas phase
 ------------------------------------------------------
 Structure from the checkpoint file:  "conf-962.chk"
 Charge =  1 Multiplicity = 1

                          Input orientation:
 ---------------------------------------------------------------------
 Center     Atomic      Atomic             Coordinates (Angstroms)
 Number     Number       Type             X           Y           Z
 ---------------------------------------------------------------------
      1          7           0        0.478250   -1.220827    3.142148
      2          1           0        1.223934   -0.594427    2.774179
      3          1           0        0.306630   -1.035824    4.153105
      4          1           0        0.798605   -2.177612    2.952240
      5          6           0       -0.814228   -0.982102    2.402860
      6          1           0       -1.087100    0.053090    2.621499
      7          6           0       -0.442194   -1.197404    0.921623
      8          6           0       -1.925732   -1.958969    2.837935
      9          1           0       -1.755806   -2.921757    2.344093
     10          1           0       -2.862636   -1.566678    2.428252
     11          8           0        0.365689   -2.083285    0.660237
     12          6           0       -2.098908   -2.240963    4.354723
     13          1           0       -1.341247   -2.961325    4.687530
     14          1           0       -3.072058   -2.709689    4.513898
     15          6           0       -1.951522   -1.031939    5.254853
     16          8           0       -0.909754   -0.392790    5.357283
     17          8           0       -3.052751   -0.732614    5.935745
     18          7           0       -0.978134   -0.343927    0.023230
     19          1           0       -1.755359    0.239657    0.304850
     20          6           0       -0.655182   -0.419411   -1.415825
     21          1           0       -1.112611    0.475299   -1.853830
     22          6           0        0.878375   -0.298669   -1.614551
     23          6           0       -1.230081   -1.668850   -2.114882
     24          1           0       -0.987044   -1.575392   -3.177906
     25          1           0       -0.694019   -2.549260   -1.751909
     26          8           0        1.470747   -0.935737   -2.466139
     27          6           0       -2.720101   -1.814580   -1.896350
     28          6           0       -3.225116   -2.739666   -0.970204
     29          1           0       -2.534136   -3.400147   -0.449789
     30          6           0       -3.641076   -1.015070   -2.586219
     31          1           0       -3.288489   -0.303706   -3.330604
     32          6           0       -4.591109   -2.860971   -0.728444
     33          1           0       -4.980060   -3.594599   -0.029079
     34          6           0       -5.012202   -1.121025   -2.356016
     35          1           0       -5.707928   -0.495837   -2.912168
     36          8           0       -6.818152   -2.202235   -1.142537
     37          1           0       -7.344844   -1.636846   -1.729344
     38          6           0       -5.493704   -2.045575   -1.421454
     39          7           0        1.483152    0.621328   -0.795318
     40          1           0        0.933019    1.009283   -0.042426
     41          6           0        2.922137    0.650114   -0.616072
     42          1           0        3.327740   -0.195638   -1.183825
     43          6           0        3.237996    0.408633    0.855960
     44          6           0        3.586915    1.947214   -1.141509
     45          1           0        4.673501    1.838510   -1.045694
     46          1           0        3.362199    1.992390   -2.211712
     47          8           0        2.406578    0.323461    1.753403
     48          6           0        3.120883    3.227248   -0.433491
     49          1           0        3.311428    3.135884    0.646214
     50          1           0        2.032572    3.332927   -0.548708
     51          6           0        3.805317    4.509571   -0.934535
     52          1           0        3.518582    5.347791   -0.289103
     53          1           0        4.895695    4.401670   -0.833705
     54          6           0        3.464181    4.900976   -2.376721
     55          1           0        3.788434    4.105583   -3.072568
     56          1           0        2.372908    4.976484   -2.477055
     57          7           0        4.027279    6.219521   -2.679612
     58          1           0        3.740292    6.515706   -3.610862
     59          1           0        5.044929    6.163155   -2.705098
     60          8           0        4.548207    0.324036    1.083264
     61          1           0        4.691753    0.198304    2.040955
     62          1           0       -2.863125    0.034801    6.512710
 ---------------------------------------------------------------------

 SCF Done:  E(RB3LYP) =  -1526.21616291     A.U. after    1 cycles

 Alpha  occ. eigenvalues --  -19.34088 -19.32441 -19.29127 -19.27897 -19.26086
 Alpha  occ. eigenvalues --  -19.25711 -19.21624 -14.58036 -14.50481 -14.46046
 Alpha  occ. eigenvalues --  -14.37074 -10.47209 -10.45398 -10.43480 -10.40723
 Alpha  occ. eigenvalues --  -10.39070 -10.35569 -10.35053 -10.34968 -10.34395
 Alpha  occ. eigenvalues --  -10.33235 -10.28117 -10.28036 -10.27723 -10.27675
 Alpha  occ. eigenvalues --  -10.27646 -10.27322 -10.27239 -10.27136 -10.26920
 Alpha  occ. eigenvalues --  -10.25235  -1.25389  -1.23827  -1.18670  -1.16370
 Alpha  occ. eigenvalues --   -1.14785  -1.13850  -1.13717  -1.12732  -1.06593
 Alpha  occ. eigenvalues --   -1.02860  -0.95568  -0.94006  -0.93874  -0.90530
 Alpha  occ. eigenvalues --   -0.89175  -0.87331  -0.84681  -0.83173  -0.82510
 Alpha  occ. eigenvalues --   -0.80100  -0.77755  -0.75979  -0.74563  -0.74392
 Alpha  occ. eigenvalues --   -0.73172  -0.72434  -0.71538  -0.70690  -0.70081
 Alpha  occ. eigenvalues --   -0.68332  -0.67362  -0.65840  -0.64963  -0.64812
 Alpha  occ. eigenvalues --   -0.63597  -0.63136  -0.62689  -0.62485  -0.61250
 Alpha  occ. eigenvalues --   -0.60669  -0.59543  -0.58725  -0.57919  -0.57630
 Alpha  occ. eigenvalues --   -0.56861  -0.55456  -0.55379  -0.55272  -0.54707
 Alpha  occ. eigenvalues --   -0.54320  -0.54058  -0.53816  -0.53054  -0.52446
 Alpha  occ. eigenvalues --   -0.52157  -0.51633  -0.51377  -0.50905  -0.50496
 Alpha  occ. eigenvalues --   -0.50271  -0.50098  -0.49128  -0.48339  -0.47925
 Alpha  occ. eigenvalues --   -0.47556  -0.46612  -0.46535  -0.46256  -0.45224
 Alpha  occ. eigenvalues --   -0.45097  -0.43730  -0.43481  -0.42895  -0.42010
 Alpha  occ. eigenvalues --   -0.41799  -0.41396  -0.41141  -0.40332  -0.40239
 Alpha  occ. eigenvalues --   -0.40018  -0.39561  -0.35775  -0.35201  -0.33699
 Alpha  occ. eigenvalues --   -0.30042  -0.29302
 Alpha virt. eigenvalues --   -0.14380  -0.12883  -0.12129  -0.09184  -0.08601
 Alpha virt. eigenvalues --   -0.07515  -0.07264  -0.05838  -0.04615  -0.04096
 Alpha virt. eigenvalues --   -0.02296  -0.02038  -0.00772  -0.00404  -0.00344

 Mulliken charges:
               1
     1  N   -0.778561
     2  H    0.451737
     3  H    0.427900
     4  H    0.404969
     5  C   -0.119428
     6  H    0.203573
     7  C    0.650569
     8  C   -0.301982
     9  H    0.206947
    10  H    0.205558
    11  O   -0.514876
    12  C   -0.382937
    13  H    0.197371
    14  H    0.224840
    15  C    0.610159
    16  O   -0.491359
    17  O   -0.520769
    18  N   -0.626702
    19  H    0.352068
    20  C   -0.068482
    21  H    0.186612
    22  C    0.635290
    23  C   -0.360937
    24  H    0.191516
    25  H    0.190419
    26  O   -0.489585
    27  C    0.161711
    28  C   -0.214846
    29  H    0.129241
    30  C   -0.200233
    31  H    0.138393
    32  C   -0.164513
    33  H    0.147534
    34  C   -0.190482
    35  H    0.138919
    36  O   -0.633110
    37  H    0.417177
    38  C    0.353609
    39  N   -0.593965
    40  H    0.326763
    41  C   -0.068414
    42  H    0.228021
    43  C    0.617699
    44  C   -0.263393
    45  H    0.169223
    46  H    0.178394
    47  O   -0.534721
    48  C   -0.283771
    49  H    0.131127
    50  H    0.131791
    51  C   -0.252474
    52  H    0.161237
    53  H    0.134470
    54  C   -0.135209
    55  H    0.119262
    56  H    0.136382
    57  N   -0.714281
    58  H    0.304863
    59  H    0.298678
    60  O   -0.526645
    61  H    0.427601
    62  H    0.440051
 Sum of Mulliken charges =   1.00000

 Dipole moment (field-independent basis, Debye):
    X=             -2.9053    Y=             -0.7051    Z=             11.5989  Tot=             11.9780
 Quadrupole moment (field-independent basis, Debye-Ang):
   XX=           -121.9024   YY=           -176.0532   ZZ=           -111.4101
   XY=              7.4446   XZ=             -1.8138   YZ=            -29.7788

 Normal termination of Gaussian 16 at Tue May 24 03:11:46 2022.
