 Gaussian 16, Revision C.01,
 Gaussian 16:  ES64L-G16RevC.01  3-Jul-2019

 -------------------------------------------------------------------
 # B3LYP/6-31G* guess=read geom=check nosymm integral(ultrafinegrid)
 -------------------------------------------------------------------

 -----------------------------------------------------
 Candidate Structure: Conf:95 Charge calc in gas phase
 -----------------------------------------------------
 Structure from the checkpoint file:  "conf-95.chk"
 Charge =  1 Multiplicity = 1

                          Input orientation:
 ---------------------------------------------------------------------
 Center     Atomic      Atomic             Coordinates (Angstroms)
 Number     Number       Type             X           Y           Z
 ---------------------------------------------------------------------
      1          7           0        0.185574   -1.809846    3.153311
      2          1           0        0.511528   -0.882073    2.774068
      3          1           0        0.147463   -1.826240    4.184162
      4          1           0        0.848447   -2.511884    2.805588
      5          6           0       -1.195073   -2.085948    2.574159
      6          1           0       -1.862578   -1.391845    3.091207
      7          6           0       -0.973032   -1.711183    1.089891
      8          6           0       -1.629780   -3.539788    2.771632
      9          1           0       -1.091320   -4.160120    2.047233
     10          1           0       -2.691359   -3.589475    2.504975
     11          8           0       -0.220611   -2.412639    0.430293
     12          6           0       -1.428358   -4.139028    4.185042
     13          1           0       -0.364923   -4.315441    4.383146
     14          1           0       -1.932443   -5.107038    4.221761
     15          6           0       -1.998382   -3.287213    5.301678
     16          8           0       -3.068069   -3.407827    5.832933
     17          8           0       -1.119074   -2.278447    5.645078
     18          7           0       -1.519319   -0.530875    0.686138
     19          1           0       -2.040073   -0.029554    1.395071
     20          6           0       -0.785853    0.343005   -0.236661
     21          1           0       -1.393694    1.249965   -0.325607
     22          6           0        0.544836    0.759732    0.466396
     23          6           0       -0.634112   -0.263462   -1.659576
     24          1           0        0.122513   -1.050330   -1.639669
     25          1           0       -1.588968   -0.757138   -1.876723
     26          8           0        0.818985    0.375289    1.618808
     27          6           0       -0.322844    0.752390   -2.742704
     28          6           0       -1.233095    1.774517   -3.067531
     29          1           0       -2.177938    1.849066   -2.532149
     30          6           0        0.862938    0.675119   -3.485376
     31          1           0        1.579565   -0.114571   -3.272120
     32          6           0       -0.970309    2.687477   -4.080717
     33          1           0       -1.678880    3.469430   -4.333433
     34          6           0        1.141136    1.582711   -4.508496
     35          1           0        2.065318    1.495930   -5.075904
     36          8           0        0.424070    3.515726   -5.789250
     37          1           0        1.258493    3.332819   -6.249591
     38          6           0        0.223847    2.595049   -4.810144
     39          7           0        1.334777    1.590560   -0.225096
     40          1           0        1.054261    1.860077   -1.163552
     41          6           0        2.590392    2.148272    0.291332
     42          1           0        2.715360    1.770589    1.305713
     43          6           0        2.474324    3.668953    0.399603
     44          6           0        3.786517    1.732870   -0.591501
     45          1           0        3.811258    0.635173   -0.607696
     46          1           0        3.595683    2.062115   -1.621477
     47          8           0        2.777728    4.318329    1.369273
     48          6           0        5.130469    2.289015   -0.103968
     49          1           0        5.285512    2.004173    0.946634
     50          1           0        5.128103    3.384119   -0.128417
     51          6           0        6.314208    1.792666   -0.943763
     52          1           0        6.426108    0.704634   -0.836968
     53          1           0        6.112586    1.977455   -2.010087
     54          6           0        7.638117    2.470378   -0.566063
     55          1           0        7.816220    2.337671    0.508708
     56          1           0        8.464206    1.955832   -1.086758
     57          7           0        7.575268    3.913040   -0.830887
     58          1           0        7.658150    4.082522   -1.832700
     59          1           0        8.369319    4.382687   -0.400384
     60          8           0        2.008601    4.205744   -0.754585
     61          1           0        1.987363    5.174512   -0.632784
     62          1           0       -1.526528   -1.775836    6.378236
 ---------------------------------------------------------------------

 SCF Done:  E(RB3LYP) =  -1526.20652051     A.U. after    1 cycles

 Alpha  occ. eigenvalues --  -19.33388 -19.28794 -19.26984 -19.26196 -19.26181
 Alpha  occ. eigenvalues --  -19.25277 -19.22981 -14.58591 -14.49874 -14.48231
 Alpha  occ. eigenvalues --  -14.37305 -10.45114 -10.43426 -10.41954 -10.41050
 Alpha  occ. eigenvalues --  -10.40552 -10.36580 -10.34434 -10.33901 -10.33859
 Alpha  occ. eigenvalues --  -10.33625 -10.29977 -10.28766 -10.28546 -10.28455
 Alpha  occ. eigenvalues --  -10.28002 -10.27933 -10.27432 -10.27021 -10.25453
 Alpha  occ. eigenvalues --  -10.25087  -1.23349  -1.19553  -1.18766  -1.16223
 Alpha  occ. eigenvalues --   -1.14794  -1.14424  -1.13197  -1.10677  -1.06470
 Alpha  occ. eigenvalues --   -1.04678  -0.95075  -0.94685  -0.94063  -0.90893
 Alpha  occ. eigenvalues --   -0.88840  -0.87326  -0.84155  -0.83870  -0.82648
 Alpha  occ. eigenvalues --   -0.79245  -0.77367  -0.76508  -0.74353  -0.73112
 Alpha  occ. eigenvalues --   -0.72700  -0.71723  -0.71412  -0.70772  -0.69804
 Alpha  occ. eigenvalues --   -0.68970  -0.67673  -0.66009  -0.64929  -0.64199
 Alpha  occ. eigenvalues --   -0.63675  -0.63130  -0.61307  -0.60901  -0.60516
 Alpha  occ. eigenvalues --   -0.59433  -0.58098  -0.57641  -0.57329  -0.57048
 Alpha  occ. eigenvalues --   -0.56423  -0.56132  -0.55806  -0.55201  -0.54897
 Alpha  occ. eigenvalues --   -0.54403  -0.53911  -0.53505  -0.53014  -0.52338
 Alpha  occ. eigenvalues --   -0.51848  -0.51189  -0.50886  -0.50484  -0.50264
 Alpha  occ. eigenvalues --   -0.50070  -0.49429  -0.49261  -0.48795  -0.48712
 Alpha  occ. eigenvalues --   -0.47799  -0.47092  -0.46281  -0.45230  -0.44963
 Alpha  occ. eigenvalues --   -0.44770  -0.43278  -0.42576  -0.42006  -0.41836
 Alpha  occ. eigenvalues --   -0.40999  -0.40608  -0.40362  -0.40225  -0.40033
 Alpha  occ. eigenvalues --   -0.39575  -0.39118  -0.38285  -0.35283  -0.34335
 Alpha  occ. eigenvalues --   -0.30800  -0.29532
 Alpha virt. eigenvalues --   -0.13903  -0.12408  -0.10933  -0.09393  -0.08678
 Alpha virt. eigenvalues --   -0.08371  -0.07745  -0.06493  -0.05053  -0.01654
 Alpha virt. eigenvalues --   -0.01467  -0.00911  -0.00368  -0.00086   0.00277

 Mulliken charges:
               1
     1  N   -0.778374
     2  H    0.454864
     3  H    0.428588
     4  H    0.408996
     5  C   -0.107185
     6  H    0.195562
     7  C    0.607798
     8  C   -0.298922
     9  H    0.211838
    10  H    0.207940
    11  O   -0.489778
    12  C   -0.371452
    13  H    0.176318
    14  H    0.227455
    15  C    0.581158
    16  O   -0.399847
    17  O   -0.608430
    18  N   -0.565644
    19  H    0.343934
    20  C   -0.104597
    21  H    0.193491
    22  C    0.649217
    23  C   -0.346546
    24  H    0.192725
    25  H    0.186651
    26  O   -0.590880
    27  C    0.107928
    28  C   -0.186926
    29  H    0.135290
    30  C   -0.202906
    31  H    0.144397
    32  C   -0.151445
    33  H    0.163855
    34  C   -0.186126
    35  H    0.141209
    36  O   -0.625529
    37  H    0.418673
    38  C    0.358468
    39  N   -0.598257
    40  H    0.377484
    41  C   -0.057175
    42  H    0.200092
    43  C    0.595834
    44  C   -0.274568
    45  H    0.147946
    46  H    0.154554
    47  O   -0.438662
    48  C   -0.268028
    49  H    0.136894
    50  H    0.186834
    51  C   -0.252825
    52  H    0.131190
    53  H    0.127450
    54  C   -0.144202
    55  H    0.143573
    56  H    0.127861
    57  N   -0.716433
    58  H    0.297191
    59  H    0.308657
    60  O   -0.572431
    61  H    0.427461
    62  H    0.437791
 Sum of Mulliken charges =   1.00000

 Dipole moment (field-independent basis, Debye):
    X=              2.8763    Y=             -2.6040    Z=              5.6477  Tot=              6.8520
 Quadrupole moment (field-independent basis, Debye-Ang):
   XX=           -135.9437   YY=           -151.2370   ZZ=           -116.6122
   XY=             10.8837   XZ=            -22.1601   YZ=            -41.7883

 Normal termination of Gaussian 16 at Tue May 24 03:11:31 2022.
