 Gaussian 16, Revision C.01,
 Gaussian 16:  ES64L-G16RevC.01  3-Jul-2019

 -------------------------------------------------------------------
 # B3LYP/6-31G* guess=read geom=check nosymm integral(ultrafinegrid)
 -------------------------------------------------------------------

 ------------------------------------------------------
 Candidate Structure: Conf:126 Charge calc in gas phase
 ------------------------------------------------------
 Structure from the checkpoint file:  "conf-126.chk"
 Charge =  1 Multiplicity = 1

                          Input orientation:
 ---------------------------------------------------------------------
 Center     Atomic      Atomic             Coordinates (Angstroms)
 Number     Number       Type             X           Y           Z
 ---------------------------------------------------------------------
      1          7           0        0.651410   -1.924990    3.006353
      2          1           0        0.885128   -0.964029    2.630013
      3          1           0        0.738512   -1.968002    4.026211
      4          1           0        1.326964   -2.572056    2.580343
      5          6           0       -0.742095   -2.292814    2.502888
      6          1           0       -1.436961   -1.646476    3.047205
      7          6           0       -0.595176   -1.900733    1.012731
      8          6           0       -1.033288   -3.770197    2.743159
      9          1           0       -0.910232   -3.996465    3.810152
     10          1           0       -0.307328   -4.371208    2.186572
     11          8           0        0.211589   -2.527686    0.341500
     12          6           0       -2.456380   -4.140619    2.293719
     13          1           0       -2.559038   -3.973344    1.212946
     14          1           0       -3.214019   -3.530998    2.794466
     15          6           0       -2.824007   -5.593328    2.557078
     16          8           0       -3.911353   -5.967169    2.919861
     17          8           0       -1.785179   -6.424653    2.306785
     18          7           0       -1.259629   -0.780157    0.618459
     19          1           0       -1.819874   -0.333442    1.333915
     20          6           0       -0.624887    0.160937   -0.312094
     21          1           0       -1.314080    1.008943   -0.386302
     22          6           0        0.675544    0.694257    0.369214
     23          6           0       -0.443240   -0.424884   -1.740559
     24          1           0        0.366643   -1.156997   -1.730784
     25          1           0       -1.363639   -0.982619   -1.951841
     26          8           0        1.018269    0.320938    1.508710
     27          6           0       -0.211120    0.615737   -2.819710
     28          6           0       -1.189467    1.577713   -3.129976
     29          1           0       -2.133593    1.585539   -2.588165
     30          6           0        0.971753    0.622340   -3.571275
     31          1           0        1.740503   -0.119856   -3.369261
     32          6           0       -0.994096    2.514498   -4.136828
     33          1           0       -1.754492    3.249912   -4.378411
     34          6           0        1.182365    1.554184   -4.588264
     35          1           0        2.106435    1.533366   -5.161968
     36          8           0        0.331913    3.448397   -5.844870
     37          1           0        1.172869    3.324850   -6.313195
     38          6           0        0.198701    2.507217   -4.874378
     39          7           0        1.358175    1.613033   -0.321860
     40          1           0        1.037551    1.859992   -1.253900
     41          6           0        2.574813    2.270449    0.167580
     42          1           0        2.670205    2.029754    1.226446
     43          6           0        2.428263    3.786992    0.065820
     44          6           0        3.822247    1.778636   -0.604329
     45          1           0        3.854800    0.686733   -0.496238
     46          1           0        3.679239    1.987881   -1.672475
     47          8           0        2.835253    4.571625    0.886504
     48          6           0        5.142985    2.393182   -0.122095
     49          1           0        5.260309    2.209827    0.956158
     50          1           0        5.112033    3.481008   -0.252537
     51          6           0        6.353416    1.833556   -0.880576
     52          1           0        6.406887    0.744304   -0.739669
     53          1           0        6.223472    2.017597   -1.954894
     54          6           0        7.686986    2.455988   -0.447410
     55          1           0        7.887102    2.192435    0.607331
     56          1           0        8.487610    1.997737   -1.038750
     57          7           0        7.707992    3.900612   -0.710305
     58          1           0        8.668911    4.235264   -0.730454
     59          1           0        7.256466    4.405552    0.049798
     60          8           0        1.827693    4.148310   -1.093495
     61          1           0        1.802380    5.124428   -1.115365
     62          1           0       -2.105539   -7.333837    2.465531
 ---------------------------------------------------------------------

 SCF Done:  E(RB3LYP) =  -1526.19862644     A.U. after    1 cycles

 Alpha  occ. eigenvalues --  -19.29520 -19.29406 -19.26738 -19.26369 -19.25911
 Alpha  occ. eigenvalues --  -19.23616 -19.23510 -14.60125 -14.50412 -14.48713
 Alpha  occ. eigenvalues --  -14.37189 -10.43956 -10.42520 -10.42146 -10.41782
 Alpha  occ. eigenvalues --  -10.41120 -10.37063 -10.34304 -10.34103 -10.33960
 Alpha  occ. eigenvalues --  -10.32350 -10.30337 -10.29007 -10.28758 -10.28696
 Alpha  occ. eigenvalues --  -10.28624 -10.28113 -10.27643 -10.27040 -10.26320
 Alpha  occ. eigenvalues --  -10.24982  -1.20269  -1.20187  -1.19439  -1.16780
 Alpha  occ. eigenvalues --   -1.14604  -1.14306  -1.11372  -1.11299  -1.07007
 Alpha  occ. eigenvalues --   -1.05234  -0.95271  -0.94768  -0.94000  -0.91162
 Alpha  occ. eigenvalues --   -0.89010  -0.86795  -0.84544  -0.84096  -0.82928
 Alpha  occ. eigenvalues --   -0.78874  -0.77789  -0.76585  -0.74764  -0.73254
 Alpha  occ. eigenvalues --   -0.72679  -0.71943  -0.71384  -0.71058  -0.69934
 Alpha  occ. eigenvalues --   -0.69437  -0.68059  -0.66885  -0.64913  -0.64144
 Alpha  occ. eigenvalues --   -0.63785  -0.63482  -0.61295  -0.60664  -0.58797
 Alpha  occ. eigenvalues --   -0.58370  -0.57932  -0.57512  -0.57139  -0.56818
 Alpha  occ. eigenvalues --   -0.56805  -0.55923  -0.55586  -0.55262  -0.54977
 Alpha  occ. eigenvalues --   -0.54583  -0.54213  -0.53504  -0.53108  -0.52834
 Alpha  occ. eigenvalues --   -0.51442  -0.50851  -0.50756  -0.50495  -0.49897
 Alpha  occ. eigenvalues --   -0.49307  -0.49052  -0.48811  -0.48677  -0.48348
 Alpha  occ. eigenvalues --   -0.48037  -0.47211  -0.46573  -0.45608  -0.45209
 Alpha  occ. eigenvalues --   -0.44341  -0.42788  -0.42245  -0.41827  -0.41612
 Alpha  occ. eigenvalues --   -0.41427  -0.41147  -0.40676  -0.40315  -0.40125
 Alpha  occ. eigenvalues --   -0.39509  -0.38658  -0.37106  -0.35914  -0.34555
 Alpha  occ. eigenvalues --   -0.31012  -0.29521
 Alpha virt. eigenvalues --   -0.14662  -0.11438  -0.10306  -0.09621  -0.09000
 Alpha virt. eigenvalues --   -0.08617  -0.08311  -0.07004  -0.04755  -0.02864
 Alpha virt. eigenvalues --   -0.02159  -0.01402  -0.00995  -0.00378  -0.00028

 Mulliken charges:
               1
     1  N   -0.761437
     2  H    0.458698
     3  H    0.409676
     4  H    0.417088
     5  C   -0.111415
     6  H    0.195099
     7  C    0.607610
     8  C   -0.279656
     9  H    0.171002
    10  H    0.209856
    11  O   -0.489526
    12  C   -0.369106
    13  H    0.205519
    14  H    0.189432
    15  C    0.582609
    16  O   -0.428334
    17  O   -0.562541
    18  N   -0.565441
    19  H    0.345874
    20  C   -0.105843
    21  H    0.194762
    22  C    0.652147
    23  C   -0.346334
    24  H    0.193764
    25  H    0.186265
    26  O   -0.597414
    27  C    0.105718
    28  C   -0.187596
    29  H    0.135441
    30  C   -0.201449
    31  H    0.144782
    32  C   -0.151587
    33  H    0.164380
    34  C   -0.185479
    35  H    0.143683
    36  O   -0.625297
    37  H    0.419680
    38  C    0.358446
    39  N   -0.597427
    40  H    0.382751
    41  C   -0.060457
    42  H    0.200867
    43  C    0.596307
    44  C   -0.270544
    45  H    0.150424
    46  H    0.158218
    47  O   -0.439686
    48  C   -0.278364
    49  H    0.136529
    50  H    0.166957
    51  C   -0.235185
    52  H    0.123748
    53  H    0.145523
    54  C   -0.149148
    55  H    0.119449
    56  H    0.149223
    57  N   -0.719758
    58  H    0.308981
    59  H    0.301366
    60  O   -0.572642
    61  H    0.429960
    62  H    0.429833
 Sum of Mulliken charges =   1.00000

 Dipole moment (field-independent basis, Debye):
    X=              4.0471    Y=             -3.2149    Z=              5.6632  Tot=              7.6673
 Quadrupole moment (field-independent basis, Debye-Ang):
   XX=           -149.2320   YY=           -143.5684   ZZ=           -127.9440
   XY=              3.4902   XZ=             -3.0647   YZ=            -35.8835

 Normal termination of Gaussian 16 at Tue May 24 03:11:31 2022.
