 Gaussian 16, Revision C.01,
 Gaussian 16:  ES64L-G16RevC.01  3-Jul-2019

 -------------------------------------------------------------------
 # B3LYP/6-31G* guess=read geom=check nosymm integral(ultrafinegrid)
 -------------------------------------------------------------------

 ------------------------------------------------------
 Candidate Structure: Conf:474 Charge calc in gas phase
 ------------------------------------------------------
 Structure from the checkpoint file:  "conf-474.chk"
 Charge =  1 Multiplicity = 1

                          Input orientation:
 ---------------------------------------------------------------------
 Center     Atomic      Atomic             Coordinates (Angstroms)
 Number     Number       Type             X           Y           Z
 ---------------------------------------------------------------------
      1          7           0       -0.382052   -2.138330    3.018395
      2          1           0        0.157247   -1.286385    2.712203
      3          1           0       -0.204748   -2.365869    4.000806
      4          1           0       -0.062387   -2.911752    2.420304
      5          6           0       -1.853044   -1.876236    2.704370
      6          1           0       -2.162757   -1.077350    3.384343
      7          6           0       -1.726933   -1.405642    1.235170
      8          6           0       -2.705361   -3.130358    2.877148
      9          1           0       -2.356298   -3.900067    2.180965
     10          1           0       -3.720967   -2.863449    2.559927
     11          8           0       -1.249433   -2.197353    0.434965
     12          6           0       -2.749940   -3.671803    4.318898
     13          1           0       -3.107931   -2.912927    5.019971
     14          1           0       -1.754894   -4.005133    4.645374
     15          6           0       -3.684625   -4.867666    4.442814
     16          8           0       -4.664684   -4.909684    5.143005
     17          8           0       -3.270584   -5.883818    3.651057
     18          7           0       -2.023257   -0.099234    0.986906
     19          1           0       -2.323187    0.431632    1.795619
     20          6           0       -1.182917    0.673092    0.061182
     21          1           0       -1.550717    1.702988    0.123793
     22          6           0        0.262085    0.686883    0.650511
     23          6           0       -1.326629    0.203829   -1.410174
     24          1           0       -0.904629   -0.797849   -1.507567
     25          1           0       -2.405685    0.104435   -1.583484
     26          8           0        0.548139    0.067970    1.693659
     27          6           0       -0.713751    1.131992   -2.441130
     28          6           0        0.226326    0.639957   -3.360926
     29          1           0        0.525144   -0.404221   -3.311474
     30          6           0       -1.090473    2.479405   -2.549876
     31          1           0       -1.842296    2.894576   -1.881118
     32          6           0        0.777474    1.453476   -4.344953
     33          1           0        1.496475    1.065314   -5.059070
     34          6           0       -0.534809    3.313451   -3.520511
     35          1           0       -0.842377    4.354878   -3.584124
     36          8           0        1.002629    3.553006   -5.386321
     37          1           0        0.677710    4.466964   -5.349964
     38          6           0        0.405263    2.801704   -4.423569
     39          7           0        1.165677    1.460281    0.038399
     40          1           0        0.895535    1.965215   -0.798731
     41          6           0        2.499440    1.675054    0.606590
     42          1           0        3.003056    0.709497    0.710005
     43          6           0        2.434055    2.261084    2.019702
     44          6           0        3.339058    2.610164   -0.286992
     45          1           0        2.792026    3.552755   -0.414649
     46          1           0        4.249448    2.852173    0.274098
     47          8           0        3.246942    2.023244    2.879380
     48          6           0        3.732540    2.003418   -1.643303
     49          1           0        2.836576    1.761600   -2.231046
     50          1           0        4.247110    1.050355   -1.461122
     51          6           0        4.647344    2.919633   -2.477244
     52          1           0        5.532849    3.191375   -1.883742
     53          1           0        5.019625    2.347611   -3.338082
     54          6           0        3.971641    4.201965   -3.001291
     55          1           0        3.089957    3.927666   -3.595110
     56          1           0        3.605872    4.806913   -2.161250
     57          7           0        4.802133    5.074332   -3.830673
     58          1           0        5.145398    4.561696   -4.641967
     59          1           0        5.627959    5.371729   -3.312674
     60          8           0        1.416055    3.141660    2.172920
     61          1           0        1.514716    3.516835    3.069153
     62          1           0       -3.905315   -6.617388    3.767263
 ---------------------------------------------------------------------

 SCF Done:  E(RB3LYP) =  -1526.19686958     A.U. after    1 cycles

 Alpha  occ. eigenvalues --  -19.29914 -19.29487 -19.26829 -19.26756 -19.26165
 Alpha  occ. eigenvalues --  -19.24245 -19.23476 -14.60166 -14.50401 -14.48876
 Alpha  occ. eigenvalues --  -14.37340 -10.44093 -10.42776 -10.42528 -10.41753
 Alpha  occ. eigenvalues --  -10.41272 -10.37250 -10.34622 -10.34441 -10.34304
 Alpha  occ. eigenvalues --  -10.33280 -10.30408 -10.29343 -10.29279 -10.29066
 Alpha  occ. eigenvalues --  -10.28759 -10.28622 -10.27867 -10.27365 -10.27259
 Alpha  occ. eigenvalues --  -10.25603  -1.20753  -1.20306  -1.19569  -1.17065
 Alpha  occ. eigenvalues --   -1.14918  -1.14357  -1.11965  -1.11266  -1.07064
 Alpha  occ. eigenvalues --   -1.05294  -0.95501  -0.95005  -0.94261  -0.91436
 Alpha  occ. eigenvalues --   -0.89454  -0.87489  -0.84861  -0.84435  -0.83281
 Alpha  occ. eigenvalues --   -0.78797  -0.77559  -0.76819  -0.75024  -0.73958
 Alpha  occ. eigenvalues --   -0.72411  -0.71941  -0.71604  -0.71526  -0.70590
 Alpha  occ. eigenvalues --   -0.70038  -0.68310  -0.66920  -0.65832  -0.64152
 Alpha  occ. eigenvalues --   -0.63988  -0.63530  -0.61954  -0.60609  -0.60047
 Alpha  occ. eigenvalues --   -0.58751  -0.58430  -0.57750  -0.57364  -0.56958
 Alpha  occ. eigenvalues --   -0.56643  -0.56312  -0.56004  -0.55403  -0.54960
 Alpha  occ. eigenvalues --   -0.54734  -0.54307  -0.53898  -0.53300  -0.52870
 Alpha  occ. eigenvalues --   -0.52024  -0.51598  -0.51129  -0.50469  -0.49913
 Alpha  occ. eigenvalues --   -0.49782  -0.49477  -0.49217  -0.48892  -0.48721
 Alpha  occ. eigenvalues --   -0.48354  -0.47382  -0.46513  -0.46341  -0.45644
 Alpha  occ. eigenvalues --   -0.44223  -0.43537  -0.43108  -0.42303  -0.42061
 Alpha  occ. eigenvalues --   -0.41578  -0.41278  -0.41129  -0.40389  -0.40234
 Alpha  occ. eigenvalues --   -0.39830  -0.39133  -0.37683  -0.36347  -0.34911
 Alpha  occ. eigenvalues --   -0.31356  -0.29421
 Alpha virt. eigenvalues --   -0.14663  -0.11773  -0.11026  -0.10098  -0.08950
 Alpha virt. eigenvalues --   -0.08727  -0.08393  -0.06929  -0.04580  -0.02598
 Alpha virt. eigenvalues --   -0.02531  -0.02218  -0.01427  -0.01048  -0.00593

 Mulliken charges:
               1
     1  N   -0.757705
     2  H    0.460335
     3  H    0.410299
     4  H    0.418296
     5  C   -0.114149
     6  H    0.195695
     7  C    0.617482
     8  C   -0.288581
     9  H    0.212357
    10  H    0.204890
    11  O   -0.491485
    12  C   -0.365315
    13  H    0.194686
    14  H    0.162029
    15  C    0.576208
    16  O   -0.419991
    17  O   -0.559555
    18  N   -0.565359
    19  H    0.345462
    20  C   -0.115963
    21  H    0.193570
    22  C    0.672069
    23  C   -0.345888
    24  H    0.198768
    25  H    0.186992
    26  O   -0.598437
    27  C    0.121320
    28  C   -0.191528
    29  H    0.147841
    30  C   -0.209312
    31  H    0.137732
    32  C   -0.156864
    33  H    0.165754
    34  C   -0.186856
    35  H    0.147043
    36  O   -0.630651
    37  H    0.423305
    38  C    0.366970
    39  N   -0.607979
    40  H    0.371017
    41  C    0.000613
    42  H    0.191027
    43  C    0.585838
    44  C   -0.322735
    45  H    0.164465
    46  H    0.183634
    47  O   -0.449877
    48  C   -0.280976
    49  H    0.144030
    50  H    0.146066
    51  C   -0.266306
    52  H    0.135553
    53  H    0.140200
    54  C   -0.156673
    55  H    0.148441
    56  H    0.137239
    57  N   -0.703352
    58  H    0.300217
    59  H    0.299021
    60  O   -0.574963
    61  H    0.421843
    62  H    0.432195
 Sum of Mulliken charges =   1.00000

 Dipole moment (field-independent basis, Debye):
    X=             -2.3085    Y=             -1.5408    Z=              6.7296  Tot=              7.2795
 Quadrupole moment (field-independent basis, Debye-Ang):
   XX=           -162.1156   YY=           -129.2976   ZZ=           -140.2833
   XY=              8.9039   XZ=            -15.7775   YZ=            -31.0105

 Normal termination of Gaussian 16 at Tue May 24 03:11:34 2022.
