 Gaussian 16, Revision C.01,
 Gaussian 16:  ES64L-G16RevC.01  3-Jul-2019

 -------------------------------------------------------------------
 # B3LYP/6-31G* guess=read geom=check nosymm integral(ultrafinegrid)
 -------------------------------------------------------------------

 ------------------------------------------------------
 Candidate Structure: Conf:472 Charge calc in gas phase
 ------------------------------------------------------
 Structure from the checkpoint file:  "conf-472.chk"
 Charge =  1 Multiplicity = 1

                          Input orientation:
 ---------------------------------------------------------------------
 Center     Atomic      Atomic             Coordinates (Angstroms)
 Number     Number       Type             X           Y           Z
 ---------------------------------------------------------------------
      1          7           0        1.056146   -1.732660    2.601781
      2          1           0        1.218719   -0.770406    2.189210
      3          1           0        1.280591   -1.766198    3.600700
      4          1           0        1.679687   -2.371127    2.091845
      5          6           0       -0.385186   -2.130349    2.292838
      6          1           0       -1.013010   -1.492719    2.922464
      7          6           0       -0.442847   -1.746432    0.794549
      8          6           0       -0.613954   -3.610367    2.577773
      9          1           0       -0.327532   -3.841754    3.609522
     10          1           0        0.030329   -4.193643    1.909330
     11          8           0        0.278689   -2.367028    0.027132
     12          6           0       -2.084182   -4.002730    2.356164
     13          1           0       -2.401045   -3.812618    1.327240
     14          1           0       -2.734822   -3.413460    3.017462
     15          6           0       -2.375006   -5.469364    2.638224
     16          8           0       -3.117315   -6.158051    1.984683
     17          8           0       -1.719138   -5.904837    3.741507
     18          7           0       -1.164472   -0.635204    0.487701
     19          1           0       -1.634072   -0.191621    1.267319
     20          6           0       -0.673158    0.305288   -0.526615
     21          1           0       -1.380636    1.141124   -0.518349
     22          6           0        0.695800    0.864799   -0.027789
     23          6           0       -0.668616   -0.291479   -1.962301
     24          1           0        0.163973   -0.990737   -2.062260
     25          1           0       -1.585668   -0.888061   -2.038675
     26          8           0        1.196843    0.510290    1.060481
     27          6           0       -0.633468    0.747610   -3.066063
     28          6           0       -1.692625    1.655826   -3.244126
     29          1           0       -2.554992    1.620170   -2.580533
     30          6           0        0.436194    0.806519   -3.968749
     31          1           0        1.261640    0.105114   -3.870422
     32          6           0       -1.681484    2.592596   -4.268990
     33          1           0       -2.502413    3.288549   -4.406807
     34          6           0        0.461459    1.739626   -5.005195
     35          1           0        1.302052    1.763393   -5.695223
     36          8           0       -0.643658    3.577615   -6.139787
     37          1           0        0.149470    3.512549   -6.694978
     38          6           0       -0.597667    2.640312   -5.157556
     39          7           0        1.269387    1.786763   -0.802478
     40          1           0        0.844124    2.051764   -1.689571
     41          6           0        2.523910    2.461851   -0.463049
     42          1           0        2.551486    2.620301    0.618243
     43          6           0        2.479778    3.809921   -1.175855
     44          6           0        3.750411    1.615442   -0.892667
     45          1           0        3.604180    0.621235   -0.453233
     46          1           0        3.717524    1.488716   -1.982405
     47          8           0        1.830062    4.018345   -2.177188
     48          6           0        5.114490    2.169582   -0.460910
     49          1           0        5.111144    2.346054    0.624308
     50          1           0        5.287387    3.147381   -0.925762
     51          6           0        6.262487    1.220910   -0.830261
     52          1           0        6.112002    0.250562   -0.332202
     53          1           0        6.257403    1.017119   -1.908389
     54          6           0        7.642033    1.770866   -0.455514
     55          1           0        7.802969    2.719418   -0.983357
     56          1           0        7.658151    2.009135    0.625091
     57          7           0        8.691732    0.843087   -0.883750
     58          1           0        8.685468    0.013251   -0.291927
     59          1           0        9.607548    1.270246   -0.758575
     60          8           0        3.258708    4.725651   -0.577785
     61          1           0        3.209108    5.542728   -1.112093
     62          1           0       -1.976758   -6.838064    3.872454
 ---------------------------------------------------------------------

 SCF Done:  E(RB3LYP) =  -1526.20141222     A.U. after    2 cycles

 Alpha  occ. eigenvalues --  -19.30050 -19.29425 -19.26537 -19.25780 -19.25572
 Alpha  occ. eigenvalues --  -19.24458 -19.23496 -14.60029 -14.50223 -14.48328
 Alpha  occ. eigenvalues --  -14.37305 -10.43757 -10.42540 -10.42263 -10.42118
 Alpha  occ. eigenvalues --  -10.41019 -10.36726 -10.34732 -10.33843 -10.33268
 Alpha  occ. eigenvalues --  -10.32303 -10.29850 -10.28882 -10.28243 -10.27974
 Alpha  occ. eigenvalues --  -10.27913 -10.27333 -10.27277 -10.26839 -10.26833
 Alpha  occ. eigenvalues --  -10.25429  -1.21072  -1.20167  -1.19267  -1.16599
 Alpha  occ. eigenvalues --   -1.14189  -1.13807  -1.12204  -1.11287  -1.06815
 Alpha  occ. eigenvalues --   -1.04910  -0.94996  -0.94240  -0.94173  -0.91017
 Alpha  occ. eigenvalues --   -0.89008  -0.86616  -0.84767  -0.83350  -0.82673
 Alpha  occ. eigenvalues --   -0.78670  -0.77942  -0.76339  -0.74719  -0.74021
 Alpha  occ. eigenvalues --   -0.72365  -0.71536  -0.71049  -0.70611  -0.69914
 Alpha  occ. eigenvalues --   -0.68542  -0.67567  -0.66627  -0.65889  -0.64120
 Alpha  occ. eigenvalues --   -0.63990  -0.62731  -0.60748  -0.59613  -0.59366
 Alpha  occ. eigenvalues --   -0.58909  -0.58062  -0.57415  -0.57120  -0.56945
 Alpha  occ. eigenvalues --   -0.56670  -0.56056  -0.55572  -0.55095  -0.54841
 Alpha  occ. eigenvalues --   -0.54695  -0.54054  -0.53346  -0.52447  -0.52172
 Alpha  occ. eigenvalues --   -0.51522  -0.50860  -0.50749  -0.50389  -0.49909
 Alpha  occ. eigenvalues --   -0.49770  -0.49027  -0.48862  -0.48342  -0.47978
 Alpha  occ. eigenvalues --   -0.47957  -0.47797  -0.45947  -0.45604  -0.44544
 Alpha  occ. eigenvalues --   -0.43603  -0.43003  -0.42058  -0.41610  -0.41531
 Alpha  occ. eigenvalues --   -0.41441  -0.41290  -0.40937  -0.40356  -0.39978
 Alpha  occ. eigenvalues --   -0.38964  -0.38277  -0.37547  -0.37069  -0.33726
 Alpha  occ. eigenvalues --   -0.30195  -0.29542
 Alpha virt. eigenvalues --   -0.14442  -0.11271  -0.10114  -0.09375  -0.08932
 Alpha virt. eigenvalues --   -0.08756  -0.07759  -0.06841  -0.04678  -0.02788
 Alpha virt. eigenvalues --   -0.01824  -0.01283  -0.00453  -0.00078   0.00172

 Mulliken charges:
               1
     1  N   -0.761883
     2  H    0.457268
     3  H    0.408431
     4  H    0.416498
     5  C   -0.112031
     6  H    0.192313
     7  C    0.610321
     8  C   -0.281658
     9  H    0.186229
    10  H    0.196422
    11  O   -0.489462
    12  C   -0.369285
    13  H    0.205207
    14  H    0.188977
    15  C    0.584684
    16  O   -0.425704
    17  O   -0.566652
    18  N   -0.565653
    19  H    0.344632
    20  C   -0.103843
    21  H    0.195515
    22  C    0.656737
    23  C   -0.347928
    24  H    0.191664
    25  H    0.186245
    26  O   -0.605802
    27  C    0.111420
    28  C   -0.188107
    29  H    0.131586
    30  C   -0.202444
    31  H    0.140542
    32  C   -0.148622
    33  H    0.162176
    34  C   -0.176032
    35  H    0.140170
    36  O   -0.626156
    37  H    0.418361
    38  C    0.362880
    39  N   -0.608090
    40  H    0.390746
    41  C   -0.037047
    42  H    0.192859
    43  C    0.584977
    44  C   -0.267376
    45  H    0.152588
    46  H    0.159057
    47  O   -0.452731
    48  C   -0.269149
    49  H    0.137737
    50  H    0.154480
    51  C   -0.247028
    52  H    0.119212
    53  H    0.156095
    54  C   -0.136663
    55  H    0.145495
    56  H    0.113983
    57  N   -0.714299
    58  H    0.293710
    59  H    0.306632
    60  O   -0.552038
    61  H    0.429964
    62  H    0.429872
 Sum of Mulliken charges =   1.00000

 Dipole moment (field-independent basis, Debye):
    X=              5.6019    Y=             -0.7924    Z=              7.9754  Tot=              9.7783
 Quadrupole moment (field-independent basis, Debye-Ang):
   XX=           -144.1979   YY=           -143.1624   ZZ=           -125.7079
   XY=              9.8983   XZ=             -0.8127   YZ=            -41.0942

 Normal termination of Gaussian 16 at Tue May 24 03:11:45 2022.
