 Gaussian 16, Revision C.01,
 Gaussian 16:  ES64L-G16RevC.01  3-Jul-2019

 -------------------------------------------------------------------
 # B3LYP/6-31G* guess=read geom=check nosymm integral(ultrafinegrid)
 -------------------------------------------------------------------

 ------------------------------------------------------
 Candidate Structure: Conf:123 Charge calc in gas phase
 ------------------------------------------------------
 Structure from the checkpoint file:  "conf-123.chk"
 Charge =  1 Multiplicity = 1

                          Input orientation:
 ---------------------------------------------------------------------
 Center     Atomic      Atomic             Coordinates (Angstroms)
 Number     Number       Type             X           Y           Z
 ---------------------------------------------------------------------
      1          7           0        0.172918   -2.798933    3.312271
      2          1           0        0.536419   -1.822667    3.150461
      3          1           0        0.155437   -3.037626    4.307765
      4          1           0        0.815387   -3.429479    2.815064
      5          6           0       -1.194044   -2.891637    2.634562
      6          1           0       -1.852571   -2.235821    3.211798
      7          6           0       -0.832069   -2.311905    1.246788
      8          6           0       -1.716421   -4.321957    2.588188
      9          1           0       -1.040492   -4.928977    1.975332
     10          1           0       -2.669816   -4.306500    2.049078
     11          8           0        0.021223   -2.901535    0.598437
     12          6           0       -1.941835   -4.965813    3.960897
     13          1           0       -2.516743   -4.304478    4.624825
     14          1           0       -1.006984   -5.197655    4.486516
     15          6           0       -2.733698   -6.260999    3.828009
     16          8           0       -3.328015   -6.602042    2.832787
     17          8           0       -2.698570   -6.965338    4.974067
     18          7           0       -1.376428   -1.105708    0.927975
     19          1           0       -1.992655   -0.711397    1.628042
     20          6           0       -0.551310   -0.106954    0.235942
     21          1           0       -1.148317    0.811528    0.226250
     22          6           0        0.689209    0.177635    1.137742
     23          6           0       -0.243565   -0.488541   -1.238060
     24          1           0        0.467822   -1.316595   -1.253727
     25          1           0       -1.184023   -0.878340   -1.646182
     26          8           0        0.829682   -0.362330    2.252200
     27          6           0        0.255557    0.660151   -2.094432
     28          6           0       -0.543193    1.791536   -2.341930
     29          1           0       -1.541326    1.855665   -1.912487
     30          6           0        1.518417    0.608740   -2.700481
     31          1           0        2.153497   -0.260168   -2.544524
     32          6           0       -0.100053    2.832344   -3.148669
     33          1           0       -0.722557    3.699566   -3.343005
     34          6           0        1.977183    1.643658   -3.516706
     35          1           0        2.957581    1.574389   -3.983152
     36          8           0        1.544528    3.810026   -4.522385
     37          1           0        2.416533    3.637684   -4.911978
     38          6           0        1.167872    2.762670   -3.744144
     39          7           0        1.569894    1.074437    0.684311
     40          1           0        1.413878    1.500400   -0.223432
     41          6           0        2.748215    1.474551    1.456496
     42          1           0        3.319324    0.579983    1.721119
     43          6           0        2.369804    2.131810    2.785300
     44          6           0        3.616741    2.420808    0.600582
     45          1           0        3.765113    1.936897   -0.374094
     46          1           0        3.053204    3.344923    0.414262
     47          8           0        3.004380    2.003974    3.804682
     48          6           0        4.983239    2.749419    1.215912
     49          1           0        5.526516    1.813328    1.406878
     50          1           0        4.850265    3.228273    2.193815
     51          6           0        5.821992    3.651822    0.302407
     52          1           0        5.960600    3.180043   -0.678830
     53          1           0        5.279907    4.592213    0.120426
     54          6           0        7.204729    3.972585    0.877074
     55          1           0        7.085557    4.431121    1.876574
     56          1           0        7.755426    3.035482    1.029640
     57          7           0        7.969733    4.786208   -0.071907
     58          1           0        8.927120    4.895833    0.257574
     59          1           0        7.579175    5.727022   -0.113129
     60          8           0        1.283133    2.930775    2.673587
     61          1           0        1.163859    3.354312    3.545396
     62          1           0       -3.241552   -7.766592    4.840818
 ---------------------------------------------------------------------

 SCF Done:  E(RB3LYP) =  -1526.20120577     A.U. after    3 cycles

 Alpha  occ. eigenvalues --  -19.29842 -19.29186 -19.26499 -19.26368 -19.25804
 Alpha  occ. eigenvalues --  -19.24441 -19.23291 -14.59847 -14.50071 -14.48531
 Alpha  occ. eigenvalues --  -14.36762 -10.43720 -10.42945 -10.42191 -10.41507
 Alpha  occ. eigenvalues --  -10.40906 -10.36877 -10.34385 -10.34144 -10.33450
 Alpha  occ. eigenvalues --  -10.33311 -10.30148 -10.29014 -10.28920 -10.28775
 Alpha  occ. eigenvalues --  -10.28718 -10.28160 -10.27669 -10.26763 -10.26469
 Alpha  occ. eigenvalues --  -10.24928  -1.20897  -1.20038  -1.19261  -1.16696
 Alpha  occ. eigenvalues --   -1.14614  -1.14018  -1.12119  -1.11012  -1.06727
 Alpha  occ. eigenvalues --   -1.05079  -0.95169  -0.94633  -0.93642  -0.91162
 Alpha  occ. eigenvalues --   -0.89186  -0.87288  -0.84475  -0.84113  -0.82865
 Alpha  occ. eigenvalues --   -0.78883  -0.77478  -0.76621  -0.74671  -0.73948
 Alpha  occ. eigenvalues --   -0.72325  -0.71654  -0.71101  -0.70449  -0.69872
 Alpha  occ. eigenvalues --   -0.69004  -0.67789  -0.66217  -0.65400  -0.64062
 Alpha  occ. eigenvalues --   -0.63816  -0.63305  -0.61631  -0.60712  -0.59411
 Alpha  occ. eigenvalues --   -0.59045  -0.58672  -0.58085  -0.57435  -0.56941
 Alpha  occ. eigenvalues --   -0.56213  -0.55881  -0.55720  -0.55145  -0.54373
 Alpha  occ. eigenvalues --   -0.54312  -0.53969  -0.52993  -0.52643  -0.52279
 Alpha  occ. eigenvalues --   -0.51497  -0.51242  -0.51122  -0.50229  -0.50063
 Alpha  occ. eigenvalues --   -0.49675  -0.49033  -0.48757  -0.48491  -0.48453
 Alpha  occ. eigenvalues --   -0.48404  -0.47050  -0.46468  -0.45785  -0.45142
 Alpha  occ. eigenvalues --   -0.43199  -0.42777  -0.42205  -0.42101  -0.41791
 Alpha  occ. eigenvalues --   -0.41238  -0.40865  -0.40660  -0.40040  -0.39868
 Alpha  occ. eigenvalues --   -0.39526  -0.38778  -0.38135  -0.36146  -0.34597
 Alpha  occ. eigenvalues --   -0.31034  -0.29041
 Alpha virt. eigenvalues --   -0.14318  -0.11388  -0.10094  -0.09644  -0.09436
 Alpha virt. eigenvalues --   -0.08976  -0.08133  -0.06562  -0.04445  -0.02242
 Alpha virt. eigenvalues --   -0.01890  -0.01763  -0.01029  -0.00668   0.00015

 Mulliken charges:
               1
     1  N   -0.757465
     2  H    0.459526
     3  H    0.409402
     4  H    0.416428
     5  C   -0.120244
     6  H    0.192614
     7  C    0.618039
     8  C   -0.274706
     9  H    0.201284
    10  H    0.219533
    11  O   -0.493812
    12  C   -0.390954
    13  H    0.194469
    14  H    0.173528
    15  C    0.598847
    16  O   -0.434839
    17  O   -0.557314
    18  N   -0.564902
    19  H    0.345413
    20  C   -0.111642
    21  H    0.196386
    22  C    0.667953
    23  C   -0.346366
    24  H    0.195253
    25  H    0.188050
    26  O   -0.600483
    27  C    0.105649
    28  C   -0.189645
    29  H    0.137009
    30  C   -0.202452
    31  H    0.146081
    32  C   -0.152887
    33  H    0.165641
    34  C   -0.189360
    35  H    0.145183
    36  O   -0.624157
    37  H    0.420219
    38  C    0.356987
    39  N   -0.616109
    40  H    0.374438
    41  C    0.005662
    42  H    0.187916
    43  C    0.594782
    44  C   -0.323572
    45  H    0.160407
    46  H    0.166420
    47  O   -0.450746
    48  C   -0.272677
    49  H    0.144840
    50  H    0.161628
    51  C   -0.248842
    52  H    0.147969
    53  H    0.130492
    54  C   -0.136823
    55  H    0.119862
    56  H    0.142746
    57  N   -0.717040
    58  H    0.305674
    59  H    0.296468
    60  O   -0.570271
    61  H    0.422208
    62  H    0.432303
 Sum of Mulliken charges =   1.00000

 Dipole moment (field-independent basis, Debye):
    X=              0.9288    Y=             -4.7022    Z=             10.6827  Tot=             11.7087
 Quadrupole moment (field-independent basis, Debye-Ang):
   XX=           -146.3342   YY=           -116.4380   ZZ=           -124.1204
   XY=             25.8723   XZ=            -20.5573   YZ=            -47.2030

 Normal termination of Gaussian 16 at Tue May 24 03:11:56 2022.
