 Gaussian 16, Revision C.01,
 Gaussian 16:  ES64L-G16RevC.01  3-Jul-2019

 -------------------------------------------------------------------
 # B3LYP/6-31G* guess=read geom=check nosymm integral(ultrafinegrid)
 -------------------------------------------------------------------

 -----------------------------------------------------
 Candidate Structure: Conf:95 Charge calc in gas phase
 -----------------------------------------------------
 Structure from the checkpoint file:  "conf-95.chk"
 Charge =  1 Multiplicity = 1

                          Input orientation:
 ---------------------------------------------------------------------
 Center     Atomic      Atomic             Coordinates (Angstroms)
 Number     Number       Type             X           Y           Z
 ---------------------------------------------------------------------
      1          7           0       -7.215497   -0.067657    3.870296
      2          1           0       -6.682381   -0.877996    4.249989
      3          1           0       -8.154850   -0.371957    3.600469
      4          1           0       -7.256325    0.661224    4.615857
      5          6           0       -6.455083    0.603625    2.745249
      6          1           0       -5.940818   -0.182112    2.188233
      7          6           0       -5.472040    1.515021    3.523025
      8          6           0       -7.408814    1.401279    1.858707
      9          1           0       -6.840806    1.890617    1.062236
     10          1           0       -8.151733    0.751045    1.383807
     11          1           0       -7.919382    2.178708    2.436146
     12          8           0       -5.887141    2.024828    4.568048
     13          7           0       -4.249150    1.633408    3.005400
     14          1           0       -4.013773    1.276288    2.078444
     15          6           0       -3.134004    2.340040    3.626207
     16          1           0       -3.522900    3.193570    4.188447
     17          6           0       -2.244388    2.781198    2.446625
     18          6           0       -2.321749    1.401633    4.578215
     19          1           0       -1.514214    1.996281    5.020998
     20          1           0       -1.838440    0.634550    3.960640
     21          8           0       -2.363866    2.209972    1.356033
     22          6           0       -3.149708    0.767440    5.658155
     23          6           0       -3.364047    1.267732    6.919092
     24          1           0       -2.939038    2.141939    7.393741
     25          6           0       -3.962848   -0.420442    5.555428
     26          6           0       -4.667584   -0.557405    6.788955
     27          6           0       -4.178731   -1.379691    4.549097
     28          1           0       -3.622683   -1.336981    3.616069
     29          7           0       -4.271858    0.482145    7.596926
     30          1           0       -4.565007    0.628184    8.551523
     31          6           0       -5.804592   -2.502406    5.993521
     32          1           0       -6.498174   -3.323940    6.147995
     33          6           0       -5.589357   -1.585002    7.018299
     34          1           0       -6.114564   -1.671839    7.965410
     35          6           0       -5.099398   -2.406430    4.769275
     36          1           0       -5.240555   -3.173692    4.012187
     37          7           0       -1.344669    3.746682    2.686465
     38          1           0       -1.227372    4.165345    3.604143
     39          6           0       -0.396814    4.224560    1.674751
     40          1           0       -0.895725    4.174582    0.701521
     41          6           0        0.875011    3.336834    1.654507
     42          6           0       -0.024097    5.667689    2.036269
     43          1           0       -0.912158    6.304459    1.980210
     44          1           0        0.719681    6.041150    1.322388
     45          8           0        1.953848    3.773714    2.070223
     46          8           0        0.447802    5.724154    3.373594
     47          1           0        1.299932    5.245205    3.340929
     48          7           0        0.692060    2.090927    1.177032
     49          1           0       -0.219146    1.807926    0.819789
     50          6           0        1.768890    1.117122    0.989423
     51          1           0        2.704265    1.676190    0.883377
     52          6           0        1.392936    0.364541   -0.302415
     53          6           0        1.892883    0.117083    2.173651
     54          1           0        0.952565   -0.451791    2.191059
     55          8           0        0.236069   -0.046961   -0.435938
     56          6           0        3.048525   -0.868480    1.938438
     57          1           0        4.008879   -0.339144    1.881655
     58          1           0        3.114283   -1.581960    2.767326
     59          1           0        2.924575   -1.440340    1.013907
     60          6           0        2.061947    0.830354    3.522007
     61          1           0        2.968462    1.445168    3.537346
     62          1           0        2.135889    0.093546    4.330611
     63          1           0        1.214686    1.486986    3.743399
     64          7           0        2.365929    0.202158   -1.213635
     65          1           0        3.315844    0.542453   -1.077458
     66          6           0        2.190200   -0.514466   -2.470093
     67          1           0        1.703019   -1.474660   -2.264321
     68          6           0        3.612272   -0.757247   -3.025809
     69          6           0        1.330025    0.275218   -3.472897
     70          1           0        1.203861   -0.291018   -4.400795
     71          1           0        1.806918    1.231629   -3.713196
     72          1           0        0.344719    0.465195   -3.039696
     73          8           0        4.582043   -0.150369   -2.536244
     74          7           0        3.668492   -1.621549   -4.039410
     75          1           0        2.836536   -2.057463   -4.472592
     76          6           0        4.787296   -1.853810   -4.941208
     77          1           0        5.098193   -0.896932   -5.385930
     78          6           0        4.213891   -2.787440   -6.100058
     79          6           0        6.002622   -2.476759   -4.235451
     80          1           0        6.166416   -1.910015   -3.304065
     81          1           0        5.765859   -3.512888   -3.955295
     82          8           0        5.062309   -3.238526   -6.897797
     83          6           0        7.238385   -2.452727   -5.145557
     84          1           0        6.929435   -2.904355   -6.096802
     85          1           0        7.540127   -1.416657   -5.352833
     86          6           0        8.429005   -3.216957   -4.579928
     87          1           0        9.294989   -3.142979   -5.248194
     88          1           0        8.174950   -4.275596   -4.439781
     89          7           0        8.816285   -2.642526   -3.267305
     90          1           0        8.087447   -2.106594   -2.806151
     91          7           0       10.869520   -3.706439   -3.074321
     92          1           0       11.846028   -3.606399   -2.836825
     93          1           0       10.644790   -4.310853   -3.851573
     94          7           0       10.287632   -2.049266   -1.567411
     95          1           0       10.946326   -2.397379   -0.885121
     96          1           0        9.658326   -1.321563   -1.258282
     97          6           0        9.969705   -2.801830   -2.645018
     98          8           0        2.969479   -2.953150   -6.055379
 ---------------------------------------------------------------------

 SCF Done:  E(RB3LYP) =  -2359.98281895     A.U. after    1 cycles

 Alpha  occ. eigenvalues --  -19.24927 -19.21895 -19.20706 -19.18517 -19.15819
 Alpha  occ. eigenvalues --  -19.14224 -19.06527 -19.05878 -14.58488 -14.50272
 Alpha  occ. eigenvalues --  -14.50181 -14.49526 -14.48458 -14.48093 -14.45927
 Alpha  occ. eigenvalues --  -14.42088 -14.40000 -14.36294 -10.46240 -10.42219
 Alpha  occ. eigenvalues --  -10.39613 -10.38959 -10.35569 -10.34592 -10.33143
 Alpha  occ. eigenvalues --  -10.32491 -10.32436 -10.31908 -10.31636 -10.30976
 Alpha  occ. eigenvalues --  -10.30973 -10.30214 -10.30088 -10.29649 -10.29648
 Alpha  occ. eigenvalues --  -10.29379 -10.29237 -10.29054 -10.28535 -10.28313
 Alpha  occ. eigenvalues --  -10.26597 -10.25094 -10.24811 -10.22982 -10.22942
 Alpha  occ. eigenvalues --  -10.22871 -10.22476 -10.22055 -10.21045  -1.17531
 Alpha  occ. eigenvalues --   -1.14785  -1.13948  -1.12469  -1.10484  -1.08117
 Alpha  occ. eigenvalues --   -1.08092  -1.07665  -1.05437  -1.05093  -1.03703
 Alpha  occ. eigenvalues --   -1.03177  -1.01926  -0.99805  -0.98393  -0.96300
 Alpha  occ. eigenvalues --   -0.94630  -0.93492  -0.92291  -0.90959  -0.90474
 Alpha  occ. eigenvalues --   -0.87251  -0.86144  -0.86031  -0.84217  -0.83415
 Alpha  occ. eigenvalues --   -0.82175  -0.80937  -0.80032  -0.78838  -0.76815
 Alpha  occ. eigenvalues --   -0.76722  -0.76256  -0.73844  -0.72796  -0.72559
 Alpha  occ. eigenvalues --   -0.72535  -0.71860  -0.70986  -0.70900  -0.70543
 Alpha  occ. eigenvalues --   -0.69636  -0.69186  -0.68740  -0.67719  -0.66865
 Alpha  occ. eigenvalues --   -0.65365  -0.64612  -0.64044  -0.63955  -0.63436
 Alpha  occ. eigenvalues --   -0.63078  -0.62910  -0.61933  -0.61717  -0.61236
 Alpha  occ. eigenvalues --   -0.59544  -0.59000  -0.58536  -0.58139  -0.57918
 Alpha  occ. eigenvalues --   -0.57508  -0.57358  -0.56943  -0.56159  -0.54988
 Alpha  occ. eigenvalues --   -0.54710  -0.54326  -0.54272  -0.53676  -0.53492
 Alpha  occ. eigenvalues --   -0.53275  -0.52720  -0.52419  -0.52208  -0.51863
 Alpha  occ. eigenvalues --   -0.51414  -0.51213  -0.51038  -0.50712  -0.50264
 Alpha  occ. eigenvalues --   -0.49615  -0.49308  -0.49112  -0.48912  -0.48417
 Alpha  occ. eigenvalues --   -0.48128  -0.47766  -0.47657  -0.47129  -0.47048
 Alpha  occ. eigenvalues --   -0.46697  -0.46023  -0.45490  -0.45236  -0.44704
 Alpha  occ. eigenvalues --   -0.44266  -0.44205  -0.44116  -0.43869  -0.43792
 Alpha  occ. eigenvalues --   -0.43246  -0.43102  -0.41509  -0.41309  -0.40854
 Alpha  occ. eigenvalues --   -0.40363  -0.40087  -0.39867  -0.39607  -0.39511
 Alpha  occ. eigenvalues --   -0.39136  -0.38681  -0.38655  -0.38477  -0.38168
 Alpha  occ. eigenvalues --   -0.37712  -0.37448  -0.37293  -0.36652  -0.36004
 Alpha  occ. eigenvalues --   -0.35940  -0.34182  -0.34011  -0.33150  -0.32025
 Alpha  occ. eigenvalues --   -0.31436  -0.30448  -0.29947  -0.29371  -0.28266
 Alpha  occ. eigenvalues --   -0.27040  -0.21814  -0.21438  -0.20176
 Alpha virt. eigenvalues --   -0.11999  -0.11490  -0.10447  -0.09087  -0.08346
 Alpha virt. eigenvalues --   -0.07810  -0.06410  -0.04959  -0.04108  -0.02960
 Alpha virt. eigenvalues --   -0.02490  -0.02467  -0.02007  -0.01394  -0.01118

 Mulliken charges:
               1
     1  N   -0.754877
     2  H    0.419859
     3  H    0.403338
     4  H    0.420284
     5  C   -0.110071
     6  H    0.207752
     7  C    0.666148
     8  C   -0.473788
     9  H    0.215344
    10  H    0.185910
    11  H    0.198806
    12  O   -0.536579
    13  N   -0.608040
    14  H    0.372196
    15  C   -0.058779
    16  H    0.192994
    17  C    0.642603
    18  C   -0.369388
    19  H    0.172843
    20  H    0.181075
    21  O   -0.546013
    22  C    0.086166
    23  C    0.027818
    24  H    0.176172
    25  C    0.074016
    26  C    0.324974
    27  C   -0.239817
    28  H    0.150712
    29  N   -0.682661
    30  H    0.347875
    31  C   -0.174325
    32  H    0.156253
    33  C   -0.164094
    34  H    0.155546
    35  C   -0.217252
    36  H    0.154207
    37  N   -0.602730
    38  H    0.355118
    39  C   -0.093500
    40  H    0.191918
    41  C    0.635898
    42  C   -0.054210
    43  H    0.156790
    44  H    0.167043
    45  O   -0.548448
    46  O   -0.640540
    47  H    0.422933
    48  N   -0.628200
    49  H    0.378227
    50  C   -0.024991
    51  H    0.164964
    52  C    0.612803
    53  C   -0.070743
    54  H    0.135377
    55  O   -0.560473
    56  C   -0.461358
    57  H    0.142012
    58  H    0.147478
    59  H    0.164991
    60  C   -0.446112
    61  H    0.162800
    62  H    0.139881
    63  H    0.130492
    64  N   -0.614277
    65  H    0.350545
    66  C   -0.031962
    67  H    0.173437
    68  C    0.608501
    69  C   -0.456330
    70  H    0.178904
    71  H    0.151684
    72  H    0.173850
    73  O   -0.589621
    74  N   -0.627593
    75  H    0.363367
    76  C   -0.050371
    77  H    0.142452
    78  C    0.584048
    79  C   -0.288749
    80  H    0.127976
    81  H    0.142151
    82  O   -0.586452
    83  C   -0.317659
    84  H    0.246754
    85  H    0.140979
    86  C   -0.167225
    87  H    0.170061
    88  H    0.187655
    89  N   -0.588505
    90  H    0.371910
    91  N   -0.754553
    92  H    0.379139
    93  H    0.393401
    94  N   -0.760997
    95  H    0.376668
    96  H    0.382890
    97  C    0.809100
    98  O   -0.595807
 Sum of Mulliken charges =   1.00000

 Dipole moment (field-independent basis, Debye):
    X=             -0.8541    Y=             -1.4594    Z=             25.7380  Tot=             25.7935
 Quadrupole moment (field-independent basis, Debye-Ang):
   XX=            231.2168   YY=           -273.1033   ZZ=           -270.6436
   XY=            -81.4146   XZ=           -130.3274   YZ=            -27.9980

 Normal termination of Gaussian 16 at Tue Jun 28 00:24:37 2022.
