 Gaussian 16, Revision C.01,
 Gaussian 16:  ES64L-G16RevC.01  3-Jul-2019

 -------------------------------------------------------------------
 # B3LYP/6-31G* guess=read geom=check nosymm integral(ultrafinegrid)
 -------------------------------------------------------------------

 ------------------------------------------------------
 Candidate Structure: Conf:370 Charge calc in gas phase
 ------------------------------------------------------
 Structure from the checkpoint file:  "conf-370.chk"
 Charge =  1 Multiplicity = 1

                          Input orientation:
 ---------------------------------------------------------------------
 Center     Atomic      Atomic             Coordinates (Angstroms)
 Number     Number       Type             X           Y           Z
 ---------------------------------------------------------------------
      1          7           0       -7.304050    0.692977    6.129679
      2          1           0       -7.092722    0.094798    6.932491
      3          1           0       -8.320818    0.769278    6.037954
      4          1           0       -6.858995    1.663463    6.268999
      5          6           0       -6.621166    0.253511    4.847157
      6          1           0       -6.090878   -0.678938    5.055932
      7          6           0       -5.606523    1.412018    4.601973
      8          6           0       -7.632015    0.070264    3.716110
      9          1           0       -7.112839   -0.217259    2.797810
     10          1           0       -8.349881   -0.722427    3.950748
     11          1           0       -8.171805    1.001741    3.512992
     12          8           0       -5.665768    2.385891    5.376419
     13          7           0       -4.776055    1.264570    3.587350
     14          1           0       -4.799770    0.461233    2.949153
     15          6           0       -3.789696    2.253143    3.147371
     16          1           0       -4.261034    3.240548    3.123041
     17          6           0       -3.413519    1.777933    1.728014
     18          6           0       -2.544498    2.295829    4.088155
     19          1           0       -1.940948    1.400219    3.906010
     20          1           0       -2.921458    2.234841    5.115950
     21          8           0       -3.780987    0.661621    1.339123
     22          6           0       -1.712427    3.534538    3.937698
     23          6           0       -0.487409    3.635959    3.315101
     24          1           0        0.069880    2.875153    2.783893
     25          6           0       -2.021136    4.844069    4.464419
     26          6           0       -0.933920    5.694199    4.125124
     27          6           0       -3.100482    5.375744    5.193431
     28          1           0       -3.943900    4.747510    5.470557
     29          7           0       -0.022606    4.929150    3.420433
     30          1           0        0.874597    5.248880    3.088403
     31          6           0       -1.979692    7.541292    5.207943
     32          1           0       -1.983969    8.585088    5.508150
     33          6           0       -0.898578    7.043844    4.489892
     34          1           0       -0.058577    7.680395    4.225358
     35          6           0       -3.068984    6.716244    5.556362
     36          1           0       -3.894983    7.140412    6.120341
     37          7           0       -2.672384    2.620902    0.995973
     38          1           0       -2.322397    3.462012    1.440119
     39          6           0       -2.048834    2.192144   -0.246916
     40          1           0       -2.828865    1.781081   -0.895156
     41          6           0       -0.967305    1.120911    0.045358
     42          6           0       -1.399855    3.393373   -0.938715
     43          1           0       -0.968559    3.050544   -1.890203
     44          1           0       -0.573691    3.763833   -0.310131
     45          8           0       -0.296721    1.164131    1.076443
     46          8           0       -2.400428    4.379298   -1.126823
     47          1           0       -2.005406    5.124805   -1.604511
     48          7           0       -0.818422    0.198798   -0.926099
     49          1           0       -1.357052    0.249004   -1.785689
     50          6           0        0.239897   -0.806438   -0.956104
     51          1           0        1.024678   -0.479608   -0.266411
     52          6           0        0.734604   -0.814586   -2.416382
     53          6           0       -0.277644   -2.210515   -0.525723
     54          1           0       -1.024054   -2.508884   -1.275664
     55          8           0       -0.079017   -0.672130   -3.334172
     56          6           0        0.853797   -3.250369   -0.525552
     57          1           0        1.641109   -2.976611    0.189116
     58          1           0        0.465394   -4.229581   -0.225243
     59          1           0        1.319251   -3.365584   -1.508798
     60          6           0       -0.962176   -2.158351    0.848030
     61          1           0       -0.259788   -1.833863    1.624910
     62          1           0       -1.328880   -3.155627    1.118376
     63          1           0       -1.813461   -1.471375    0.855180
     64          7           0        2.057616   -0.974489   -2.602015
     65          1           0        2.698782   -1.154786   -1.832259
     66          6           0        2.678223   -1.099750   -3.912841
     67          1           0        2.066667   -1.771065   -4.528398
     68          6           0        4.061019   -1.740331   -3.659899
     69          6           0        2.794880    0.258577   -4.626681
     70          1           0        3.243307    0.144244   -5.618797
     71          1           0        3.417785    0.945018   -4.043720
     72          1           0        1.797923    0.690798   -4.744846
     73          8           0        4.499155   -1.852869   -2.510271
     74          7           0        4.728537   -2.127658   -4.760436
     75          1           0        4.335704   -2.032434   -5.692200
     76          6           0        6.094784   -2.642432   -4.757103
     77          1           0        6.673769   -2.108886   -4.000400
     78          6           0        6.715823   -2.386147   -6.147168
     79          6           0        6.099151   -4.164361   -4.430360
     80          1           0        5.821865   -4.267484   -3.376517
     81          1           0        5.284598   -4.628977   -5.003729
     82          8           0        7.936922   -2.188301   -6.214391
     83          6           0        7.434578   -4.900598   -4.707148
     84          1           0        8.247888   -4.174798   -4.809113
     85          1           0        7.681389   -5.552341   -3.859970
     86          6           0        7.405889   -5.809163   -5.952207
     87          1           0        6.630280   -6.575232   -5.840210
     88          1           0        8.354266   -6.347811   -6.042882
     89          7           0        7.124178   -5.101947   -7.210393
     90          1           0        6.281526   -4.518950   -7.192882
     91          7           0        9.242848   -5.191965   -8.222421
     92          1           0        9.996787   -4.645310   -8.611503
     93          1           0        9.515020   -5.955855   -7.623703
     94          7           0        7.656530   -3.606783   -8.866715
     95          1           0        8.344501   -3.206930   -9.489620
     96          1           0        6.954701   -2.958427   -8.425150
     97          6           0        8.029114   -4.613364   -8.072388
     98          8           0        5.895499   -2.535596   -7.131796
 ---------------------------------------------------------------------

 SCF Done:  E(RB3LYP) =  -2360.02222444     A.U. after    1 cycles

 Alpha  occ. eigenvalues --  -19.26951 -19.22119 -19.21218 -19.18054 -19.16612
 Alpha  occ. eigenvalues --  -19.15835 -19.13128 -19.11828 -14.59846 -14.48961
 Alpha  occ. eigenvalues --  -14.44981 -14.44516 -14.44430 -14.43204 -14.42247
 Alpha  occ. eigenvalues --  -14.41471 -14.40713 -14.39508 -10.43428 -10.41227
 Alpha  occ. eigenvalues --  -10.39858 -10.37934 -10.35369 -10.33789 -10.33789
 Alpha  occ. eigenvalues --  -10.33588 -10.32893 -10.31600 -10.30965 -10.30136
 Alpha  occ. eigenvalues --  -10.29556 -10.28658 -10.28257 -10.28116 -10.28042
 Alpha  occ. eigenvalues --  -10.27996 -10.25381 -10.25096 -10.24841 -10.24821
 Alpha  occ. eigenvalues --  -10.24691 -10.24563 -10.24251 -10.23957 -10.23796
 Alpha  occ. eigenvalues --  -10.23132 -10.22636 -10.22504 -10.22213  -1.19235
 Alpha  occ. eigenvalues --   -1.13738  -1.13049  -1.10042  -1.09455  -1.08611
 Alpha  occ. eigenvalues --   -1.08552  -1.07463  -1.05677  -1.05580  -1.04255
 Alpha  occ. eigenvalues --   -1.01092  -0.98665  -0.98312  -0.97280  -0.97072
 Alpha  occ. eigenvalues --   -0.96231  -0.95457  -0.93301  -0.89929  -0.88678
 Alpha  occ. eigenvalues --   -0.86250  -0.84732  -0.84368  -0.83237  -0.81854
 Alpha  occ. eigenvalues --   -0.81088  -0.79499  -0.78491  -0.78332  -0.76518
 Alpha  occ. eigenvalues --   -0.75732  -0.74081  -0.73281  -0.72657  -0.72604
 Alpha  occ. eigenvalues --   -0.71955  -0.70747  -0.70297  -0.69398  -0.68184
 Alpha  occ. eigenvalues --   -0.67788  -0.65629  -0.65527  -0.65385  -0.65296
 Alpha  occ. eigenvalues --   -0.64971  -0.63357  -0.63203  -0.62860  -0.62719
 Alpha  occ. eigenvalues --   -0.61825  -0.61734  -0.61271  -0.59977  -0.59408
 Alpha  occ. eigenvalues --   -0.59132  -0.58723  -0.57397  -0.57113  -0.56300
 Alpha  occ. eigenvalues --   -0.55992  -0.55397  -0.55218  -0.54545  -0.54161
 Alpha  occ. eigenvalues --   -0.54056  -0.53674  -0.53435  -0.53079  -0.53005
 Alpha  occ. eigenvalues --   -0.52122  -0.51863  -0.51729  -0.51639  -0.51197
 Alpha  occ. eigenvalues --   -0.50729  -0.50560  -0.49693  -0.49407  -0.49128
 Alpha  occ. eigenvalues --   -0.49036  -0.48836  -0.48566  -0.48416  -0.48246
 Alpha  occ. eigenvalues --   -0.47950  -0.47557  -0.47070  -0.46684  -0.46228
 Alpha  occ. eigenvalues --   -0.45860  -0.45511  -0.45185  -0.44811  -0.44403
 Alpha  occ. eigenvalues --   -0.44193  -0.44017  -0.43915  -0.43663  -0.42970
 Alpha  occ. eigenvalues --   -0.42505  -0.42235  -0.41650  -0.41500  -0.41307
 Alpha  occ. eigenvalues --   -0.41288  -0.41015  -0.40567  -0.39544  -0.39477
 Alpha  occ. eigenvalues --   -0.39376  -0.39212  -0.38911  -0.38864  -0.38708
 Alpha  occ. eigenvalues --   -0.38211  -0.37748  -0.35630  -0.35327  -0.34917
 Alpha  occ. eigenvalues --   -0.34493  -0.33509  -0.32356  -0.32327  -0.31681
 Alpha  occ. eigenvalues --   -0.30831  -0.30202  -0.29855  -0.29541  -0.28422
 Alpha  occ. eigenvalues --   -0.28361  -0.27751  -0.26706  -0.25345
 Alpha virt. eigenvalues --   -0.12124  -0.11147  -0.07253  -0.06771  -0.06208
 Alpha virt. eigenvalues --   -0.04907  -0.04633  -0.04327  -0.03439  -0.02738
 Alpha virt. eigenvalues --   -0.01435  -0.01327  -0.01266  -0.00866  -0.00617

 Mulliken charges:
               1
     1  N   -0.760194
     2  H    0.416630
     3  H    0.413618
     4  H    0.438038
     5  C   -0.105063
     6  H    0.226169
     7  C    0.656823
     8  C   -0.484096
     9  H    0.223221
    10  H    0.194700
    11  H    0.196120
    12  O   -0.545428
    13  N   -0.612103
    14  H    0.377219
    15  C   -0.066101
    16  H    0.203728
    17  C    0.641272
    18  C   -0.356315
    19  H    0.183021
    20  H    0.171557
    21  O   -0.557206
    22  C    0.005159
    23  C   -0.014457
    24  H    0.209377
    25  C    0.089181
    26  C    0.310360
    27  C   -0.224082
    28  H    0.132896
    29  N   -0.687445
    30  H    0.337834
    31  C   -0.148917
    32  H    0.138054
    33  C   -0.159907
    34  H    0.135856
    35  C   -0.138536
    36  H    0.128387
    37  N   -0.582370
    38  H    0.361456
    39  C   -0.059294
    40  H    0.185159
    41  C    0.632605
    42  C   -0.060399
    43  H    0.157672
    44  H    0.141678
    45  O   -0.547474
    46  O   -0.613480
    47  H    0.408422
    48  N   -0.602437
    49  H    0.352417
    50  C   -0.047467
    51  H    0.168888
    52  C    0.617781
    53  C   -0.069930
    54  H    0.141221
    55  O   -0.556159
    56  C   -0.463014
    57  H    0.148558
    58  H    0.151705
    59  H    0.159831
    60  C   -0.458030
    61  H    0.151222
    62  H    0.138140
    63  H    0.163083
    64  N   -0.613686
    65  H    0.359394
    66  C   -0.039031
    67  H    0.175162
    68  C    0.616222
    69  C   -0.449323
    70  H    0.159824
    71  H    0.158145
    72  H    0.179370
    73  O   -0.552355
    74  N   -0.619000
    75  H    0.349518
    76  C   -0.008546
    77  H    0.174024
    78  C    0.571947
    79  C   -0.294696
    80  H    0.174104
    81  H    0.133158
    82  O   -0.567159
    83  C   -0.274578
    84  H    0.190435
    85  H    0.147084
    86  C   -0.169224
    87  H    0.176088
    88  H    0.140447
    89  N   -0.589115
    90  H    0.376191
    91  N   -0.759337
    92  H    0.365992
    93  H    0.366070
    94  N   -0.747568
    95  H    0.340159
    96  H    0.411790
    97  C    0.779929
    98  O   -0.650588
 Sum of Mulliken charges =   1.00000

 Dipole moment (field-independent basis, Debye):
    X=            -14.8018    Y=             -2.9980    Z=             11.0075  Tot=             18.6881
 Quadrupole moment (field-independent basis, Debye-Ang):
   XX=              8.7053   YY=           -197.6301   ZZ=            -97.1405
   XY=            -76.4502   XZ=           -240.3569   YZ=             61.9582

 Normal termination of Gaussian 16 at Tue Jun 28 00:39:20 2022.
