 Gaussian 16, Revision C.01,
 Gaussian 16:  ES64L-G16RevC.01  3-Jul-2019

 -------------------------------------------------------------------
 # B3LYP/6-31G* guess=read geom=check nosymm integral(ultrafinegrid)
 -------------------------------------------------------------------

 ------------------------------------------------------
 Candidate Structure: Conf:549 Charge calc in gas phase
 ------------------------------------------------------
 Structure from the checkpoint file:  "conf-549.chk"
 Charge =  1 Multiplicity = 1

                          Input orientation:
 ---------------------------------------------------------------------
 Center     Atomic      Atomic             Coordinates (Angstroms)
 Number     Number       Type             X           Y           Z
 ---------------------------------------------------------------------
      1          7           0       -7.055221    4.396424    2.280919
      2          1           0       -6.879957    4.919482    3.154405
      3          1           0       -7.909408    4.779481    1.835480
      4          1           0       -6.200773    4.535838    1.662466
      5          6           0       -7.086102    2.879367    2.497745
      6          1           0       -7.547440    2.657705    3.464144
      7          6           0       -5.575037    2.568649    2.495373
      8          6           0       -7.869592    2.177663    1.369789
      9          1           0       -7.829224    1.097943    1.535505
     10          1           0       -8.925892    2.480862    1.351119
     11          1           0       -7.427524    2.389414    0.387221
     12          8           0       -4.887204    3.413535    1.864447
     13          7           0       -5.130665    1.449840    3.080306
     14          1           0       -5.766500    0.917261    3.680633
     15          6           0       -3.679250    1.194466    3.297435
     16          1           0       -3.209035    2.184476    3.372481
     17          6           0       -3.036984    0.444459    2.086098
     18          6           0       -3.497011    0.400746    4.609969
     19          1           0       -2.416611    0.284653    4.764420
     20          1           0       -3.890389   -0.617186    4.455113
     21          8           0       -2.578528   -0.689517    2.229014
     22          6           0       -4.171714    1.031218    5.802612
     23          6           0       -5.172331    0.432289    6.557519
     24          1           0       -5.607019   -0.557373    6.461475
     25          6           0       -3.971272    2.351407    6.373942
     26          6           0       -4.887377    2.473713    7.474413
     27          6           0       -3.126884    3.449415    6.086417
     28          1           0       -2.412067    3.406216    5.265724
     29          7           0       -5.600391    1.286845    7.555327
     30          1           0       -6.303174    1.066826    8.255533
     31          6           0       -4.112380    4.687578    7.950172
     32          1           0       -4.145532    5.596072    8.548728
     33          6           0       -4.963928    3.630922    8.262831
     34          1           0       -5.661251    3.702724    9.095736
     35          6           0       -3.201146    4.598527    6.873245
     36          1           0       -2.548042    5.442688    6.659051
     37          7           0       -3.054452    1.142565    0.924775
     38          1           0       -3.371911    2.114611    0.913951
     39          6           0       -2.564030    0.631561   -0.369368
     40          1           0       -2.804270   -0.439012   -0.426040
     41          6           0       -1.024651    0.796725   -0.514223
     42          6           0       -3.299566    1.408150   -1.487434
     43          1           0       -4.378097    1.231642   -1.400029
     44          1           0       -2.967935    1.033518   -2.466869
     45          8           0       -0.559570    1.675039   -1.268464
     46          8           0       -3.103035    2.807554   -1.348999
     47          1           0       -2.135112    2.933998   -1.501062
     48          7           0       -0.279655   -0.064714    0.218821
     49          1           0       -0.788362   -0.710971    0.822822
     50          6           0        1.204777   -0.043670    0.232320
     51          1           0        1.504849    1.010813    0.163005
     52          6           0        1.722008   -0.809763   -1.036375
     53          6           0        1.784068   -0.662507    1.527110
     54          1           0        1.602280   -1.747769    1.471158
     55          8           0        1.952653   -2.024825   -0.960815
     56          6           0        3.311774   -0.422508    1.561817
     57          1           0        3.549252    0.650516    1.636908
     58          1           0        3.761260   -0.914198    2.440441
     59          1           0        3.798814   -0.808242    0.659319
     60          6           0        1.125930   -0.097034    2.808831
     61          1           0        1.246683    0.996100    2.870432
     62          1           0        1.598330   -0.530598    3.703701
     63          1           0        0.055106   -0.319827    2.869524
     64          7           0        1.839849   -0.031648   -2.129930
     65          1           0        1.396086    0.883093   -2.058959
     66          6           0        2.102301   -0.517686   -3.519170
     67          1           0        1.539464   -1.449091   -3.659331
     68          6           0        3.621911   -0.806549   -3.758926
     69          6           0        1.620696    0.555439   -4.497849
     70          1           0        1.781897    0.219496   -5.524984
     71          1           0        2.193878    1.477871   -4.357832
     72          1           0        0.549026    0.765424   -4.361286
     73          8           0        4.343043    0.091179   -4.201662
     74          7           0        3.978462   -2.070205   -3.445524
     75          1           0        3.277200   -2.620575   -2.958135
     76          6           0        5.308260   -2.677676   -3.660072
     77          1           0        6.049855   -1.878440   -3.736667
     78          6           0        5.323185   -3.519429   -5.028860
     79          6           0        5.605437   -3.654151   -2.523277
     80          1           0        4.885484   -4.480526   -2.619216
     81          1           0        6.599802   -4.085485   -2.712665
     82          8           0        5.962002   -3.015707   -5.973054
     83          6           0        5.568282   -3.039716   -1.102600
     84          1           0        6.213695   -2.148824   -1.049816
     85          1           0        4.538770   -2.712491   -0.862236
     86          6           0        6.034865   -4.062704   -0.062589
     87          1           0        7.096119   -4.294343   -0.219705
     88          1           0        5.453702   -4.994374   -0.158507
     89          7           0        5.889306   -3.536595    1.322888
     90          1           0        5.051854   -2.966208    1.447441
     91          7           0        7.164865   -5.190520    2.331160
     92          1           0        7.312444   -5.773989    3.149237
     93          1           0        7.251532   -5.681724    1.445476
     94          7           0        5.966746   -3.711579    3.646804
     95          1           0        6.565656   -3.956352    4.431263
     96          1           0        5.623572   -2.760214    3.716377
     97          6           0        6.325232   -4.147311    2.410802
     98          8           0        4.658037   -4.593288   -4.907726
 ---------------------------------------------------------------------

 SCF Done:  E(RB3LYP) =  -2359.90144376     A.U. after    3 cycles

 Alpha  occ. eigenvalues --  -19.28190 -19.22700 -19.22072 -19.21128 -19.17354
 Alpha  occ. eigenvalues --  -19.10901 -19.02598 -19.02160 -14.61665 -14.52021
 Alpha  occ. eigenvalues --  -14.51745 -14.51646 -14.50990 -14.47972 -14.46456
 Alpha  occ. eigenvalues --  -14.45032 -14.41147 -14.35927 -10.47633 -10.44990
 Alpha  occ. eigenvalues --  -10.42968 -10.39850 -10.38034 -10.36039 -10.35137
 Alpha  occ. eigenvalues --  -10.34421 -10.32886 -10.32716 -10.32304 -10.32068
 Alpha  occ. eigenvalues --  -10.31717 -10.30943 -10.30464 -10.28923 -10.28561
 Alpha  occ. eigenvalues --  -10.28481 -10.28207 -10.28197 -10.27850 -10.27642
 Alpha  occ. eigenvalues --  -10.27345 -10.26487 -10.26229 -10.25844 -10.24778
 Alpha  occ. eigenvalues --  -10.21079 -10.20788 -10.20229 -10.19984  -1.20213
 Alpha  occ. eigenvalues --   -1.16414  -1.14603  -1.14061  -1.12148  -1.09139
 Alpha  occ. eigenvalues --   -1.08358  -1.07730  -1.07281  -1.05218  -1.04647
 Alpha  occ. eigenvalues --   -1.02354  -1.02329  -1.00532  -0.96877  -0.95245
 Alpha  occ. eigenvalues --   -0.94622  -0.92912  -0.91538  -0.90920  -0.88471
 Alpha  occ. eigenvalues --   -0.87063  -0.87036  -0.86721  -0.84566  -0.82766
 Alpha  occ. eigenvalues --   -0.82513  -0.81239  -0.80828  -0.79303  -0.77661
 Alpha  occ. eigenvalues --   -0.76752  -0.76692  -0.76445  -0.75211  -0.74071
 Alpha  occ. eigenvalues --   -0.73877  -0.73617  -0.72190  -0.71500  -0.71041
 Alpha  occ. eigenvalues --   -0.69552  -0.68702  -0.68670  -0.67800  -0.67377
 Alpha  occ. eigenvalues --   -0.66299  -0.65467  -0.65257  -0.64350  -0.64153
 Alpha  occ. eigenvalues --   -0.63660  -0.63469  -0.63152  -0.62686  -0.61350
 Alpha  occ. eigenvalues --   -0.61093  -0.59877  -0.59185  -0.59052  -0.58451
 Alpha  occ. eigenvalues --   -0.58294  -0.57877  -0.57191  -0.57063  -0.56707
 Alpha  occ. eigenvalues --   -0.56394  -0.55852  -0.55342  -0.54970  -0.53951
 Alpha  occ. eigenvalues --   -0.53479  -0.53407  -0.53111  -0.52849  -0.52455
 Alpha  occ. eigenvalues --   -0.52259  -0.52167  -0.51567  -0.51172  -0.50879
 Alpha  occ. eigenvalues --   -0.50849  -0.50289  -0.50044  -0.49803  -0.49059
 Alpha  occ. eigenvalues --   -0.48390  -0.48322  -0.48037  -0.47665  -0.47386
 Alpha  occ. eigenvalues --   -0.47097  -0.46908  -0.46347  -0.45544  -0.45302
 Alpha  occ. eigenvalues --   -0.44533  -0.43956  -0.43453  -0.43231  -0.42772
 Alpha  occ. eigenvalues --   -0.42675  -0.42624  -0.42586  -0.42338  -0.42024
 Alpha  occ. eigenvalues --   -0.41900  -0.41718  -0.41016  -0.40835  -0.40525
 Alpha  occ. eigenvalues --   -0.40015  -0.39744  -0.38583  -0.38093  -0.37905
 Alpha  occ. eigenvalues --   -0.37116  -0.36962  -0.36528  -0.35927  -0.35332
 Alpha  occ. eigenvalues --   -0.35281  -0.34269  -0.33293  -0.31927  -0.31714
 Alpha  occ. eigenvalues --   -0.31388  -0.30958  -0.30373  -0.30062  -0.25702
 Alpha  occ. eigenvalues --   -0.24480  -0.17889  -0.16653  -0.15821
 Alpha virt. eigenvalues --   -0.15097  -0.12504  -0.12315  -0.10797  -0.09741
 Alpha virt. eigenvalues --   -0.08570  -0.07501  -0.07285  -0.07204  -0.06152
 Alpha virt. eigenvalues --   -0.04636  -0.03930  -0.03840  -0.03322  -0.03101

 Mulliken charges:
               1
     1  N   -0.742636
     2  H    0.419821
     3  H    0.410523
     4  H    0.443293
     5  C   -0.118419
     6  H    0.213607
     7  C    0.665950
     8  C   -0.468628
     9  H    0.212057
    10  H    0.194800
    11  H    0.206289
    12  O   -0.563753
    13  N   -0.590437
    14  H    0.348095
    15  C   -0.079823
    16  H    0.199841
    17  C    0.650621
    18  C   -0.388943
    19  H    0.193201
    20  H    0.177879
    21  O   -0.528971
    22  C    0.042705
    23  C   -0.018738
    24  H    0.165330
    25  C    0.078819
    26  C    0.301215
    27  C   -0.225298
    28  H    0.130016
    29  N   -0.680344
    30  H    0.343886
    31  C   -0.152974
    32  H    0.148059
    33  C   -0.165314
    34  H    0.143130
    35  C   -0.142257
    36  H    0.142320
    37  N   -0.625167
    38  H    0.380706
    39  C   -0.086837
    40  H    0.185926
    41  C    0.641435
    42  C   -0.049445
    43  H    0.139633
    44  H    0.169267
    45  O   -0.553125
    46  O   -0.639237
    47  H    0.426476
    48  N   -0.619419
    49  H    0.370705
    50  C   -0.036811
    51  H    0.167436
    52  C    0.617973
    53  C   -0.097459
    54  H    0.157963
    55  O   -0.550347
    56  C   -0.474972
    57  H    0.164740
    58  H    0.102173
    59  H    0.184213
    60  C   -0.466244
    61  H    0.145402
    62  H    0.140761
    63  H    0.157192
    64  N   -0.601965
    65  H    0.363940
    66  C   -0.053803
    67  H    0.164652
    68  C    0.624103
    69  C   -0.476854
    70  H    0.189768
    71  H    0.179419
    72  H    0.129079
    73  O   -0.525583
    74  N   -0.599685
    75  H    0.338065
    76  C   -0.024800
    77  H    0.148285
    78  C    0.572656
    79  C   -0.303915
    80  H    0.172259
    81  H    0.144055
    82  O   -0.567495
    83  C   -0.316622
    84  H    0.159379
    85  H    0.169260
    86  C   -0.171114
    87  H    0.183318
    88  H    0.188826
    89  N   -0.587162
    90  H    0.373913
    91  N   -0.738920
    92  H    0.379886
    93  H    0.397279
    94  N   -0.747828
    95  H    0.374313
    96  H    0.377067
    97  C    0.783904
    98  O   -0.615536
 Sum of Mulliken charges =   1.00000

 Dipole moment (field-independent basis, Debye):
    X=            -27.7640    Y=              9.3561    Z=             44.5445  Tot=             53.3159
 Quadrupole moment (field-independent basis, Debye-Ang):
   XX=             14.0398   YY=           -201.1732   ZZ=           -287.7093
   XY=           -154.9735   XZ=             66.7819   YZ=            -59.3795

 Normal termination of Gaussian 16 at Tue Jun 28 00:57:36 2022.
