 Gaussian 16, Revision C.01,
 Gaussian 16:  ES64L-G16RevC.01  3-Jul-2019

 -------------------------------------------------------------------
 # B3LYP/6-31G* guess=read geom=check nosymm integral(ultrafinegrid)
 -------------------------------------------------------------------

 ------------------------------------------------------
 Candidate Structure: Conf:879 Charge calc in gas phase
 ------------------------------------------------------
 Structure from the checkpoint file:  "conf-879.chk"
 Charge =  1 Multiplicity = 1

                          Input orientation:
 ---------------------------------------------------------------------
 Center     Atomic      Atomic             Coordinates (Angstroms)
 Number     Number       Type             X           Y           Z
 ---------------------------------------------------------------------
      1          7           0       -8.294596    3.571631    4.521545
      2          1           0       -8.171192    3.583988    5.537150
      3          1           0       -9.268558    3.338788    4.310996
      4          1           0       -8.023827    4.535227    4.116215
      5          6           0       -7.294439    2.686484    3.802537
      6          1           0       -6.742898    2.119481    4.555862
      7          6           0       -6.369712    3.738275    3.118440
      8          6           0       -7.993638    1.758990    2.809240
      9          1           0       -7.250656    1.170657    2.263437
     10          1           0       -8.660635    1.057949    3.321622
     11          1           0       -8.565615    2.332140    2.071207
     12          8           0       -6.743603    4.922180    3.160446
     13          7           0       -5.272997    3.272470    2.544792
     14          1           0       -5.125197    2.271632    2.393201
     15          6           0       -4.327802    4.067116    1.765502
     16          1           0       -4.843184    4.964335    1.412099
     17          6           0       -3.911159    3.135085    0.608473
     18          6           0       -3.056884    4.452178    2.586447
     19          1           0       -2.466190    5.125593    1.952609
     20          1           0       -2.448085    3.548900    2.704844
     21          8           0       -4.140663    1.924964    0.693112
     22          6           0       -3.315785    5.077136    3.923580
     23          6           0       -3.037399    4.496968    5.137275
     24          1           0       -2.595902    3.532142    5.350037
     25          6           0       -3.843316    6.391950    4.211944
     26          6           0       -3.856478    6.536460    5.625890
     27          6           0       -4.289894    7.464850    3.420334
     28          1           0       -4.290441    7.392569    2.335713
     29          7           0       -3.382488    5.353309    6.165168
     30          1           0       -3.126754    5.222054    7.132231
     31          6           0       -4.723328    8.749241    5.445440
     32          1           0       -5.060468    9.675458    5.901838
     33          6           0       -4.292731    7.706117    6.256842
     34          1           0       -4.285294    7.801861    7.339504
     35          6           0       -4.722366    8.629532    4.040538
     36          1           0       -5.061434    9.466138    3.436429
     37          7           0       -3.243757    3.710611   -0.402795
     38          1           0       -3.192969    4.717886   -0.486092
     39          6           0       -2.544357    2.939990   -1.417012
     40          1           0       -3.270038    2.409335   -2.044564
     41          6           0       -1.567780    1.937799   -0.748093
     42          6           0       -1.724316    3.910523   -2.276663
     43          1           0       -1.333790    3.368599   -3.147998
     44          1           0       -0.872194    4.275800   -1.684408
     45          8           0       -1.046121    2.186494    0.333128
     46          8           0       -2.584845    4.981098   -2.653808
     47          1           0       -2.068807    5.615004   -3.175235
     48          7           0       -1.328657    0.835752   -1.494309
     49          1           0       -1.648173    0.795701   -2.460380
     50          6           0       -0.220477   -0.076661   -1.244247
     51          1           0        0.485812    0.431338   -0.578852
     52          6           0        0.435822   -0.322136   -2.622506
     53          6           0       -0.666311   -1.404125   -0.566678
     54          1           0        0.244690   -2.011773   -0.468384
     55          8           0       -0.186505   -0.066721   -3.660971
     56          6           0       -1.219294   -1.141946    0.841315
     57          1           0       -2.127147   -0.529959    0.799248
     58          1           0       -1.469179   -2.089922    1.332747
     59          1           0       -0.492345   -0.612466    1.466360
     60          6           0       -1.672755   -2.186160   -1.422864
     61          1           0       -2.605047   -1.621251   -1.540156
     62          1           0       -1.920033   -3.139319   -0.942025
     63          1           0       -1.283441   -2.403181   -2.422977
     64          7           0        1.677751   -0.827355   -2.590014
     65          1           0        2.154428   -1.062829   -1.720063
     66          6           0        2.466875   -1.163587   -3.767258
     67          1           0        1.856230   -1.771798   -4.445429
     68          6           0        3.657239   -2.003281   -3.243421
     69          6           0        2.950653    0.090414   -4.517723
     70          1           0        3.554310   -0.181848   -5.389129
     71          1           0        3.564680    0.712935   -3.857967
     72          1           0        2.087830    0.670757   -4.854679
     73          8           0        3.847661   -2.115105   -2.023967
     74          7           0        4.422159   -2.553321   -4.196837
     75          1           0        4.355691   -2.252767   -5.181694
     76          6           0        5.786614   -3.034481   -3.995233
     77          1           0        6.316757   -2.336248   -3.334433
     78          6           0        6.471322   -3.002747   -5.429912
     79          6           0        5.879414   -4.430242   -3.357076
     80          1           0        6.930164   -4.571933   -3.081643
     81          1           0        5.274300   -4.464487   -2.443036
     82          8           0        7.537546   -3.648916   -5.518921
     83          6           0        5.491674   -5.539895   -4.340949
     84          1           0        4.425536   -5.493682   -4.594218
     85          1           0        6.083239   -5.348005   -5.245156
     86          6           0        5.848950   -6.937677   -3.842162
     87          1           0        5.139653   -7.310130   -3.092744
     88          1           0        6.857595   -6.930161   -3.408674
     89          7           0        5.839069   -7.867244   -4.998265
     90          1           0        5.838294   -7.416071   -5.906928
     91          7           0        6.300365   -9.789256   -3.789292
     92          1           0        6.169375  -10.784624   -3.683544
     93          1           0        6.448455   -9.246422   -2.951044
     94          7           0        5.887941   -9.936240   -6.062977
     95          1           0        6.367442  -10.824075   -6.120205
     96          1           0        5.667049   -9.495838   -6.945638
     97          6           0        6.016719   -9.177061   -4.951471
     98          8           0        5.825676   -2.367135   -6.302858
 ---------------------------------------------------------------------

 SCF Done:  E(RB3LYP) =  -2359.95889372     A.U. after    2 cycles

 Alpha  occ. eigenvalues --  -19.26051 -19.22370 -19.20379 -19.16656 -19.15362
 Alpha  occ. eigenvalues --  -19.13368 -19.06036 -19.05192 -14.59116 -14.50424
 Alpha  occ. eigenvalues --  -14.50184 -14.49650 -14.48274 -14.44879 -14.44095
 Alpha  occ. eigenvalues --  -14.40585 -14.38927 -14.35287 -10.46336 -10.42649
 Alpha  occ. eigenvalues --  -10.40521 -10.37312 -10.34120 -10.33254 -10.33116
 Alpha  occ. eigenvalues --  -10.32377 -10.31694 -10.30996 -10.30278 -10.29998
 Alpha  occ. eigenvalues --  -10.29009 -10.28512 -10.27575 -10.27271 -10.25812
 Alpha  occ. eigenvalues --  -10.25432 -10.25303 -10.25058 -10.25000 -10.24717
 Alpha  occ. eigenvalues --  -10.24280 -10.24102 -10.23879 -10.23201 -10.21438
 Alpha  occ. eigenvalues --  -10.21277 -10.21275 -10.20516 -10.20177  -1.18546
 Alpha  occ. eigenvalues --   -1.14891  -1.13000  -1.12320  -1.09664  -1.08547
 Alpha  occ. eigenvalues --   -1.07039  -1.05088  -1.04713  -1.04661  -1.03777
 Alpha  occ. eigenvalues --   -1.03286  -1.00493  -0.99166  -0.97271  -0.95459
 Alpha  occ. eigenvalues --   -0.92690  -0.92520  -0.90287  -0.90257  -0.88380
 Alpha  occ. eigenvalues --   -0.86003  -0.85541  -0.84438  -0.82549  -0.80672
 Alpha  occ. eigenvalues --   -0.80063  -0.79900  -0.78699  -0.78501  -0.76083
 Alpha  occ. eigenvalues --   -0.75151  -0.75033  -0.73307  -0.72742  -0.72347
 Alpha  occ. eigenvalues --   -0.72169  -0.71408  -0.70409  -0.69917  -0.68715
 Alpha  occ. eigenvalues --   -0.68480  -0.67974  -0.66992  -0.65847  -0.65255
 Alpha  occ. eigenvalues --   -0.64287  -0.63956  -0.63279  -0.62790  -0.62433
 Alpha  occ. eigenvalues --   -0.62327  -0.61142  -0.60541  -0.60393  -0.60005
 Alpha  occ. eigenvalues --   -0.59134  -0.58460  -0.58330  -0.57213  -0.56660
 Alpha  occ. eigenvalues --   -0.56419  -0.56163  -0.55414  -0.55160  -0.54871
 Alpha  occ. eigenvalues --   -0.53818  -0.53675  -0.53475  -0.53099  -0.52457
 Alpha  occ. eigenvalues --   -0.52086  -0.51287  -0.51057  -0.50922  -0.50561
 Alpha  occ. eigenvalues --   -0.49933  -0.49788  -0.49555  -0.49205  -0.48740
 Alpha  occ. eigenvalues --   -0.48474  -0.48389  -0.47926  -0.47412  -0.47239
 Alpha  occ. eigenvalues --   -0.46852  -0.46243  -0.45986  -0.45753  -0.45370
 Alpha  occ. eigenvalues --   -0.45202  -0.44407  -0.44241  -0.43710  -0.43009
 Alpha  occ. eigenvalues --   -0.42988  -0.42394  -0.42211  -0.41644  -0.41576
 Alpha  occ. eigenvalues --   -0.41542  -0.41116  -0.40805  -0.40293  -0.39880
 Alpha  occ. eigenvalues --   -0.39787  -0.39678  -0.39647  -0.39030  -0.38490
 Alpha  occ. eigenvalues --   -0.38153  -0.38101  -0.37573  -0.37355  -0.37311
 Alpha  occ. eigenvalues --   -0.36924  -0.36498  -0.35212  -0.34804  -0.34785
 Alpha  occ. eigenvalues --   -0.33873  -0.33598  -0.33395  -0.30765  -0.30645
 Alpha  occ. eigenvalues --   -0.29293  -0.28795  -0.28626  -0.27352  -0.27123
 Alpha  occ. eigenvalues --   -0.26247  -0.21422  -0.20774  -0.19619
 Alpha virt. eigenvalues --   -0.11228  -0.10584  -0.10406  -0.07661  -0.06468
 Alpha virt. eigenvalues --   -0.06101  -0.05651  -0.03868  -0.03627  -0.03404
 Alpha virt. eigenvalues --   -0.02455  -0.01450  -0.01417  -0.01146  -0.00875

 Mulliken charges:
               1
     1  N   -0.759794
     2  H    0.415068
     3  H    0.410956
     4  H    0.439587
     5  C   -0.104982
     6  H    0.221830
     7  C    0.656273
     8  C   -0.484941
     9  H    0.224147
    10  H    0.192161
    11  H    0.195581
    12  O   -0.534354
    13  N   -0.586311
    14  H    0.370029
    15  C   -0.091712
    16  H    0.191633
    17  C    0.664619
    18  C   -0.365375
    19  H    0.171907
    20  H    0.190263
    21  O   -0.549641
    22  C    0.076982
    23  C   -0.020766
    24  H    0.157669
    25  C    0.093827
    26  C    0.297635
    27  C   -0.198667
    28  H    0.117025
    29  N   -0.688734
    30  H    0.335313
    31  C   -0.151805
    32  H    0.138052
    33  C   -0.167855
    34  H    0.131688
    35  C   -0.140794
    36  H    0.133932
    37  N   -0.607296
    38  H    0.353166
    39  C   -0.035900
    40  H    0.177621
    41  C    0.631771
    42  C   -0.075871
    43  H    0.170344
    44  H    0.159407
    45  O   -0.541674
    46  O   -0.628825
    47  H    0.413381
    48  N   -0.602399
    49  H    0.352351
    50  C   -0.067881
    51  H    0.175258
    52  C    0.628749
    53  C   -0.070040
    54  H    0.138362
    55  O   -0.565550
    56  C   -0.450927
    57  H    0.162565
    58  H    0.133943
    59  H    0.151761
    60  C   -0.461571
    61  H    0.147268
    62  H    0.141769
    63  H    0.163436
    64  N   -0.620802
    65  H    0.356541
    66  C   -0.031840
    67  H    0.169195
    68  C    0.599560
    69  C   -0.461597
    70  H    0.183309
    71  H    0.153041
    72  H    0.171872
    73  O   -0.565678
    74  N   -0.621821
    75  H    0.359595
    76  C   -0.063014
    77  H    0.151886
    78  C    0.565316
    79  C   -0.255905
    80  H    0.148023
    81  H    0.144033
    82  O   -0.607408
    83  C   -0.326060
    84  H    0.154948
    85  H    0.195528
    86  C   -0.147538
    87  H    0.171302
    88  H    0.185144
    89  N   -0.597206
    90  H    0.375691
    91  N   -0.756805
    92  H    0.379942
    93  H    0.394848
    94  N   -0.758517
    95  H    0.377852
    96  H    0.382700
    97  C    0.819653
    98  O   -0.599448
 Sum of Mulliken charges =   1.00000

 Dipole moment (field-independent basis, Debye):
    X=            -24.3120    Y=            -12.7235    Z=             13.7355  Tot=             30.6859
 Quadrupole moment (field-independent basis, Debye-Ang):
   XX=            -52.3238   YY=             92.5640   ZZ=           -176.0286
   XY=           -248.2424   XZ=           -135.1541   YZ=            176.5582

 Normal termination of Gaussian 16 at Tue Jun 28 00:57:04 2022.
