 Gaussian 16, Revision C.01,
 Gaussian 16:  ES64L-G16RevC.01  3-Jul-2019

 -------------------------------------------------------------------
 # B3LYP/6-31G* guess=read geom=check nosymm integral(ultrafinegrid)
 -------------------------------------------------------------------

 ------------------------------------------------------
 Candidate Structure: Conf:234 Charge calc in gas phase
 ------------------------------------------------------
 Structure from the checkpoint file:  "conf-234.chk"
 Charge =  1 Multiplicity = 1

                          Input orientation:
 ---------------------------------------------------------------------
 Center     Atomic      Atomic             Coordinates (Angstroms)
 Number     Number       Type             X           Y           Z
 ---------------------------------------------------------------------
      1          7           0       -4.886196    3.386012    7.595234
      2          1           0       -4.874373    2.787830    8.425358
      3          1           0       -5.388412    4.248878    7.821364
      4          1           0       -3.876901    3.598912    7.285481
      5          6           0       -5.418022    2.692361    6.354405
      6          1           0       -5.769559    1.701300    6.651165
      7          6           0       -4.138472    2.575945    5.469680
      8          6           0       -6.539021    3.503630    5.705979
      9          1           0       -6.882308    3.002370    4.796787
     10          1           0       -7.399970    3.596459    6.375994
     11          1           0       -6.190210    4.502473    5.421360
     12          8           0       -3.112293    3.141874    5.890715
     13          7           0       -4.257924    1.886612    4.350063
     14          1           0       -5.163973    1.555027    4.001528
     15          6           0       -3.216633    1.738898    3.325981
     16          1           0       -2.806611    2.730331    3.102162
     17          6           0       -4.006163    1.237664    2.089201
     18          6           0       -2.042740    0.821220    3.786222
     19          1           0       -2.363646   -0.226156    3.746163
     20          1           0       -1.854171    1.059581    4.840000
     21          8           0       -5.240314    1.151445    2.147624
     22          6           0       -0.794403    1.032494    2.980184
     23          6           0       -0.208153    0.143124    2.101594
     24          1           0       -0.526213   -0.848541    1.815330
     25          6           0        0.025340    2.221656    2.960359
     26          6           0        1.076051    1.976053    2.031529
     27          6           0       -0.016433    3.457693    3.632534
     28          1           0       -0.790193    3.663357    4.368908
     29          7           0        0.909052    0.699437    1.535975
     30          1           0        1.427698    0.282367    0.759487
     31          6           0        1.983695    4.148040    2.419339
     32          1           0        2.732432    4.910536    2.224080
     33          6           0        2.058779    2.932187    1.750446
     34          1           0        2.853684    2.726849    1.039086
     35          6           0        0.959599    4.406834    3.353992
     36          1           0        0.940561    5.364348    3.867609
     37          7           0       -3.287282    0.945981    0.993490
     38          1           0       -2.276051    0.842509    1.078075
     39          6           0       -3.901421    0.409475   -0.214808
     40          1           0       -4.768855   -0.199288    0.068548
     41          6           0       -2.854418   -0.500199   -0.897509
     42          6           0       -4.418739    1.559890   -1.097495
     43          1           0       -3.570894    2.136620   -1.493983
     44          1           0       -5.031187    2.220380   -0.471278
     45          8           0       -1.864984   -0.887112   -0.267010
     46          8           0       -5.202132    0.987655   -2.144886
     47          1           0       -5.452386    1.689784   -2.764739
     48          7           0       -3.102923   -0.838369   -2.175879
     49          1           0       -3.891118   -0.392425   -2.640040
     50          6           0       -2.175963   -1.676063   -2.950173
     51          1           0       -1.752664   -2.400716   -2.246683
     52          6           0       -1.043911   -0.762440   -3.488386
     53          6           0       -2.908580   -2.419319   -4.082244
     54          1           0       -3.266969   -1.658039   -4.787998
     55          8           0       -1.109238   -0.225517   -4.591344
     56          6           0       -1.933122   -3.334500   -4.838777
     57          1           0       -1.506292   -4.094427   -4.171130
     58          1           0       -2.456719   -3.860105   -5.644513
     59          1           0       -1.115940   -2.764034   -5.287643
     60          6           0       -4.104349   -3.224915   -3.551794
     61          1           0       -3.776783   -3.991913   -2.838278
     62          1           0       -4.610155   -3.736118   -4.378079
     63          1           0       -4.845297   -2.596198   -3.047101
     64          7           0       -0.004833   -0.594584   -2.629950
     65          1           0       -0.085920   -0.922894   -1.671841
     66          6           0        1.098781    0.309788   -2.922287
     67          1           0        1.370013    0.168717   -3.973093
     68          6           0        2.268933   -0.076269   -2.008276
     69          6           0        0.720952    1.787524   -2.701343
     70          1           0        1.560008    2.445169   -2.953055
     71          1           0        0.446730    1.957725   -1.654685
     72          1           0       -0.125334    2.041954   -3.344971
     73          8           0        2.066830   -0.429808   -0.832932
     74          7           0        3.488532    0.032826   -2.545193
     75          1           0        3.636040    0.318627   -3.512387
     76          6           0        4.743571   -0.148457   -1.826062
     77          1           0        4.657812    0.289690   -0.828386
     78          6           0        5.839799    0.593989   -2.626113
     79          6           0        5.089701   -1.660802   -1.690101
     80          1           0        4.432557   -2.082879   -0.923323
     81          1           0        4.821234   -2.153306   -2.634436
     82          8           0        6.868897    0.901661   -1.929441
     83          6           0        6.566979   -1.957211   -1.352669
     84          1           0        6.963879   -1.169323   -0.707609
     85          1           0        6.637719   -2.906882   -0.806581
     86          6           0        7.429264   -2.048228   -2.628223
     87          1           0        7.155593   -1.283163   -3.355667
     88          1           0        7.265038   -3.015837   -3.117902
     89          7           0        8.875036   -1.929680   -2.393893
     90          1           0        9.328671   -2.685356   -1.897680
     91          7           0        9.126445    0.327406   -2.938453
     92          1           0        9.755067    1.037057   -3.291866
     93          1           0        8.110854    0.653866   -2.596265
     94          7           0       10.992682   -1.042392   -2.574474
     95          1           0       11.598674   -0.245543   -2.706714
     96          1           0       11.374187   -1.930575   -2.869823
     97          6           0        9.639334   -0.850161   -2.647721
     98          8           0        5.673026    0.729518   -3.849056
 ---------------------------------------------------------------------

 SCF Done:  E(RB3LYP) =  -2360.03407972     A.U. after    1 cycles

 Alpha  occ. eigenvalues --  -19.26868 -19.23813 -19.21479 -19.18844 -19.16809
 Alpha  occ. eigenvalues --  -19.15713 -19.13436 -19.12773 -14.59770 -14.48808
 Alpha  occ. eigenvalues --  -14.45406 -14.45149 -14.44507 -14.42420 -14.41858
 Alpha  occ. eigenvalues --  -14.41464 -14.40303 -14.39948 -10.43308 -10.41149
 Alpha  occ. eigenvalues --  -10.40620 -10.38322 -10.36017 -10.33782 -10.33748
 Alpha  occ. eigenvalues --  -10.33512 -10.32913 -10.31853 -10.31401 -10.30845
 Alpha  occ. eigenvalues --  -10.28670 -10.28269 -10.27992 -10.27700 -10.26800
 Alpha  occ. eigenvalues --  -10.26363 -10.25991 -10.24192 -10.23885 -10.23726
 Alpha  occ. eigenvalues --  -10.23477 -10.23392 -10.23386 -10.23347 -10.23015
 Alpha  occ. eigenvalues --  -10.22869 -10.22760 -10.22219 -10.21563  -1.19156
 Alpha  occ. eigenvalues --   -1.13726  -1.13188  -1.11160  -1.10385  -1.09095
 Alpha  occ. eigenvalues --   -1.08427  -1.07414  -1.06494  -1.05556  -1.02232
 Alpha  occ. eigenvalues --   -1.01140  -0.98913  -0.98873  -0.98398  -0.96507
 Alpha  occ. eigenvalues --   -0.96415  -0.96125  -0.93215  -0.88787  -0.88037
 Alpha  occ. eigenvalues --   -0.85947  -0.84721  -0.83942  -0.82842  -0.81888
 Alpha  occ. eigenvalues --   -0.80737  -0.78636  -0.78130  -0.77516  -0.76011
 Alpha  occ. eigenvalues --   -0.74822  -0.73933  -0.73401  -0.73282  -0.72753
 Alpha  occ. eigenvalues --   -0.72300  -0.70288  -0.69747  -0.69237  -0.67163
 Alpha  occ. eigenvalues --   -0.66751  -0.66456  -0.66088  -0.65388  -0.64659
 Alpha  occ. eigenvalues --   -0.63959  -0.63477  -0.63283  -0.62769  -0.62718
 Alpha  occ. eigenvalues --   -0.62089  -0.61688  -0.61168  -0.59822  -0.59065
 Alpha  occ. eigenvalues --   -0.58772  -0.58409  -0.58144  -0.57449  -0.57010
 Alpha  occ. eigenvalues --   -0.55760  -0.55445  -0.55150  -0.54874  -0.54234
 Alpha  occ. eigenvalues --   -0.54104  -0.53712  -0.53201  -0.52743  -0.52481
 Alpha  occ. eigenvalues --   -0.52201  -0.52117  -0.51849  -0.51315  -0.51179
 Alpha  occ. eigenvalues --   -0.50730  -0.50477  -0.50109  -0.49696  -0.49212
 Alpha  occ. eigenvalues --   -0.49068  -0.48525  -0.48146  -0.47916  -0.47166
 Alpha  occ. eigenvalues --   -0.47084  -0.46832  -0.46746  -0.46342  -0.46006
 Alpha  occ. eigenvalues --   -0.45888  -0.45659  -0.45237  -0.45067  -0.44465
 Alpha  occ. eigenvalues --   -0.43941  -0.43646  -0.43130  -0.43045  -0.42885
 Alpha  occ. eigenvalues --   -0.42395  -0.42260  -0.41939  -0.41701  -0.41541
 Alpha  occ. eigenvalues --   -0.41378  -0.40628  -0.40213  -0.39922  -0.39111
 Alpha  occ. eigenvalues --   -0.38869  -0.38768  -0.38250  -0.38219  -0.37800
 Alpha  occ. eigenvalues --   -0.37728  -0.37590  -0.36202  -0.35999  -0.35596
 Alpha  occ. eigenvalues --   -0.34580  -0.33585  -0.33254  -0.32723  -0.32212
 Alpha  occ. eigenvalues --   -0.31336  -0.30808  -0.29543  -0.28937  -0.28620
 Alpha  occ. eigenvalues --   -0.27729  -0.26930  -0.26896  -0.25322
 Alpha virt. eigenvalues --   -0.12052  -0.11109  -0.07055  -0.06171  -0.05916
 Alpha virt. eigenvalues --   -0.05583  -0.04990  -0.04242  -0.03222  -0.02400
 Alpha virt. eigenvalues --   -0.02191  -0.01863  -0.01142  -0.00817  -0.00480

 Mulliken charges:
               1
     1  N   -0.760054
     2  H    0.416593
     3  H    0.413300
     4  H    0.438356
     5  C   -0.104702
     6  H    0.225393
     7  C    0.654126
     8  C   -0.485662
     9  H    0.223338
    10  H    0.194832
    11  H    0.195697
    12  O   -0.541843
    13  N   -0.615132
    14  H    0.376449
    15  C   -0.055438
    16  H    0.212404
    17  C    0.610462
    18  C   -0.359243
    19  H    0.162786
    20  H    0.175263
    21  O   -0.554555
    22  C   -0.004606
    23  C   -0.000653
    24  H    0.183201
    25  C    0.090134
    26  C    0.295529
    27  C   -0.230895
    28  H    0.126022
    29  N   -0.702282
    30  H    0.397797
    31  C   -0.151363
    32  H    0.132330
    33  C   -0.165015
    34  H    0.144529
    35  C   -0.140849
    36  H    0.120210
    37  N   -0.627600
    38  H    0.390967
    39  C   -0.053174
    40  H    0.210829
    41  C    0.599202
    42  C   -0.045822
    43  H    0.152171
    44  H    0.162281
    45  O   -0.549436
    46  O   -0.623105
    47  H    0.418583
    48  N   -0.618864
    49  H    0.374628
    50  C   -0.034610
    51  H    0.165561
    52  C    0.620509
    53  C   -0.096554
    54  H    0.151569
    55  O   -0.537714
    56  C   -0.461650
    57  H    0.139105
    58  H    0.152378
    59  H    0.175505
    60  C   -0.450230
    61  H    0.144324
    62  H    0.155120
    63  H    0.142229
    64  N   -0.617441
    65  H    0.364619
    66  C   -0.028070
    67  H    0.175849
    68  C    0.620948
    69  C   -0.455814
    70  H    0.161410
    71  H    0.152188
    72  H    0.178175
    73  O   -0.581490
    74  N   -0.601829
    75  H    0.356372
    76  C   -0.013160
    77  H    0.162027
    78  C    0.582853
    79  C   -0.282697
    80  H    0.166214
    81  H    0.143895
    82  O   -0.635182
    83  C   -0.269509
    84  H    0.181850
    85  H    0.130276
    86  C   -0.175526
    87  H    0.217639
    88  H    0.161827
    89  N   -0.596760
    90  H    0.344269
    91  N   -0.765911
    92  H    0.338920
    93  H    0.458861
    94  N   -0.762055
    95  H    0.357920
    96  H    0.356860
    97  C    0.762850
    98  O   -0.563036
 Sum of Mulliken charges =   1.00000

 Dipole moment (field-independent basis, Debye):
    X=             -6.0352    Y=              6.7302    Z=             20.5025  Tot=             22.4069
 Quadrupole moment (field-independent basis, Debye-Ang):
   XX=             42.3579   YY=           -227.8311   ZZ=            -96.6071
   XY=           -110.3082   XZ=           -181.1008   YZ=             91.7386

 Normal termination of Gaussian 16 at Tue Jun 28 00:39:20 2022.
