 Gaussian 16, Revision C.01,
 Gaussian 16:  ES64L-G16RevC.01  3-Jul-2019

 -------------------------------------------------------------------
 # B3LYP/6-31G* guess=read geom=check nosymm integral(ultrafinegrid)
 -------------------------------------------------------------------

 ------------------------------------------------------
 Candidate Structure: Conf:962 Charge calc in gas phase
 ------------------------------------------------------
 Structure from the checkpoint file:  "conf-962.chk"
 Charge =  1 Multiplicity = 1

                          Input orientation:
 ---------------------------------------------------------------------
 Center     Atomic      Atomic             Coordinates (Angstroms)
 Number     Number       Type             X           Y           Z
 ---------------------------------------------------------------------
      1          7           0       -9.144428    1.491696    0.869724
      2          1           0       -9.285491    1.597900    1.896530
      3          1           0      -10.002823    1.139926    0.437943
      4          1           0       -8.883649    2.430299    0.489343
      5          6           0       -7.925394    0.643291    0.573659
      6          1           0       -7.872820   -0.131290    1.341330
      7          6           0       -6.781544    1.682136    0.703523
      8          6           0       -8.016452    0.052369   -0.831131
      9          1           0       -7.118907   -0.538727   -1.034757
     10          1           0       -8.882612   -0.611064   -0.932382
     11          1           0       -8.074179    0.845792   -1.583252
     12          8           0       -7.032834    2.832059    0.325040
     13          7           0       -5.650024    1.248337    1.252227
     14          1           0       -5.460971    0.258229    1.425109
     15          6           0       -4.494754    2.078474    1.575570
     16          1           0       -4.412930    2.879393    0.835980
     17          6           0       -3.286947    1.114048    1.516587
     18          6           0       -4.614684    2.686248    3.009399
     19          1           0       -3.719769    3.294097    3.184045
     20          1           0       -4.572295    1.858346    3.728124
     21          8           0       -3.485130   -0.103353    1.621645
     22          6           0       -5.852831    3.508418    3.224265
     23          6           0       -5.975043    4.861579    3.025969
     24          1           0       -5.218797    5.587643    2.759476
     25          6           0       -7.171895    3.035353    3.568268
     26          6           0       -8.049923    4.160570    3.527167
     27          6           0       -7.709367    1.778099    3.898566
     28          1           0       -7.063073    0.908669    3.987651
     29          7           0       -7.285588    5.255275    3.202494
     30          1           0       -7.618019    6.205982    3.139839
     31          6           0       -9.932622    2.788755    4.060426
     32          1           0      -10.992205    2.674427    4.270559
     33          6           0       -9.424441    4.050752    3.765186
     34          1           0      -10.074923    4.920296    3.729326
     35          6           0       -9.081181    1.659712    4.134239
     36          1           0       -9.495479    0.699352    4.431308
     37          7           0       -2.096455    1.704185    1.405002
     38          1           0       -1.999032    2.716972    1.350988
     39          6           0       -0.808492    1.024550    1.441289
     40          1           0       -0.812267    0.280550    2.247279
     41          6           0        0.214424    2.142775    1.725124
     42          6           0       -0.472409    0.315309    0.101082
     43          1           0       -1.350155   -0.274156   -0.183822
     44          1           0        0.354450   -0.386810    0.268415
     45          8           0       -0.148760    3.321067    1.766349
     46          8           0       -0.213320    1.229564   -0.939975
     47          1           0        0.718148    1.524550   -0.865773
     48          7           0        1.496828    1.741463    1.873568
     49          1           0        1.738061    0.758135    1.706900
     50          6           0        2.586386    2.699761    1.708932
     51          1           0        2.099614    3.669361    1.551508
     52          6           0        3.263445    2.370468    0.355036
     53          6           0        3.473496    2.831404    2.974271
     54          1           0        4.267746    3.554785    2.729845
     55          8           0        2.583396    2.045501   -0.619615
     56          6           0        2.652218    3.449941    4.117698
     57          1           0        1.840136    2.778370    4.416421
     58          1           0        3.286136    3.624457    4.993945
     59          1           0        2.204977    4.405195    3.822403
     60          6           0        4.122471    1.516105    3.436224
     61          1           0        3.361963    0.759984    3.654302
     62          1           0        4.702181    1.686001    4.350388
     63          1           0        4.799020    1.085639    2.691131
     64          7           0        4.617012    2.455878    0.268013
     65          1           0        5.154443    2.704430    1.085793
     66          6           0        5.332740    2.069266   -0.949201
     67          1           0        4.847083    2.559363   -1.797584
     68          6           0        5.226208    0.557018   -1.269611
     69          6           0        6.798051    2.504591   -0.870315
     70          1           0        7.312191    2.192358   -1.782397
     71          1           0        7.306128    2.037476   -0.017463
     72          1           0        6.880218    3.592631   -0.776571
     73          8           0        5.475796    0.159478   -2.401408
     74          7           0        4.887377   -0.253165   -0.227957
     75          1           0        4.493062    0.185654    0.597084
     76          6           0        4.286347   -1.562102   -0.448913
     77          1           0        4.092848   -1.653087   -1.523555
     78          6           0        2.925705   -1.572307    0.312955
     79          6           0        5.259523   -2.698951   -0.034865
     80          1           0        6.258497   -2.362694   -0.330030
     81          1           0        5.278109   -2.801504    1.058926
     82          8           0        2.053038   -2.429505   -0.035169
     83          6           0        4.999529   -4.056488   -0.714109
     84          1           0        4.742443   -3.870432   -1.764680
     85          1           0        5.927712   -4.641221   -0.728169
     86          6           0        3.885864   -4.904431   -0.065739
     87          1           0        3.104302   -4.273816    0.358924
     88          1           0        4.278557   -5.525053    0.744359
     89          7           0        3.242825   -5.825608   -1.022170
     90          1           0        3.753697   -6.669200   -1.249153
     91          7           0        1.837691   -4.201991   -1.926390
     92          1           0        1.107480   -3.978639   -2.589317
     93          1           0        2.045379   -3.443727   -1.179053
     94          7           0        2.002768   -6.305542   -2.920290
     95          1           0        1.214330   -6.088093   -3.512893
     96          1           0        2.149423   -7.292012   -2.757799
     97          6           0        2.348329   -5.419914   -1.941701
     98          8           0        2.784273   -0.732882    1.230829
 ---------------------------------------------------------------------

 SCF Done:  E(RB3LYP) =  -2360.03620070     A.U. after    2 cycles

 Alpha  occ. eigenvalues --  -19.23822 -19.19139 -19.17092 -19.17062 -19.16226
 Alpha  occ. eigenvalues --  -19.15028 -19.14460 -19.14454 -14.57587 -14.47538
 Alpha  occ. eigenvalues --  -14.47143 -14.47127 -14.46987 -14.44562 -14.42434
 Alpha  occ. eigenvalues --  -14.41778 -14.39999 -14.38163 -10.42875 -10.41088
 Alpha  occ. eigenvalues --  -10.38813 -10.36205 -10.34197 -10.33892 -10.32530
 Alpha  occ. eigenvalues --  -10.32505 -10.31870 -10.31721 -10.31604 -10.30807
 Alpha  occ. eigenvalues --  -10.29791 -10.28869 -10.28843 -10.28612 -10.28501
 Alpha  occ. eigenvalues --  -10.28456 -10.28299 -10.28122 -10.27947 -10.27746
 Alpha  occ. eigenvalues --  -10.27179 -10.26652 -10.26230 -10.25314 -10.24949
 Alpha  occ. eigenvalues --  -10.23940 -10.23237 -10.22177 -10.21950  -1.16473
 Alpha  occ. eigenvalues --   -1.11649  -1.11409  -1.10924  -1.09369  -1.08557
 Alpha  occ. eigenvalues --   -1.07934  -1.07139  -1.06188  -1.03948  -1.03642
 Alpha  occ. eigenvalues --   -1.00995  -0.99723  -0.99022  -0.98513  -0.97967
 Alpha  occ. eigenvalues --   -0.97009  -0.94863  -0.93794  -0.91298  -0.89357
 Alpha  occ. eigenvalues --   -0.85892  -0.85633  -0.85310  -0.83331  -0.81799
 Alpha  occ. eigenvalues --   -0.81767  -0.80515  -0.79469  -0.79086  -0.75759
 Alpha  occ. eigenvalues --   -0.74932  -0.74423  -0.73049  -0.71919  -0.71820
 Alpha  occ. eigenvalues --   -0.71692  -0.70487  -0.70177  -0.69157  -0.68778
 Alpha  occ. eigenvalues --   -0.68663  -0.68466  -0.66134  -0.65971  -0.65290
 Alpha  occ. eigenvalues --   -0.65043  -0.64776  -0.63899  -0.63124  -0.62686
 Alpha  occ. eigenvalues --   -0.61882  -0.61248  -0.60976  -0.60442  -0.59647
 Alpha  occ. eigenvalues --   -0.59072  -0.58300  -0.58167  -0.57012  -0.56877
 Alpha  occ. eigenvalues --   -0.56143  -0.55824  -0.55385  -0.54789  -0.54200
 Alpha  occ. eigenvalues --   -0.53842  -0.53454  -0.53170  -0.52803  -0.52697
 Alpha  occ. eigenvalues --   -0.52587  -0.52426  -0.52188  -0.51473  -0.51347
 Alpha  occ. eigenvalues --   -0.51040  -0.50543  -0.50246  -0.50086  -0.49769
 Alpha  occ. eigenvalues --   -0.49177  -0.48863  -0.48596  -0.48472  -0.48262
 Alpha  occ. eigenvalues --   -0.47842  -0.47501  -0.47182  -0.46821  -0.46450
 Alpha  occ. eigenvalues --   -0.46131  -0.45749  -0.45535  -0.44965  -0.44449
 Alpha  occ. eigenvalues --   -0.44288  -0.44023  -0.43912  -0.43467  -0.43411
 Alpha  occ. eigenvalues --   -0.43019  -0.42938  -0.42720  -0.42672  -0.42110
 Alpha  occ. eigenvalues --   -0.41983  -0.41700  -0.40827  -0.40144  -0.39601
 Alpha  occ. eigenvalues --   -0.39221  -0.38535  -0.38446  -0.37981  -0.37804
 Alpha  occ. eigenvalues --   -0.37492  -0.37319  -0.36544  -0.35751  -0.35219
 Alpha  occ. eigenvalues --   -0.33529  -0.32997  -0.32652  -0.32266  -0.31313
 Alpha  occ. eigenvalues --   -0.31222  -0.31117  -0.30340  -0.29810  -0.29437
 Alpha  occ. eigenvalues --   -0.29185  -0.28736  -0.27665  -0.27426
 Alpha virt. eigenvalues --   -0.11126  -0.10432  -0.08347  -0.07258  -0.07129
 Alpha virt. eigenvalues --   -0.05314  -0.04636  -0.04002  -0.03014  -0.02030
 Alpha virt. eigenvalues --   -0.01707  -0.01643  -0.01254  -0.00262  -0.00166

 Mulliken charges:
               1
     1  N   -0.755855
     2  H    0.418574
     3  H    0.399674
     4  H    0.420108
     5  C   -0.107443
     6  H    0.201973
     7  C    0.667125
     8  C   -0.472901
     9  H    0.212596
    10  H    0.180122
    11  H    0.199194
    12  O   -0.540028
    13  N   -0.606092
    14  H    0.363666
    15  C   -0.063515
    16  H    0.193461
    17  C    0.639463
    18  C   -0.364397
    19  H    0.181551
    20  H    0.169743
    21  O   -0.560599
    22  C    0.087330
    23  C    0.026320
    24  H    0.178821
    25  C    0.074378
    26  C    0.326296
    27  C   -0.238352
    28  H    0.144988
    29  N   -0.683460
    30  H    0.346228
    31  C   -0.172321
    32  H    0.152267
    33  C   -0.163904
    34  H    0.152996
    35  C   -0.219549
    36  H    0.147918
    37  N   -0.606843
    38  H    0.364200
    39  C   -0.062886
    40  H    0.179633
    41  C    0.607602
    42  C   -0.076328
    43  H    0.150698
    44  H    0.180183
    45  O   -0.547037
    46  O   -0.654578
    47  H    0.440814
    48  N   -0.634107
    49  H    0.409131
    50  C   -0.072753
    51  H    0.204839
    52  C    0.615695
    53  C   -0.103348
    54  H    0.121075
    55  O   -0.532333
    56  C   -0.446647
    57  H    0.156836
    58  H    0.147310
    59  H    0.154620
    60  C   -0.457724
    61  H    0.173516
    62  H    0.149077
    63  H    0.138149
    64  N   -0.640834
    65  H    0.344207
    66  C   -0.011986
    67  H    0.196196
    68  C    0.603279
    69  C   -0.484301
    70  H    0.194219
    71  H    0.150824
    72  H    0.162471
    73  O   -0.529577
    74  N   -0.621016
    75  H    0.371345
    76  C   -0.063564
    77  H    0.165503
    78  C    0.641117
    79  C   -0.267557
    80  H    0.169661
    81  H    0.144977
    82  O   -0.622768
    83  C   -0.279515
    84  H    0.156943
    85  H    0.147747
    86  C   -0.197512
    87  H    0.223472
    88  H    0.171569
    89  N   -0.590162
    90  H    0.346202
    91  N   -0.782201
    92  H    0.349170
    93  H    0.457633
    94  N   -0.762601
    95  H    0.362232
    96  H    0.362055
    97  C    0.786811
    98  O   -0.589211
 Sum of Mulliken charges =   1.00000

 Dipole moment (field-independent basis, Debye):
    X=            -25.2752    Y=             -6.2372    Z=              2.9536  Tot=             26.2004
 Quadrupole moment (field-independent basis, Debye-Ang):
   XX=             42.2459   YY=           -140.4870   ZZ=           -267.7725
   XY=            -83.4754   XZ=            -27.5482   YZ=             63.8801

 Normal termination of Gaussian 16 at Tue Jun 28 00:56:51 2022.
