 Gaussian 16, Revision C.01,
 Gaussian 16:  ES64L-G16RevC.01  3-Jul-2019

 -------------------------------------------------------------------
 # B3LYP/6-31G* guess=read geom=check nosymm integral(ultrafinegrid)
 -------------------------------------------------------------------

 ------------------------------------------------------
 Candidate Structure: Conf:746 Charge calc in gas phase
 ------------------------------------------------------
 Structure from the checkpoint file:  "conf-746.chk"
 Charge =  1 Multiplicity = 1

                          Input orientation:
 ---------------------------------------------------------------------
 Center     Atomic      Atomic             Coordinates (Angstroms)
 Number     Number       Type             X           Y           Z
 ---------------------------------------------------------------------
      1          7           0       -8.356782    4.195920    2.079201
      2          1           0       -8.916224    4.703256    2.770617
      3          1           0       -8.885525    4.142882    1.204209
      4          1           0       -7.426349    4.706983    1.943644
      5          6           0       -7.875133    2.844794    2.574277
      6          1           0       -8.436135    2.595109    3.477626
      7          6           0       -6.378328    3.125261    2.898641
      8          6           0       -8.049927    1.776144    1.494208
      9          1           0       -7.623697    0.829252    1.838013
     10          1           0       -9.108190    1.605516    1.271242
     11          1           0       -7.524117    2.057416    0.575037
     12          8           0       -5.901884    4.193574    2.481529
     13          7           0       -5.753436    2.178340    3.581266
     14          1           0       -6.193095    1.263032    3.706316
     15          6           0       -4.305746    2.073017    3.788517
     16          1           0       -3.808975    2.797313    3.138006
     17          6           0       -3.975534    0.619681    3.362259
     18          6           0       -3.923103    2.299275    5.267722
     19          1           0       -2.865897    2.019876    5.381671
     20          1           0       -4.485899    1.569381    5.864553
     21          8           0       -4.882080   -0.225355    3.358422
     22          6           0       -4.169951    3.683776    5.800445
     23          6           0       -4.134499    4.882412    5.128475
     24          1           0       -3.982556    5.089721    4.078935
     25          6           0       -4.422599    3.999498    7.186942
     26          6           0       -4.534317    5.412600    7.283486
     27          6           0       -4.563808    3.226665    8.353659
     28          1           0       -4.475709    2.143635    8.317126
     29          7           0       -4.365335    5.920299    6.010471
     30          1           0       -4.329210    6.899440    5.772584
     31          6           0       -4.915046    5.272449    9.631551
     32          1           0       -5.102494    5.745167   10.591308
     33          6           0       -4.780057    6.063540    8.497199
     34          1           0       -4.857801    7.146052    8.553700
     35          6           0       -4.809458    3.867723    9.560626
     36          1           0       -4.917244    3.281202   10.468476
     37          7           0       -2.697617    0.379984    3.045260
     38          1           0       -1.978063    1.101550    3.094845
     39          6           0       -2.160683   -0.925435    2.690563
     40          1           0       -2.520691   -1.679629    3.399003
     41          6           0       -0.634896   -0.795286    2.751170
     42          6           0       -2.595707   -1.351663    1.256062
     43          1           0       -2.280773   -0.572370    0.549291
     44          1           0       -3.688004   -1.408108    1.250090
     45          8           0       -0.087480    0.312590    2.860832
     46          8           0       -2.077705   -2.619201    0.905920
     47          1           0       -1.227104   -2.465564    0.439906
     48          7           0        0.016579   -1.981217    2.633603
     49          1           0       -0.574256   -2.746745    2.321256
     50          6           0        1.384420   -2.004531    2.145943
     51          1           0        1.900349   -1.160885    2.612567
     52          6           0        1.353275   -1.769555    0.615050
     53          6           0        2.123734   -3.313033    2.530511
     54          1           0        3.117930   -3.235304    2.069833
     55          8           0        0.301036   -1.958751   -0.045350
     56          6           0        2.310031   -3.414222    4.051013
     57          1           0        1.343527   -3.466242    4.563911
     58          1           0        2.877362   -4.315327    4.310059
     59          1           0        2.852854   -2.547733    4.446499
     60          6           0        1.444560   -4.569640    1.961562
     61          1           0        0.472483   -4.754937    2.435820
     62          1           0        2.063820   -5.452526    2.153133
     63          1           0        1.284926   -4.497887    0.880697
     64          7           0        2.515997   -1.371328    0.067396
     65          1           0        3.365233   -1.233519    0.613379
     66          6           0        2.714728   -1.096288   -1.350297
     67          1           0        2.311395   -1.931976   -1.933326
     68          6           0        4.244839   -1.005132   -1.557252
     69          6           0        2.023015    0.207134   -1.791177
     70          1           0        2.222066    0.412372   -2.847679
     71          1           0        2.398136    1.050678   -1.201414
     72          1           0        0.943822    0.120925   -1.641052
     73          8           0        5.005013   -0.967607   -0.571260
     74          7           0        4.618495   -0.949296   -2.838001
     75          1           0        3.918471   -0.790317   -3.590437
     76          6           0        5.857911   -0.380603   -3.358651
     77          1           0        6.169511    0.459104   -2.722455
     78          6           0        5.483477    0.206905   -4.799265
     79          6           0        7.020738   -1.362597   -3.491074
     80          1           0        6.660859   -2.280678   -3.976265
     81          1           0        7.725044   -0.879990   -4.179532
     82          8           0        6.451510    0.630576   -5.451994
     83          6           0        7.711238   -1.705988   -2.166651
     84          1           0        8.032715   -0.775458   -1.677504
     85          1           0        7.011676   -2.196864   -1.480899
     86          6           0        8.933901   -2.589342   -2.401599
     87          1           0        9.635564   -2.080815   -3.076073
     88          1           0        8.642932   -3.546284   -2.851834
     89          7           0        9.617391   -2.867591   -1.116380
     90          1           0        9.259126   -2.375250   -0.306687
     91          7           0       11.302307   -4.162447   -2.031531
     92          1           0       11.982965   -4.901628   -1.937822
     93          1           0       11.029625   -3.892770   -2.965693
     94          7           0       11.150049   -3.934438    0.268719
     95          1           0       12.074385   -4.318577    0.399019
     96          1           0       10.647715   -3.650532    1.097079
     97          6           0       10.680919   -3.643110   -0.961188
     98          8           0        4.251960    0.149858   -5.071079
 ---------------------------------------------------------------------

 SCF Done:  E(RB3LYP) =  -2359.96741360     A.U. after    1 cycles

 Alpha  occ. eigenvalues --  -19.26684 -19.20765 -19.18613 -19.18235 -19.17635
 Alpha  occ. eigenvalues --  -19.14387 -19.05921 -19.04863 -14.59907 -14.51340
 Alpha  occ. eigenvalues --  -14.51277 -14.50630 -14.48853 -14.44416 -14.44382
 Alpha  occ. eigenvalues --  -14.41483 -14.40753 -14.35730 -10.47410 -10.43263
 Alpha  occ. eigenvalues --  -10.40918 -10.37878 -10.35278 -10.34390 -10.33781
 Alpha  occ. eigenvalues --  -10.33350 -10.32573 -10.30893 -10.29855 -10.28980
 Alpha  occ. eigenvalues --  -10.28742 -10.28521 -10.28194 -10.27978 -10.26718
 Alpha  occ. eigenvalues --  -10.25636 -10.25267 -10.24750 -10.24684 -10.24566
 Alpha  occ. eigenvalues --  -10.24458 -10.24161 -10.23880 -10.23754 -10.22976
 Alpha  occ. eigenvalues --  -10.22918 -10.21608 -10.20877 -10.20778  -1.19035
 Alpha  occ. eigenvalues --   -1.15889  -1.13686  -1.12541  -1.10085  -1.08276
 Alpha  occ. eigenvalues --   -1.06031  -1.05633  -1.05379  -1.04761  -1.04251
 Alpha  occ. eigenvalues --   -1.04243  -1.00734  -0.98939  -0.98696  -0.96900
 Alpha  occ. eigenvalues --   -0.93097  -0.93065  -0.90181  -0.89817  -0.88708
 Alpha  occ. eigenvalues --   -0.87078  -0.86442  -0.84673  -0.82155  -0.81056
 Alpha  occ. eigenvalues --   -0.80781  -0.79556  -0.79413  -0.78098  -0.77013
 Alpha  occ. eigenvalues --   -0.75825  -0.75332  -0.73946  -0.73847  -0.73836
 Alpha  occ. eigenvalues --   -0.72791  -0.71973  -0.71450  -0.70064  -0.69386
 Alpha  occ. eigenvalues --   -0.68626  -0.68307  -0.66937  -0.65953  -0.65154
 Alpha  occ. eigenvalues --   -0.65050  -0.64465  -0.64182  -0.63498  -0.63047
 Alpha  occ. eigenvalues --   -0.62872  -0.62574  -0.62047  -0.60642  -0.60048
 Alpha  occ. eigenvalues --   -0.59300  -0.58788  -0.58419  -0.57898  -0.57671
 Alpha  occ. eigenvalues --   -0.57109  -0.56309  -0.55497  -0.54675  -0.54284
 Alpha  occ. eigenvalues --   -0.54252  -0.53943  -0.53817  -0.53226  -0.53040
 Alpha  occ. eigenvalues --   -0.52878  -0.51913  -0.51774  -0.51056  -0.50833
 Alpha  occ. eigenvalues --   -0.50356  -0.49828  -0.49631  -0.49263  -0.49008
 Alpha  occ. eigenvalues --   -0.48821  -0.48434  -0.48294  -0.48084  -0.47884
 Alpha  occ. eigenvalues --   -0.47322  -0.47084  -0.46577  -0.46401  -0.46269
 Alpha  occ. eigenvalues --   -0.45613  -0.45005  -0.44723  -0.44383  -0.43808
 Alpha  occ. eigenvalues --   -0.43492  -0.43433  -0.43172  -0.42404  -0.42369
 Alpha  occ. eigenvalues --   -0.42088  -0.41332  -0.41312  -0.41111  -0.40012
 Alpha  occ. eigenvalues --   -0.39741  -0.39722  -0.39617  -0.39303  -0.39223
 Alpha  occ. eigenvalues --   -0.39098  -0.38710  -0.38550  -0.37646  -0.37608
 Alpha  occ. eigenvalues --   -0.37460  -0.36353  -0.35504  -0.35274  -0.34818
 Alpha  occ. eigenvalues --   -0.33424  -0.33323  -0.32877  -0.32416  -0.31482
 Alpha  occ. eigenvalues --   -0.30606  -0.30072  -0.28510  -0.28250  -0.27111
 Alpha  occ. eigenvalues --   -0.26566  -0.20986  -0.20804  -0.19216
 Alpha virt. eigenvalues --   -0.11799  -0.11040  -0.10935  -0.07624  -0.07165
 Alpha virt. eigenvalues --   -0.06560  -0.06032  -0.04704  -0.04000  -0.03536
 Alpha virt. eigenvalues --   -0.03447  -0.03267  -0.02667  -0.02036  -0.01165

 Mulliken charges:
               1
     1  N   -0.755253
     2  H    0.418146
     3  H    0.414870
     4  H    0.434212
     5  C   -0.111459
     6  H    0.225308
     7  C    0.656805
     8  C   -0.486638
     9  H    0.229920
    10  H    0.194861
    11  H    0.197216
    12  O   -0.543420
    13  N   -0.568719
    14  H    0.369489
    15  C   -0.105687
    16  H    0.192460
    17  C    0.642955
    18  C   -0.344626
    19  H    0.182458
    20  H    0.162647
    21  O   -0.555032
    22  C    0.065585
    23  C   -0.011648
    24  H    0.164030
    25  C    0.074347
    26  C    0.311933
    27  C   -0.212606
    28  H    0.126121
    29  N   -0.697198
    30  H    0.333137
    31  C   -0.150339
    32  H    0.137790
    33  C   -0.162563
    34  H    0.131938
    35  C   -0.138606
    36  H    0.133958
    37  N   -0.622886
    38  H    0.364228
    39  C   -0.064698
    40  H    0.189398
    41  C    0.603216
    42  C   -0.037439
    43  H    0.145373
    44  H    0.164695
    45  O   -0.542012
    46  O   -0.655244
    47  H    0.452479
    48  N   -0.600145
    49  H    0.355856
    50  C   -0.080001
    51  H    0.184668
    52  C    0.660892
    53  C   -0.086940
    54  H    0.140161
    55  O   -0.595380
    56  C   -0.443919
    57  H    0.157962
    58  H    0.148398
    59  H    0.146848
    60  C   -0.473891
    61  H    0.151870
    62  H    0.154249
    63  H    0.170234
    64  N   -0.610327
    65  H    0.355599
    66  C   -0.036685
    67  H    0.178239
    68  C    0.596422
    69  C   -0.462856
    70  H    0.197256
    71  H    0.152749
    72  H    0.166989
    73  O   -0.589426
    74  N   -0.608057
    75  H    0.365883
    76  C   -0.074422
    77  H    0.138339
    78  C    0.585374
    79  C   -0.263781
    80  H    0.131964
    81  H    0.175244
    82  O   -0.584409
    83  C   -0.314983
    84  H    0.151665
    85  H    0.179767
    86  C   -0.148847
    87  H    0.182324
    88  H    0.183187
    89  N   -0.606619
    90  H    0.370244
    91  N   -0.760392
    92  H    0.381444
    93  H    0.399783
    94  N   -0.769085
    95  H    0.380875
    96  H    0.383131
    97  C    0.841607
    98  O   -0.612561
 Sum of Mulliken charges =   1.00000

 Dipole moment (field-independent basis, Debye):
    X=             -3.0790    Y=             -0.7973    Z=             20.9899  Tot=             21.2295
 Quadrupole moment (field-independent basis, Debye-Ang):
   XX=            350.8356   YY=           -151.8266   ZZ=           -322.3067
   XY=           -307.8636   XZ=            -26.6836   YZ=             63.0511

 Normal termination of Gaussian 16 at Tue Jun 28 00:56:43 2022.
