 Gaussian 16, Revision C.01,
 Gaussian 16:  ES64L-G16RevC.01  3-Jul-2019

 -------------------------------------------------------------------
 # B3LYP/6-31G* guess=read geom=check nosymm integral(ultrafinegrid)
 -------------------------------------------------------------------

 ------------------------------------------------------
 Candidate Structure: Conf:883 Charge calc in gas phase
 ------------------------------------------------------
 Structure from the checkpoint file:  "conf-883.chk"
 Charge =  1 Multiplicity = 1

                          Input orientation:
 ---------------------------------------------------------------------
 Center     Atomic      Atomic             Coordinates (Angstroms)
 Number     Number       Type             X           Y           Z
 ---------------------------------------------------------------------
      1          7           0       -6.810247    3.811644    0.073578
      2          1           0       -7.361356    4.673120    0.134381
      3          1           0       -7.058382    3.320106   -0.790267
      4          1           0       -5.783396    4.065443    0.075991
      5          6           0       -6.928305    2.928539    1.305172
      6          1           0       -7.838408    3.209877    1.840344
      7          6           0       -5.639173    3.261584    2.096729
      8          6           0       -6.933059    1.453880    0.884624
      9          1           0       -6.938725    0.814209    1.770578
     10          1           0       -7.820341    1.225289    0.284553
     11          1           0       -6.018598    1.207050    0.332870
     12          8           0       -4.720060    3.814613    1.472769
     13          7           0       -5.575701    2.861315    3.370774
     14          1           0       -6.332013    2.267181    3.695954
     15          6           0       -4.263288    2.519383    3.976756
     16          1           0       -3.587069    3.354727    3.788318
     17          6           0       -3.825937    1.243253    3.217841
     18          6           0       -4.417957    2.276513    5.488440
     19          1           0       -5.079677    1.413170    5.633872
     20          1           0       -4.914885    3.151290    5.928516
     21          8           0       -4.651481    0.343113    3.058174
     22          6           0       -3.090682    2.028321    6.141244
     23          6           0       -2.594794    0.817030    6.561946
     24          1           0       -3.057211   -0.160740    6.542041
     25          6           0       -2.063218    3.008384    6.402921
     26          6           0       -0.967906    2.314991    6.985959
     27          6           0       -1.962346    4.399131    6.213881
     28          1           0       -2.787516    4.964490    5.786080
     29          7           0       -1.326143    0.983595    7.070109
     30          1           0       -0.748967    0.245947    7.443974
     31          6           0        0.279128    4.337261    7.168146
     32          1           0        1.178603    4.872961    7.456859
     33          6           0        0.208397    2.964952    7.372988
     34          1           0        1.036328    2.419248    7.816974
     35          6           0       -0.796096    5.048470    6.596406
     36          1           0       -0.707939    6.122196    6.457928
     37          7           0       -2.593892    1.260016    2.666908
     38          1           0       -1.867511    1.891455    2.996213
     39          6           0       -2.150484    0.236840    1.733877
     40          1           0       -2.793224   -0.636510    1.864798
     41          6           0       -0.673932   -0.064015    2.035532
     42          6           0       -2.278380    0.776049    0.276863
     43          1           0       -2.228930   -0.056947   -0.429322
     44          1           0       -1.433841    1.449311    0.072774
     45          8           0        0.032029    0.808439    2.542088
     46          8           0       -3.512083    1.443729    0.043401
     47          1           0       -3.492253    2.256778    0.575754
     48          7           0       -0.247869   -1.287861    1.664924
     49          1           0       -0.858592   -1.922522    1.156581
     50          6           0        1.156340   -1.691937    1.622440
     51          1           0        1.765062   -0.782405    1.656046
     52          6           0        1.306598   -2.422591    0.270537
     53          6           0        1.538884   -2.612743    2.818547
     54          1           0        0.944321   -3.531004    2.709256
     55          8           0        0.361225   -3.086672   -0.168191
     56          6           0        3.028407   -2.989991    2.788472
     57          1           0        3.662852   -2.097379    2.867160
     58          1           0        3.268865   -3.637946    3.638235
     59          1           0        3.310414   -3.521993    1.875591
     60          6           0        1.181118   -1.958360    4.160961
     61          1           0        1.719002   -1.012747    4.294815
     62          1           0        1.453442   -2.626395    4.986211
     63          1           0        0.110123   -1.748144    4.236756
     64          7           0        2.483071   -2.279703   -0.362584
     65          1           0        3.270447   -1.784563    0.052469
     66          6           0        2.830776   -2.980000   -1.591376
     67          1           0        2.501996   -4.022986   -1.507021
     68          6           0        4.373328   -2.927066   -1.676337
     69          6           0        2.162390   -2.346714   -2.823908
     70          1           0        2.419609   -2.896029   -3.735088
     71          1           0        2.486869   -1.307728   -2.944025
     72          1           0        1.076643   -2.370849   -2.699246
     73          8           0        5.018653   -2.221007   -0.891537
     74          7           0        4.921900   -3.670179   -2.647980
     75          1           0        4.371847   -4.237093   -3.292107
     76          6           0        6.339248   -3.674220   -2.993761
     77          1           0        6.722914   -2.649531   -2.965019
     78          6           0        6.429131   -4.249473   -4.431947
     79          6           0        7.129966   -4.554944   -1.986269
     80          1           0        6.736808   -4.314350   -0.992780
     81          1           0        6.879240   -5.607221   -2.177473
     82          8           0        7.513896   -3.972810   -5.056211
     83          6           0        8.656531   -4.367768   -1.906974
     84          1           0        8.884372   -3.306769   -1.740017
     85          1           0        9.008657   -4.889957   -1.004330
     86          6           0        9.516507   -4.814305   -3.098645
     87          1           0       10.573888   -4.630122   -2.868715
     88          1           0        9.238152   -4.245635   -3.982770
     89          7           0        9.366073   -6.248910   -3.402243
     90          1           0        9.461263   -6.886146   -2.621734
     91          7           0        8.713800   -6.139187   -5.646997
     92          1           0        8.610549   -6.643235   -6.517650
     93          1           0        8.162333   -5.189169   -5.535577
     94          7           0        9.274477   -8.180871   -4.652335
     95          1           0        9.043076   -8.658060   -5.511280
     96          1           0        9.992909   -8.617463   -4.092128
     97          6           0        9.113627   -6.824098   -4.591401
     98          8           0        5.499431   -4.973123   -4.819644
 ---------------------------------------------------------------------

 SCF Done:  E(RB3LYP) =  -2360.01231532     A.U. after    3 cycles

 Alpha  occ. eigenvalues --  -19.27973 -19.23205 -19.20574 -19.18434 -19.16764
 Alpha  occ. eigenvalues --  -19.15521 -19.12536 -19.11950 -14.60712 -14.50105
 Alpha  occ. eigenvalues --  -14.45140 -14.44810 -14.44754 -14.44506 -14.42538
 Alpha  occ. eigenvalues --  -14.41549 -14.40691 -14.38769 -10.44400 -10.41468
 Alpha  occ. eigenvalues --  -10.40380 -10.37967 -10.35763 -10.33958 -10.33909
 Alpha  occ. eigenvalues --  -10.32512 -10.32369 -10.31612 -10.30874 -10.30083
 Alpha  occ. eigenvalues --  -10.28858 -10.28848 -10.28696 -10.28100 -10.27892
 Alpha  occ. eigenvalues --  -10.27551 -10.25394 -10.25149 -10.25057 -10.24869
 Alpha  occ. eigenvalues --  -10.24811 -10.24803 -10.24236 -10.24015 -10.24006
 Alpha  occ. eigenvalues --  -10.22686 -10.22586 -10.22540 -10.22444  -1.20159
 Alpha  occ. eigenvalues --   -1.14611  -1.12769  -1.10595  -1.10094  -1.08782
 Alpha  occ. eigenvalues --   -1.08663  -1.07175  -1.06491  -1.05641  -1.04419
 Alpha  occ. eigenvalues --   -1.00915  -0.98981  -0.98464  -0.97650  -0.97175
 Alpha  occ. eigenvalues --   -0.95886  -0.95144  -0.93288  -0.90132  -0.89060
 Alpha  occ. eigenvalues --   -0.86433  -0.84655  -0.84160  -0.83053  -0.81719
 Alpha  occ. eigenvalues --   -0.80850  -0.79598  -0.78420  -0.78127  -0.76509
 Alpha  occ. eigenvalues --   -0.75301  -0.74523  -0.73545  -0.73433  -0.73024
 Alpha  occ. eigenvalues --   -0.72695  -0.71342  -0.70165  -0.69471  -0.68429
 Alpha  occ. eigenvalues --   -0.67470  -0.66419  -0.66322  -0.65558  -0.65297
 Alpha  occ. eigenvalues --   -0.64726  -0.63622  -0.63483  -0.63118  -0.62807
 Alpha  occ. eigenvalues --   -0.62070  -0.61700  -0.61008  -0.60400  -0.59973
 Alpha  occ. eigenvalues --   -0.59190  -0.59038  -0.58251  -0.58113  -0.57123
 Alpha  occ. eigenvalues --   -0.56159  -0.55480  -0.54825  -0.54344  -0.54263
 Alpha  occ. eigenvalues --   -0.53694  -0.53392  -0.53304  -0.52760  -0.52431
 Alpha  occ. eigenvalues --   -0.52306  -0.52090  -0.51516  -0.51443  -0.51269
 Alpha  occ. eigenvalues --   -0.51089  -0.50874  -0.49698  -0.49224  -0.49154
 Alpha  occ. eigenvalues --   -0.49059  -0.48706  -0.48632  -0.48436  -0.47930
 Alpha  occ. eigenvalues --   -0.47833  -0.47518  -0.47043  -0.46610  -0.46508
 Alpha  occ. eigenvalues --   -0.46271  -0.45747  -0.45273  -0.44808  -0.44552
 Alpha  occ. eigenvalues --   -0.44336  -0.44319  -0.43910  -0.43541  -0.43143
 Alpha  occ. eigenvalues --   -0.42373  -0.42312  -0.41978  -0.41533  -0.41448
 Alpha  occ. eigenvalues --   -0.41235  -0.40952  -0.40559  -0.40541  -0.39632
 Alpha  occ. eigenvalues --   -0.39603  -0.39350  -0.39036  -0.38866  -0.38373
 Alpha  occ. eigenvalues --   -0.38214  -0.37175  -0.36536  -0.35587  -0.35017
 Alpha  occ. eigenvalues --   -0.33959  -0.33680  -0.32793  -0.32621  -0.31970
 Alpha  occ. eigenvalues --   -0.30819  -0.30298  -0.29641  -0.29367  -0.28407
 Alpha  occ. eigenvalues --   -0.27890  -0.26912  -0.26823  -0.26085
 Alpha virt. eigenvalues --   -0.13854  -0.11410  -0.07552  -0.07186  -0.06348
 Alpha virt. eigenvalues --   -0.05154  -0.05053  -0.04908  -0.03471  -0.02874
 Alpha virt. eigenvalues --   -0.02492  -0.02217  -0.01703  -0.01134  -0.00348

 Mulliken charges:
               1
     1  N   -0.746273
     2  H    0.418538
     3  H    0.421634
     4  H    0.434936
     5  C   -0.122113
     6  H    0.216690
     7  C    0.660439
     8  C   -0.498117
     9  H    0.230694
    10  H    0.182962
    11  H    0.233312
    12  O   -0.541783
    13  N   -0.569443
    14  H    0.356443
    15  C   -0.066727
    16  H    0.195475
    17  C    0.624166
    18  C   -0.377749
    19  H    0.164554
    20  H    0.171033
    21  O   -0.548197
    22  C    0.041305
    23  C    0.012891
    24  H    0.164655
    25  C    0.081139
    26  C    0.318410
    27  C   -0.217753
    28  H    0.114452
    29  N   -0.685448
    30  H    0.339740
    31  C   -0.148926
    32  H    0.140192
    33  C   -0.153814
    34  H    0.137963
    35  C   -0.135500
    36  H    0.132693
    37  N   -0.612643
    38  H    0.367401
    39  C   -0.076789
    40  H    0.191206
    41  C    0.619410
    42  C   -0.048414
    43  H    0.173762
    44  H    0.155062
    45  O   -0.537778
    46  O   -0.644531
    47  H    0.415634
    48  N   -0.608939
    49  H    0.352753
    50  C   -0.051314
    51  H    0.173415
    52  C    0.616848
    53  C   -0.070552
    54  H    0.141114
    55  O   -0.557779
    56  C   -0.465273
    57  H    0.150686
    58  H    0.153250
    59  H    0.162048
    60  C   -0.447573
    61  H    0.159310
    62  H    0.143582
    63  H    0.142101
    64  N   -0.612457
    65  H    0.360839
    66  C   -0.039390
    67  H    0.177007
    68  C    0.619493
    69  C   -0.450916
    70  H    0.164947
    71  H    0.157141
    72  H    0.175776
    73  O   -0.560506
    74  N   -0.619811
    75  H    0.353926
    76  C   -0.022594
    77  H    0.162046
    78  C    0.582985
    79  C   -0.266521
    80  H    0.166783
    81  H    0.133348
    82  O   -0.634596
    83  C   -0.285947
    84  H    0.165199
    85  H    0.129798
    86  C   -0.160014
    87  H    0.155759
    88  H    0.233824
    89  N   -0.600378
    90  H    0.340082
    91  N   -0.763818
    92  H    0.340037
    93  H    0.449725
    94  N   -0.763722
    95  H    0.359598
    96  H    0.355636
    97  C    0.773061
    98  O   -0.554808
 Sum of Mulliken charges =   1.00000

 Dipole moment (field-independent basis, Debye):
    X=            -12.2277    Y=              0.5898    Z=              3.9634  Tot=             12.8676
 Quadrupole moment (field-independent basis, Debye-Ang):
   XX=             60.8810   YY=           -123.0017   ZZ=           -229.4334
   XY=           -233.9376   XZ=            -62.6183   YZ=             48.2528

 Normal termination of Gaussian 16 at Tue Jun 28 00:57:11 2022.
