 Gaussian 16, Revision C.01,
 Gaussian 16:  ES64L-G16RevC.01  3-Jul-2019

 -------------------------------------------------------------------
 # B3LYP/6-31G* guess=read geom=check nosymm integral(ultrafinegrid)
 -------------------------------------------------------------------

 ------------------------------------------------------
 Candidate Structure: Conf:449 Charge calc in gas phase
 ------------------------------------------------------
 Structure from the checkpoint file:  "conf-449.chk"
 Charge =  1 Multiplicity = 1

                          Input orientation:
 ---------------------------------------------------------------------
 Center     Atomic      Atomic             Coordinates (Angstroms)
 Number     Number       Type             X           Y           Z
 ---------------------------------------------------------------------
      1          7           0       -4.320760   -2.152690   -0.128138
      2          1           0       -2.725782   -2.391988   -0.330423
      3          1           0       -4.787365   -2.999782   -0.454444
      4          1           0       -4.588472   -2.031380    0.850904
      5          6           0       -4.803938   -0.974408   -0.891419
      6          1           0       -4.272279   -0.969994   -1.850076
      7          6           0       -4.415077    0.259328   -0.056321
      8          6           0       -6.316470   -0.987105   -1.135320
      9          1           0       -6.621106   -0.127442   -1.742458
     10          1           0       -6.613378   -1.897332   -1.669233
     11          1           0       -6.850839   -0.939468   -0.181842
     12          8           0       -4.915751    0.421644    1.058997
     13          7           0       -3.506342    1.079747   -0.617865
     14          1           0       -3.127906    0.894415   -1.543204
     15          6           0       -2.988210    2.297726   -0.011308
     16          1           0       -3.814797    2.995257    0.175336
     17          6           0       -2.045177    2.893023   -1.076811
     18          6           0       -2.259215    2.024300    1.344550
     19          1           0       -1.260909    1.621898    1.138484
     20          1           0       -2.831353    1.236508    1.842155
     21          8           0       -1.937088    2.356945   -2.188421
     22          6           0       -2.185634    3.216999    2.254977
     23          6           0       -1.070963    3.937445    2.622015
     24          1           0       -0.034726    3.794688    2.344063
     25          6           0       -3.301046    3.809004    2.959076
     26          6           0       -2.790110    4.889188    3.726500
     27          6           0       -4.674934    3.509803    3.023318
     28          1           0       -5.081217    2.668868    2.467067
     29          7           0       -1.427580    4.941868    3.501988
     30          1           0       -0.790304    5.598296    3.925288
     31          6           0       -4.963712    5.374051    4.570299
     32          1           0       -5.629318    5.970281    5.188123
     33          6           0       -3.609740    5.684615    4.534824
     34          1           0       -3.205540    6.509931    5.115008
     35          6           0       -5.489754    4.296573    3.826780
     36          1           0       -6.552127    4.078742    3.889548
     37          7           0       -1.297142    3.955032   -0.721171
     38          1           0       -1.457551    4.389771    0.181349
     39          6           0       -0.351759    4.585751   -1.646965
     40          1           0       -0.799853    4.533027   -2.646169
     41          6           0        1.018476    3.853898   -1.688421
     42          6           0       -0.145578    6.049603   -1.267245
     43          1           0        0.526203    6.504382   -2.004529
     44          1           0        0.357907    6.110974   -0.289506
     45          8           0        2.078009    4.470206   -1.591310
     46          8           0       -1.426392    6.662147   -1.240355
     47          1           0       -1.302276    7.607450   -1.067655
     48          7           0        0.937399    2.507441   -1.833223
     49          1           0        0.032926    2.076508   -2.022764
     50          6           0        2.094339    1.629063   -1.876227
     51          1           0        2.789387    1.976509   -2.653903
     52          6           0        1.545472    0.240913   -2.248341
     53          6           0        2.878677    1.620801   -0.520985
     54          1           0        3.025542    2.683342   -0.303119
     55          8           0        0.352702   -0.034023   -2.093403
     56          6           0        2.071675    0.990910    0.620766
     57          1           0        1.937115   -0.088479    0.474170
     58          1           0        2.585991    1.138228    1.577559
     59          1           0        1.077752    1.442525    0.698451
     60          6           0        4.271547    0.987310   -0.644439
     61          1           0        4.219573   -0.098943   -0.788862
     62          1           0        4.846898    1.165064    0.270991
     63          1           0        4.842279    1.422965   -1.474237
     64          7           0        2.429384   -0.674357   -2.720246
     65          1           0        3.383775   -0.392779   -2.899195
     66          6           0        1.997335   -1.984469   -3.231674
     67          1           0        1.015895   -1.825810   -3.694236
     68          6           0        1.804264   -3.026228   -2.095144
     69          6           0        2.992723   -2.488357   -4.271635
     70          1           0        2.658612   -3.443966   -4.680929
     71          1           0        3.978320   -2.655467   -3.825047
     72          1           0        3.082124   -1.767657   -5.090634
     73          8           0        2.487574   -4.049250   -2.037211
     74          7           0        0.819882   -2.732754   -1.205280
     75          1           0        0.243284   -1.909819   -1.382883
     76          6           0        0.320700   -3.717090   -0.253052
     77          1           0        0.381384   -4.705402   -0.728191
     78          6           0       -1.169184   -3.489943    0.077726
     79          6           0        1.103369   -3.789059    1.078030
     80          1           0        1.176942   -2.778827    1.502243
     81          1           0        0.491608   -4.388201    1.761759
     82          8           0       -1.735218   -4.192840    0.895837
     83          6           0        2.496581   -4.413925    0.945748
     84          1           0        2.419128   -5.375095    0.424357
     85          1           0        3.144036   -3.780326    0.330874
     86          6           0        3.143484   -4.639099    2.313096
     87          1           0        2.522395   -5.302001    2.927085
     88          1           0        3.271163   -3.686581    2.844560
     89          7           0        4.463925   -5.279300    2.130666
     90          1           0        4.851020   -5.248230    1.194696
     91          7           0        4.833221   -5.755251    4.370130
     92          1           0        5.210448   -6.376189    5.071818
     93          1           0        4.097028   -5.125675    4.654751
     94          7           0        6.266401   -6.600329    2.761457
     95          1           0        6.955206   -6.847897    3.457513
     96          1           0        6.470457   -6.844635    1.802777
     97          6           0        5.181899   -5.870873    3.079960
     98          8           0       -1.722027   -2.495791   -0.594217
 ---------------------------------------------------------------------

 SCF Done:  E(RB3LYP) =  -2360.04166922     A.U. after    1 cycles

 Alpha  occ. eigenvalues --  -19.22922 -19.20159 -19.19948 -19.18877 -19.18650
 Alpha  occ. eigenvalues --  -19.18618 -19.17299 -19.17224 -14.54242 -14.54076
 Alpha  occ. eigenvalues --  -14.53937 -14.44638 -14.43190 -14.42597 -14.42280
 Alpha  occ. eigenvalues --  -14.41680 -14.41356 -14.40937 -10.50462 -10.37460
 Alpha  occ. eigenvalues --  -10.36874 -10.36715 -10.35803 -10.35531 -10.34472
 Alpha  occ. eigenvalues --  -10.34434 -10.31120 -10.30964 -10.30414 -10.29759
 Alpha  occ. eigenvalues --  -10.29757 -10.29374 -10.29285 -10.29169 -10.27907
 Alpha  occ. eigenvalues --  -10.27486 -10.26638 -10.26362 -10.25442 -10.25114
 Alpha  occ. eigenvalues --  -10.25031 -10.24456 -10.23977 -10.23855 -10.23344
 Alpha  occ. eigenvalues --  -10.22976 -10.22797 -10.22542 -10.22161  -1.18881
 Alpha  occ. eigenvalues --   -1.14684  -1.12094  -1.10843  -1.10390  -1.09088
 Alpha  occ. eigenvalues --   -1.08836  -1.07951  -1.07525  -1.07111  -1.05905
 Alpha  occ. eigenvalues --   -1.02976  -1.00665  -0.99086  -0.99008  -0.98178
 Alpha  occ. eigenvalues --   -0.97778  -0.97096  -0.91545  -0.88267  -0.87572
 Alpha  occ. eigenvalues --   -0.86123  -0.85722  -0.84003  -0.83007  -0.81502
 Alpha  occ. eigenvalues --   -0.81202  -0.79602  -0.78325  -0.77929  -0.77880
 Alpha  occ. eigenvalues --   -0.76692  -0.76340  -0.75715  -0.73165  -0.73027
 Alpha  occ. eigenvalues --   -0.72204  -0.70437  -0.70050  -0.69004  -0.67551
 Alpha  occ. eigenvalues --   -0.67520  -0.66856  -0.66768  -0.66131  -0.65940
 Alpha  occ. eigenvalues --   -0.65593  -0.64208  -0.63941  -0.63557  -0.62729
 Alpha  occ. eigenvalues --   -0.61876  -0.60976  -0.60809  -0.60687  -0.60251
 Alpha  occ. eigenvalues --   -0.59566  -0.58430  -0.58043  -0.57283  -0.57207
 Alpha  occ. eigenvalues --   -0.56555  -0.55414  -0.54912  -0.54452  -0.54254
 Alpha  occ. eigenvalues --   -0.54148  -0.53400  -0.53212  -0.52972  -0.52405
 Alpha  occ. eigenvalues --   -0.52197  -0.51710  -0.51489  -0.51100  -0.50967
 Alpha  occ. eigenvalues --   -0.50657  -0.50468  -0.49266  -0.48610  -0.48518
 Alpha  occ. eigenvalues --   -0.48278  -0.47705  -0.47576  -0.47388  -0.47349
 Alpha  occ. eigenvalues --   -0.47095  -0.46912  -0.46855  -0.46804  -0.46575
 Alpha  occ. eigenvalues --   -0.46420  -0.46020  -0.45730  -0.45634  -0.45399
 Alpha  occ. eigenvalues --   -0.45259  -0.45111  -0.44956  -0.44451  -0.44213
 Alpha  occ. eigenvalues --   -0.43551  -0.43401  -0.43276  -0.42935  -0.42795
 Alpha  occ. eigenvalues --   -0.42709  -0.42562  -0.42368  -0.42012  -0.41196
 Alpha  occ. eigenvalues --   -0.40934  -0.40557  -0.40289  -0.39431  -0.39226
 Alpha  occ. eigenvalues --   -0.37840  -0.37669  -0.36203  -0.35585  -0.34340
 Alpha  occ. eigenvalues --   -0.34026  -0.33736  -0.33294  -0.33183  -0.32605
 Alpha  occ. eigenvalues --   -0.31926  -0.31810  -0.31478  -0.31298  -0.30944
 Alpha  occ. eigenvalues --   -0.30647  -0.29605  -0.26888  -0.25213
 Alpha virt. eigenvalues --   -0.14122  -0.10167  -0.06396  -0.06342  -0.05913
 Alpha virt. eigenvalues --   -0.05561  -0.05249  -0.05026  -0.04803  -0.04360
 Alpha virt. eigenvalues --   -0.03754  -0.02646  -0.01845  -0.01768  -0.00401

 Mulliken charges:
               1
     1  N   -0.785444
     2  H    0.482127
     3  H    0.335371
     4  H    0.349490
     5  C   -0.042967
     6  H    0.152448
     7  C    0.629301
     8  C   -0.458448
     9  H    0.167942
    10  H    0.149964
    11  H    0.181755
    12  O   -0.538106
    13  N   -0.629823
    14  H    0.369803
    15  C   -0.027170
    16  H    0.199526
    17  C    0.609288
    18  C   -0.380542
    19  H    0.158950
    20  H    0.201078
    21  O   -0.554529
    22  C    0.037537
    23  C   -0.029844
    24  H    0.154001
    25  C    0.077395
    26  C    0.312482
    27  C   -0.220625
    28  H    0.168911
    29  N   -0.686929
    30  H    0.331144
    31  C   -0.146722
    32  H    0.133550
    33  C   -0.163186
    34  H    0.128022
    35  C   -0.144244
    36  H    0.132180
    37  N   -0.605045
    38  H    0.363098
    39  C   -0.073141
    40  H    0.206044
    41  C    0.625079
    42  C   -0.052598
    43  H    0.164662
    44  H    0.131240
    45  O   -0.536043
    46  O   -0.620553
    47  H    0.404920
    48  N   -0.669002
    49  H    0.413133
    50  C   -0.013075
    51  H    0.163224
    52  C    0.617408
    53  C   -0.081098
    54  H    0.186547
    55  O   -0.543722
    56  C   -0.478994
    57  H    0.141579
    58  H    0.141984
    59  H    0.172869
    60  C   -0.472457
    61  H    0.129973
    62  H    0.154845
    63  H    0.154007
    64  N   -0.610131
    65  H    0.340583
    66  C   -0.055795
    67  H    0.192642
    68  C    0.614768
    69  C   -0.466889
    70  H    0.184354
    71  H    0.157158
    72  H    0.160292
    73  O   -0.546236
    74  N   -0.638173
    75  H    0.406727
    76  C   -0.040936
    77  H    0.187168
    78  C    0.585161
    79  C   -0.277789
    80  H    0.152645
    81  H    0.178596
    82  O   -0.493476
    83  C   -0.308402
    84  H    0.176163
    85  H    0.177275
    86  C   -0.147977
    87  H    0.186077
    88  H    0.183043
    89  N   -0.607484
    90  H    0.374098
    91  N   -0.756436
    92  H    0.387977
    93  H    0.397061
    94  N   -0.763603
    95  H    0.387181
    96  H    0.388774
    97  C    0.838733
    98  O   -0.621718
 Sum of Mulliken charges =   1.00000

 Dipole moment (field-independent basis, Debye):
    X=             21.1530    Y=            -18.3373    Z=             11.8058  Tot=             30.3823
 Quadrupole moment (field-independent basis, Debye-Ang):
   XX=           -147.0405   YY=           -115.3366   ZZ=           -219.7569
   XY=           -126.7287   XZ=             73.8096   YZ=            -57.1510

 Normal termination of Gaussian 16 at Tue Jun 28 00:39:24 2022.
