 Gaussian 16, Revision C.01,
 Gaussian 16:  ES64L-G16RevC.01  3-Jul-2019

 -------------------------------------------------------------------
 # B3LYP/6-31G* guess=read geom=check nosymm integral(ultrafinegrid)
 -------------------------------------------------------------------

 ------------------------------------------------------
 Candidate Structure: Conf:102 Charge calc in gas phase
 ------------------------------------------------------
 Structure from the checkpoint file:  "conf-102.chk"
 Charge =  1 Multiplicity = 1

                          Input orientation:
 ---------------------------------------------------------------------
 Center     Atomic      Atomic             Coordinates (Angstroms)
 Number     Number       Type             X           Y           Z
 ---------------------------------------------------------------------
      1          7           0       -1.032968    4.548938    0.581412
      2          1           0       -1.054050    5.519468    0.271335
      3          1           0        0.107077    3.628375   -0.243862
      4          1           0       -0.633366    4.524507    1.521360
      5          6           0       -2.411005    4.018653    0.664968
      6          1           0       -3.042844    4.681914    1.280698
      7          6           0       -2.316546    2.715765    1.477196
      8          6           0       -3.031804    3.914147   -0.729791
      9          1           0       -4.079723    3.597425   -0.679574
     10          1           0       -3.028820    4.900920   -1.206212
     11          1           0       -2.463404    3.237197   -1.371641
     12          8           0       -1.439166    2.602671    2.340645
     13          7           0       -3.232416    1.746287    1.244527
     14          1           0       -4.005026    1.954952    0.623960
     15          6           0       -3.469686    0.652984    2.199304
     16          1           0       -3.262890    1.055563    3.198485
     17          6           0       -2.504551   -0.541809    1.975805
     18          6           0       -4.934577    0.175645    2.103643
     19          1           0       -5.096978   -0.532046    2.924345
     20          1           0       -5.048653   -0.411580    1.186021
     21          8           0       -2.908019   -1.678664    1.743041
     22          6           0       -5.944137    1.286329    2.135972
     23          6           0       -6.791583    1.633611    1.109261
     24          1           0       -6.917500    1.174226    0.137340
     25          6           0       -6.227993    2.196980    3.221633
     26          6           0       -7.260801    3.068597    2.779233
     27          6           0       -5.722952    2.354729    4.525413
     28          1           0       -4.943454    1.697572    4.902363
     29          7           0       -7.577256    2.705577    1.484656
     30          1           0       -8.323728    3.100664    0.933798
     31          6           0       -7.265810    4.209222    4.871632
     32          1           0       -7.655148    4.980905    5.529469
     33          6           0       -7.788405    4.078645    3.590823
     34          1           0       -8.579875    4.733666    3.236590
     35          6           0       -6.243900    3.355081    5.335371
     36          1           0       -5.863488    3.481932    6.344848
     37          7           0       -1.185804   -0.234353    2.094327
     38          1           0       -0.906057    0.735944    2.257216
     39          6           0       -0.148526   -1.235607    1.965936
     40          1           0       -0.357859   -2.087769    2.624310
     41          6           0        1.187174   -0.578743    2.298999
     42          6           0       -0.063297   -1.757137    0.502844
     43          1           0        0.077584   -0.889970   -0.149795
     44          1           0       -1.011373   -2.241974    0.268132
     45          8           0        1.405994    0.603686    2.046123
     46          8           0        0.971658   -2.727209    0.299804
     47          1           0        1.859266   -2.291168    0.343466
     48          7           0        2.156327   -1.408477    2.779617
     49          1           0        1.961576   -2.402284    2.785464
     50          6           0        3.551469   -0.998849    2.657151
     51          1           0        3.681572   -0.075379    3.232606
     52          6           0        3.835859   -0.725747    1.163835
     53          6           0        4.488994   -2.092313    3.226262
     54          1           0        4.289380   -3.009468    2.651814
     55          8           0        3.489608   -1.541011    0.293668
     56          6           0        5.968925   -1.728324    3.033213
     57          1           0        6.215229   -0.786689    3.540350
     58          1           0        6.604229   -2.507090    3.466695
     59          1           0        6.241222   -1.630841    1.977659
     60          6           0        4.188631   -2.355170    4.710561
     61          1           0        4.391765   -1.461554    5.313018
     62          1           0        4.825910   -3.162282    5.086622
     63          1           0        3.146938   -2.641382    4.885157
     64          7           0        4.470271    0.426709    0.875239
     65          1           0        4.678932    1.045309    1.647270
     66          6           0        4.986110    0.798083   -0.450493
     67          1           0        5.348628    1.826811   -0.335679
     68          6           0        3.908678    0.871758   -1.559993
     69          6           0        6.158499   -0.088645   -0.883818
     70          1           0        6.517925    0.236118   -1.861311
     71          1           0        5.839929   -1.131226   -0.963068
     72          1           0        6.973550   -0.016013   -0.157031
     73          8           0        4.249468    0.730529   -2.731517
     74          7           0        2.633664    1.166606   -1.194019
     75          1           0        2.396056    1.350711   -0.225402
     76          6           0        1.633379    1.454821   -2.215355
     77          1           0        2.171485    1.869568   -3.074802
     78          6           0        0.610720    2.498199   -1.747359
     79          6           0        0.836549    0.215097   -2.702289
     80          1           0        0.077009   -0.034276   -1.950655
     81          1           0        0.280840    0.525411   -3.593397
     82          8           0       -0.364924    2.758240   -2.430552
     83          6           0        1.687174   -1.026601   -2.990775
     84          1           0        2.415745   -0.810890   -3.779846
     85          1           0        2.263444   -1.302051   -2.101199
     86          6           0        0.796907   -2.203970   -3.399863
     87          1           0        0.216835   -1.961956   -4.297570
     88          1           0        0.077350   -2.455172   -2.616365
     89          7           0        1.565162   -3.424132   -3.705335
     90          1           0        2.158658   -3.382850   -4.524507
     91          7           0        1.187640   -4.604476   -1.721851
     92          1           0        1.066433   -5.513439   -1.297310
     93          1           0        1.054324   -3.788432   -1.094056
     94          7           0        2.178682   -5.644005   -3.535949
     95          1           0        2.527944   -6.400339   -2.966067
     96          1           0        2.304792   -5.715667   -4.534965
     97          6           0        1.643140   -4.537704   -2.971510
     98          8           0        0.880965    3.019096   -0.560453
 ---------------------------------------------------------------------

 SCF Done:  E(RB3LYP) =  -2360.07362025     A.U. after    1 cycles

 Alpha  occ. eigenvalues --  -19.25482 -19.23498 -19.22584 -19.21251 -19.19752
 Alpha  occ. eigenvalues --  -19.19117 -19.18723 -19.18509 -14.51187 -14.51182
 Alpha  occ. eigenvalues --  -14.49439 -14.46725 -14.45676 -14.43988 -14.43815
 Alpha  occ. eigenvalues --  -14.43104 -14.42439 -14.41712 -10.47205 -10.39166
 Alpha  occ. eigenvalues --  -10.38035 -10.37794 -10.36634 -10.36306 -10.35591
 Alpha  occ. eigenvalues --  -10.34213 -10.32984 -10.32589 -10.32523 -10.31924
 Alpha  occ. eigenvalues --  -10.30896 -10.30747 -10.30583 -10.29179 -10.28076
 Alpha  occ. eigenvalues --  -10.27710 -10.27501 -10.27191 -10.26267 -10.25903
 Alpha  occ. eigenvalues --  -10.25779 -10.25383 -10.25165 -10.24478 -10.24239
 Alpha  occ. eigenvalues --  -10.24037 -10.23987 -10.23712 -10.23285  -1.15478
 Alpha  occ. eigenvalues --   -1.15105  -1.14480  -1.12999  -1.11763  -1.11707
 Alpha  occ. eigenvalues --   -1.10759  -1.10196  -1.06361  -1.04946  -1.03682
 Alpha  occ. eigenvalues --   -1.03199  -1.02759  -1.02224  -1.00351  -0.99385
 Alpha  occ. eigenvalues --   -0.99252  -0.97779  -0.89972  -0.89443  -0.89226
 Alpha  occ. eigenvalues --   -0.86944  -0.85999  -0.84978  -0.83748  -0.82952
 Alpha  occ. eigenvalues --   -0.80825  -0.79706  -0.79024  -0.78887  -0.77567
 Alpha  occ. eigenvalues --   -0.77107  -0.76110  -0.74641  -0.73669  -0.72835
 Alpha  occ. eigenvalues --   -0.72683  -0.71020  -0.70445  -0.69626  -0.68831
 Alpha  occ. eigenvalues --   -0.68296  -0.67729  -0.66564  -0.66155  -0.65689
 Alpha  occ. eigenvalues --   -0.64967  -0.64787  -0.64675  -0.64585  -0.63574
 Alpha  occ. eigenvalues --   -0.63078  -0.62080  -0.61784  -0.60895  -0.60351
 Alpha  occ. eigenvalues --   -0.59751  -0.59062  -0.59007  -0.58400  -0.57301
 Alpha  occ. eigenvalues --   -0.57223  -0.57078  -0.56086  -0.55693  -0.55627
 Alpha  occ. eigenvalues --   -0.55090  -0.54544  -0.53998  -0.53737  -0.53551
 Alpha  occ. eigenvalues --   -0.53065  -0.52644  -0.52637  -0.52441  -0.52045
 Alpha  occ. eigenvalues --   -0.51722  -0.51463  -0.50765  -0.50410  -0.49806
 Alpha  occ. eigenvalues --   -0.49473  -0.49344  -0.49060  -0.48766  -0.48593
 Alpha  occ. eigenvalues --   -0.48422  -0.48251  -0.47766  -0.47601  -0.47358
 Alpha  occ. eigenvalues --   -0.46935  -0.46685  -0.46618  -0.46197  -0.45895
 Alpha  occ. eigenvalues --   -0.45699  -0.45454  -0.45241  -0.44929  -0.44632
 Alpha  occ. eigenvalues --   -0.44384  -0.44227  -0.43962  -0.43861  -0.43539
 Alpha  occ. eigenvalues --   -0.43185  -0.42908  -0.42832  -0.42609  -0.42456
 Alpha  occ. eigenvalues --   -0.42124  -0.42003  -0.41652  -0.40502  -0.39299
 Alpha  occ. eigenvalues --   -0.38742  -0.38651  -0.38646  -0.37233  -0.36833
 Alpha  occ. eigenvalues --   -0.36596  -0.35465  -0.35378  -0.35024  -0.34488
 Alpha  occ. eigenvalues --   -0.33905  -0.33096  -0.32909  -0.32361  -0.32100
 Alpha  occ. eigenvalues --   -0.31637  -0.31196  -0.27780  -0.26115
 Alpha virt. eigenvalues --   -0.11340  -0.09061  -0.07581  -0.07416  -0.06731
 Alpha virt. eigenvalues --   -0.06036  -0.05547  -0.04813  -0.04627  -0.03340
 Alpha virt. eigenvalues --   -0.03020  -0.02918  -0.01944  -0.01394  -0.00423

 Mulliken charges:
               1
     1  N   -0.772397
     2  H    0.331414
     3  H    0.470989
     4  H    0.353635
     5  C   -0.067047
     6  H    0.176373
     7  C    0.638860
     8  C   -0.480134
     9  H    0.146043
    10  H    0.162762
    11  H    0.210103
    12  O   -0.546556
    13  N   -0.607358
    14  H    0.343220
    15  C   -0.063125
    16  H    0.190665
    17  C    0.638024
    18  C   -0.382878
    19  H    0.180935
    20  H    0.166660
    21  O   -0.534169
    22  C    0.050396
    23  C   -0.018709
    24  H    0.155323
    25  C    0.086610
    26  C    0.308905
    27  C   -0.211255
    28  H    0.125935
    29  N   -0.686106
    30  H    0.335275
    31  C   -0.149709
    32  H    0.137216
    33  C   -0.161596
    34  H    0.133347
    35  C   -0.139050
    36  H    0.132464
    37  N   -0.664871
    38  H    0.408315
    39  C   -0.013593
    40  H    0.172724
    41  C    0.583615
    42  C   -0.077669
    43  H    0.162306
    44  H    0.195701
    45  O   -0.527012
    46  O   -0.702950
    47  H    0.458529
    48  N   -0.603652
    49  H    0.340348
    50  C   -0.023813
    51  H    0.168304
    52  C    0.647723
    53  C   -0.113317
    54  H    0.140215
    55  O   -0.582846
    56  C   -0.469092
    57  H    0.149672
    58  H    0.170024
    59  H    0.163555
    60  C   -0.447855
    61  H    0.159630
    62  H    0.165184
    63  H    0.154275
    64  N   -0.594908
    65  H    0.354246
    66  C   -0.069288
    67  H    0.185805
    68  C    0.649445
    69  C   -0.444245
    70  H    0.193495
    71  H    0.169828
    72  H    0.149542
    73  O   -0.535758
    74  N   -0.627787
    75  H    0.372625
    76  C   -0.049810
    77  H    0.204727
    78  C    0.590883
    79  C   -0.280478
    80  H    0.146678
    81  H    0.175283
    82  O   -0.489510
    83  C   -0.286276
    84  H    0.174718
    85  H    0.175230
    86  C   -0.168259
    87  H    0.186992
    88  H    0.182665
    89  N   -0.593968
    90  H    0.360337
    91  N   -0.787527
    92  H    0.365892
    93  H    0.439500
    94  N   -0.765561
    95  H    0.377385
    96  H    0.376860
    97  C    0.807782
    98  O   -0.615056
 Sum of Mulliken charges =   1.00000

 Dipole moment (field-independent basis, Debye):
    X=              4.9824    Y=             -9.8298    Z=             -4.4778  Tot=             11.8954
 Quadrupole moment (field-independent basis, Debye-Ang):
   XX=           -195.7400   YY=           -169.1911   ZZ=           -236.3764
   XY=            -66.0344   XZ=              6.6597   YZ=             53.6226

 Normal termination of Gaussian 16 at Tue Jun 28 00:24:25 2022.
