 Gaussian 16, Revision C.01,
 Gaussian 16:  ES64L-G16RevC.01  3-Jul-2019

 -------------------------------------------------------------------
 # B3LYP/6-31G* guess=read geom=check nosymm integral(ultrafinegrid)
 -------------------------------------------------------------------

 ------------------------------------------------------
 Candidate Structure: Conf:474 Charge calc in gas phase
 ------------------------------------------------------
 Structure from the checkpoint file:  "conf-474.chk"
 Charge =  1 Multiplicity = 1

                          Input orientation:
 ---------------------------------------------------------------------
 Center     Atomic      Atomic             Coordinates (Angstroms)
 Number     Number       Type             X           Y           Z
 ---------------------------------------------------------------------
      1          7           0       -5.787674    1.399646   -0.119632
      2          1           0       -6.374956    0.656145   -0.508054
      3          1           0       -5.401352    1.119380    0.816965
      4          1           0       -4.911702    1.498584   -0.690239
      5          6           0       -6.546409    2.723417    0.000605
      6          1           0       -6.661019    3.104092   -1.016134
      7          6           0       -5.510522    3.622519    0.712839
      8          6           0       -7.900695    2.506093    0.661803
      9          1           0       -8.413740    3.467033    0.764069
     10          1           0       -8.534186    1.860948    0.043132
     11          1           0       -7.825909    2.055908    1.657492
     12          8           0       -4.622975    4.139899    0.033797
     13          7           0       -5.487865    3.594363    2.064166
     14          1           0       -6.265299    3.188100    2.572802
     15          6           0       -4.176041    3.551219    2.737331
     16          1           0       -3.657989    4.494794    2.549687
     17          6           0       -3.451161    2.360822    2.062974
     18          6           0       -4.334196    3.302392    4.263496
     19          1           0       -3.393837    3.600728    4.739100
     20          1           0       -4.434249    2.222508    4.421026
     21          8           0       -4.054694    1.273987    1.955434
     22          6           0       -5.505134    4.002609    4.887119
     23          6           0       -5.560683    5.270926    5.413930
     24          1           0       -4.775869    6.005951    5.532164
     25          6           0       -6.837657    3.457981    4.993469
     26          6           0       -7.655159    4.459345    5.586664
     27          6           0       -7.416038    2.217310    4.656689
     28          1           0       -6.804949    1.411915    4.251926
     29          7           0       -6.845172    5.549722    5.829046
     30          1           0       -7.132247    6.399951    6.290343
     31          6           0       -9.562292    3.030603    5.480048
     32          1           0      -10.615674    2.843184    5.665274
     33          6           0       -9.016812    4.259223    5.835191
     34          1           0       -9.627835    5.031929    6.293297
     35          6           0       -8.770879    2.017541    4.900415
     36          1           0       -9.225471    1.059632    4.663823
     37          7           0       -2.237934    2.568085    1.545550
     38          1           0       -1.710480    3.423363    1.707719
     39          6           0       -1.553195    1.584519    0.719539
     40          1           0       -1.900249    0.592833    1.016717
     41          6           0       -0.043425    1.781324    0.966860
     42          6           0       -1.845773    1.827631   -0.790634
     43          1           0       -1.528577    0.950876   -1.361488
     44          1           0       -1.260238    2.688933   -1.132528
     45          8           0        0.365370    2.902286    1.275165
     46          8           0       -3.225599    2.052714   -1.094395
     47          1           0       -3.438182    2.986462   -0.896789
     48          7           0        0.717027    0.689998    0.788237
     49          1           0        0.319318   -0.163703    0.405683
     50          6           0        2.178258    0.692765    0.799998
     51          1           0        2.500676    1.727784    0.635447
     52          6           0        2.565259   -0.188620   -0.411710
     53          6           0        2.768078    0.187396    2.159715
     54          1           0        2.631300   -0.898823    2.212301
     55          8           0        1.749824   -0.959941   -0.915895
     56          6           0        4.277200    0.463659    2.259472
     57          1           0        4.504514    1.530525    2.120294
     58          1           0        4.634648    0.175662    3.252411
     59          1           0        4.861814   -0.126156    1.548885
     60          6           0        2.046913    0.843469    3.347567
     61          1           0        2.135667    1.936144    3.324204
     62          1           0        2.488943    0.483561    4.282467
     63          1           0        0.983080    0.588984    3.369856
     64          7           0        3.828586   -0.056790   -0.897147
     65          1           0        4.465380    0.587423   -0.448693
     66          6           0        4.308780   -0.836082   -2.034931
     67          1           0        3.486945   -0.902532   -2.754995
     68          6           0        4.658234   -2.296108   -1.691412
     69          6           0        5.509015   -0.142164   -2.689108
     70          1           0        5.860536   -0.742441   -3.531023
     71          1           0        6.337753   -0.035375   -1.978616
     72          1           0        5.229884    0.851117   -3.054353
     73          8           0        4.885162   -3.083618   -2.651936
     74          7           0        4.730296   -2.633718   -0.417117
     75          1           0        4.351740   -2.042254    0.340925
     76          6           0        4.788032   -3.996979    0.095367
     77          1           0        4.184564   -4.635546   -0.557554
     78          6           0        4.078147   -3.968956    1.508146
     79          6           0        6.227619   -4.555884    0.203678
     80          1           0        6.884633   -4.056470   -0.524142
     81          1           0        6.626602   -4.310300    1.192641
     82          8           0        3.976670   -5.076424    2.056106
     83          6           0        6.275053   -6.082334    0.003494
     84          1           0        7.115331   -6.514982    0.560135
     85          1           0        5.361683   -6.511275    0.428167
     86          6           0        6.472102   -6.498426   -1.464198
     87          1           0        6.365344   -7.581970   -1.575793
     88          1           0        7.488349   -6.251464   -1.791615
     89          7           0        5.559717   -5.812065   -2.393319
     90          1           0        5.583476   -4.778301   -2.393672
     91          7           0        4.318172   -7.632219   -3.221048
     92          1           0        3.372855   -7.963588   -3.352201
     93          1           0        4.952321   -8.288693   -2.791157
     94          7           0        3.599744   -5.448823   -3.537719
     95          1           0        3.034624   -5.734675   -4.324144
     96          1           0        3.776962   -4.449064   -3.399594
     97          6           0        4.509331   -6.303825   -3.031311
     98          8           0        3.725933   -2.813569    1.885990
 ---------------------------------------------------------------------

 SCF Done:  E(RB3LYP) =  -2360.01033307     A.U. after    3 cycles

 Alpha  occ. eigenvalues --  -19.26373 -19.25202 -19.23166 -19.19810 -19.18788
 Alpha  occ. eigenvalues --  -19.18544 -19.09427 -19.08147 -14.56537 -14.48199
 Alpha  occ. eigenvalues --  -14.47347 -14.47300 -14.46380 -14.45786 -14.45575
 Alpha  occ. eigenvalues --  -14.43722 -14.43355 -14.40237 -10.42748 -10.42261
 Alpha  occ. eigenvalues --  -10.40268 -10.39067 -10.37202 -10.35876 -10.34837
 Alpha  occ. eigenvalues --  -10.34818 -10.34098 -10.33018 -10.32048 -10.30895
 Alpha  occ. eigenvalues --  -10.30528 -10.30199 -10.30198 -10.29845 -10.29519
 Alpha  occ. eigenvalues --  -10.27206 -10.27197 -10.27042 -10.27032 -10.27002
 Alpha  occ. eigenvalues --  -10.26466 -10.26400 -10.25142 -10.24760 -10.24038
 Alpha  occ. eigenvalues --  -10.23909 -10.23129 -10.22214 -10.21740  -1.17552
 Alpha  occ. eigenvalues --   -1.14786  -1.13006  -1.11863  -1.11374  -1.11117
 Alpha  occ. eigenvalues --   -1.10714  -1.09030  -1.06308  -1.04780  -1.03254
 Alpha  occ. eigenvalues --   -1.02354  -1.00715  -1.00380  -0.99701  -0.99322
 Alpha  occ. eigenvalues --   -0.96745  -0.93586  -0.92219  -0.91654  -0.89495
 Alpha  occ. eigenvalues --   -0.87591  -0.85808  -0.85382  -0.84403  -0.83365
 Alpha  occ. eigenvalues --   -0.81801  -0.80517  -0.79433  -0.79394  -0.77812
 Alpha  occ. eigenvalues --   -0.76985  -0.74704  -0.74293  -0.72937  -0.72290
 Alpha  occ. eigenvalues --   -0.72052  -0.70641  -0.70504  -0.70069  -0.69724
 Alpha  occ. eigenvalues --   -0.68284  -0.68166  -0.67582  -0.67377  -0.66695
 Alpha  occ. eigenvalues --   -0.65680  -0.65495  -0.64471  -0.63624  -0.63554
 Alpha  occ. eigenvalues --   -0.62747  -0.62381  -0.62186  -0.61535  -0.61094
 Alpha  occ. eigenvalues --   -0.60323  -0.60103  -0.59405  -0.58991  -0.58123
 Alpha  occ. eigenvalues --   -0.57202  -0.56786  -0.56337  -0.55983  -0.55657
 Alpha  occ. eigenvalues --   -0.55430  -0.55154  -0.54379  -0.54011  -0.53391
 Alpha  occ. eigenvalues --   -0.53091  -0.52616  -0.52605  -0.52249  -0.51821
 Alpha  occ. eigenvalues --   -0.51746  -0.51587  -0.51269  -0.51203  -0.51050
 Alpha  occ. eigenvalues --   -0.50846  -0.50595  -0.50298  -0.49373  -0.48998
 Alpha  occ. eigenvalues --   -0.48630  -0.48485  -0.48277  -0.48074  -0.47987
 Alpha  occ. eigenvalues --   -0.47564  -0.46794  -0.46422  -0.46120  -0.45721
 Alpha  occ. eigenvalues --   -0.45379  -0.45159  -0.44500  -0.44054  -0.43998
 Alpha  occ. eigenvalues --   -0.43531  -0.43518  -0.43013  -0.42484  -0.41853
 Alpha  occ. eigenvalues --   -0.41748  -0.41579  -0.40387  -0.40218  -0.40011
 Alpha  occ. eigenvalues --   -0.39548  -0.39133  -0.39131  -0.38871  -0.38611
 Alpha  occ. eigenvalues --   -0.38364  -0.37966  -0.37672  -0.37000  -0.36371
 Alpha  occ. eigenvalues --   -0.35954  -0.35782  -0.35148  -0.34767  -0.33903
 Alpha  occ. eigenvalues --   -0.33026  -0.32350  -0.31607  -0.30961  -0.30589
 Alpha  occ. eigenvalues --   -0.28737  -0.24388  -0.24345  -0.22398
 Alpha virt. eigenvalues --   -0.13840  -0.10073  -0.09482  -0.07341  -0.07006
 Alpha virt. eigenvalues --   -0.06252  -0.05920  -0.04612  -0.04296  -0.03388
 Alpha virt. eigenvalues --   -0.02927  -0.01638  -0.00732  -0.00100  -0.00019

 Mulliken charges:
               1
     1  N   -0.788541
     2  H    0.398121
     3  H    0.437394
     4  H    0.439646
     5  C   -0.089348
     6  H    0.220981
     7  C    0.596683
     8  C   -0.489767
     9  H    0.215927
    10  H    0.184812
    11  H    0.186821
    12  O   -0.516624
    13  N   -0.585626
    14  H    0.368726
    15  C   -0.007529
    16  H    0.184311
    17  C    0.610673
    18  C   -0.411842
    19  H    0.183607
    20  H    0.191349
    21  O   -0.594768
    22  C    0.064794
    23  C    0.013670
    24  H    0.170044
    25  C    0.059240
    26  C    0.320139
    27  C   -0.250435
    28  H    0.131997
    29  N   -0.685956
    30  H    0.344718
    31  C   -0.151724
    32  H    0.147098
    33  C   -0.154585
    34  H    0.147160
    35  C   -0.139990
    36  H    0.136510
    37  N   -0.578910
    38  H    0.368665
    39  C   -0.083210
    40  H    0.192941
    41  C    0.622021
    42  C   -0.050300
    43  H    0.182537
    44  H    0.173760
    45  O   -0.540046
    46  O   -0.667722
    47  H    0.449629
    48  N   -0.599272
    49  H    0.356761
    50  C   -0.070787
    51  H    0.171766
    52  C    0.624787
    53  C   -0.092199
    54  H    0.217543
    55  O   -0.538099
    56  C   -0.466510
    57  H    0.127946
    58  H    0.175561
    59  H    0.143487
    60  C   -0.449969
    61  H    0.150509
    62  H    0.160774
    63  H    0.134930
    64  N   -0.629390
    65  H    0.344715
    66  C   -0.013001
    67  H    0.184608
    68  C    0.630299
    69  C   -0.480373
    70  H    0.188868
    71  H    0.159530
    72  H    0.165806
    73  O   -0.626598
    74  N   -0.599342
    75  H    0.396774
    76  C   -0.080429
    77  H    0.132862
    78  C    0.584246
    79  C   -0.279318
    80  H    0.125813
    81  H    0.177201
    82  O   -0.571071
    83  C   -0.265170
    84  H    0.154583
    85  H    0.193460
    86  C   -0.174150
    87  H    0.145092
    88  H    0.183341
    89  N   -0.603531
    90  H    0.416487
    91  N   -0.754710
    92  H    0.368800
    93  H    0.373251
    94  N   -0.777599
    95  H    0.355165
    96  H    0.412768
    97  C    0.769293
    98  O   -0.612556
 Sum of Mulliken charges =   1.00000

 Dipole moment (field-independent basis, Debye):
    X=            -16.5672    Y=              2.7011    Z=             -6.1491  Tot=             17.8768
 Quadrupole moment (field-independent basis, Debye-Ang):
   XX=            -60.0024   YY=           -148.6313   ZZ=           -237.9275
   XY=           -114.8355   XZ=            -88.0048   YZ=            116.7985

 Normal termination of Gaussian 16 at Tue Jun 28 00:57:28 2022.
