 Gaussian 16, Revision C.01,
 Gaussian 16:  ES64L-G16RevC.01  3-Jul-2019

 -------------------------------------------------------------------
 # B3LYP/6-31G* guess=read geom=check nosymm integral(ultrafinegrid)
 -------------------------------------------------------------------

 ------------------------------------------------------
 Candidate Structure: Conf:205 Charge calc in gas phase
 ------------------------------------------------------
 Structure from the checkpoint file:  "conf-205.chk"
 Charge =  1 Multiplicity = 1

                          Input orientation:
 ---------------------------------------------------------------------
 Center     Atomic      Atomic             Coordinates (Angstroms)
 Number     Number       Type             X           Y           Z
 ---------------------------------------------------------------------
      1          7           0        0.544458    2.606679    1.430262
      2          1           0        1.130673    3.055090    0.704741
      3          1           0        0.588368    1.582105    1.082041
      4          1           0        0.959885    2.641038    2.368030
      5          6           0       -0.854520    3.126269    1.507587
      6          1           0       -0.792862    4.195238    1.743678
      7          6           0       -1.437476    2.398857    2.739301
      8          6           0       -1.570310    2.920442    0.173979
      9          1           0       -2.551642    3.405599    0.185964
     10          1           0       -0.990979    3.369947   -0.638410
     11          1           0       -1.695100    1.856264   -0.048013
     12          8           0       -0.664761    2.101838    3.657651
     13          7           0       -2.741289    2.086516    2.729203
     14          1           0       -3.327379    2.389921    1.962400
     15          6           0       -3.360737    1.285933    3.797142
     16          1           0       -2.802627    1.517611    4.709340
     17          6           0       -3.181382   -0.220460    3.451287
     18          6           0       -4.851245    1.640540    3.971540
     19          1           0       -5.193087    1.156548    4.892064
     20          1           0       -5.416761    1.158629    3.166858
     21          8           0       -4.141475   -0.948174    3.223334
     22          6           0       -5.124521    3.117350    4.001888
     23          6           0       -5.121513    3.950648    5.093522
     24          1           0       -4.972216    3.716594    6.139133
     25          6           0       -5.389368    3.954953    2.856597
     26          6           0       -5.523089    5.290565    3.328669
     27          6           0       -5.534881    3.707752    1.477461
     28          1           0       -5.500396    2.691170    1.087977
     29          7           0       -5.352013    5.253816    4.696613
     30          1           0       -5.451045    6.040586    5.319622
     31          6           0       -5.900351    6.090011    1.112098
     32          1           0       -6.102723    6.902651    0.420500
     33          6           0       -5.778189    6.364602    2.469698
     34          1           0       -5.881461    7.378209    2.847813
     35          6           0       -5.783624    4.773901    0.619505
     36          1           0       -5.913224    4.590679   -0.443548
     37          7           0       -1.889308   -0.634371    3.367727
     38          1           0       -1.118344   -0.019944    3.622152
     39          6           0       -1.536399   -1.960268    2.901695
     40          1           0       -2.142071   -2.711876    3.420909
     41          6           0       -0.049620   -2.184604    3.172604
     42          6           0       -1.813058   -2.118056    1.372206
     43          1           0       -1.215561   -1.373935    0.827761
     44          1           0       -2.873971   -1.910436    1.216360
     45          8           0        0.725801   -1.271093    3.437404
     46          8           0       -1.558536   -3.435814    0.911221
     47          1           0       -0.635809   -3.470796    0.592444
     48          7           0        0.336051   -3.491547    3.041612
     49          1           0       -0.348482   -4.090299    2.586310
     50          6           0        1.728548   -3.848887    2.850501
     51          1           0        2.321815   -3.200727    3.505445
     52          6           0        2.123387   -3.557171    1.381074
     53          6           0        1.945112   -5.337630    3.261753
     54          1           0        1.290423   -5.944328    2.618244
     55          8           0        1.285974   -3.516821    0.472744
     56          6           0        3.387032   -5.829754    3.063921
     57          1           0        4.099540   -5.216326    3.632901
     58          1           0        3.480177   -6.854508    3.437327
     59          1           0        3.695503   -5.836935    2.014600
     60          6           0        1.518283   -5.545970    4.724008
     61          1           0        2.161058   -4.970709    5.402229
     62          1           0        1.607860   -6.603296    4.994751
     63          1           0        0.485615   -5.234536    4.896821
     64          7           0        3.441682   -3.337248    1.133832
     65          1           0        4.066111   -3.345643    1.928634
     66          6           0        4.076624   -3.345016   -0.191915
     67          1           0        5.151919   -3.375443    0.006000
     68          6           0        3.904442   -2.067219   -1.027152
     69          6           0        3.719551   -4.579472   -1.042679
     70          1           0        4.275689   -4.538469   -1.983261
     71          1           0        2.650410   -4.611434   -1.257389
     72          1           0        4.002631   -5.493364   -0.511876
     73          8           0        4.800422   -1.810359   -1.870410
     74          7           0        2.832291   -1.297000   -0.868174
     75          1           0        2.090700   -1.538114   -0.213646
     76          6           0        2.705345   -0.004359   -1.535246
     77          1           0        3.703881    0.437955   -1.580631
     78          6           0        1.838767    0.936716   -0.669542
     79          6           0        2.119400   -0.111771   -2.973149
     80          1           0        2.371183   -1.093348   -3.395697
     81          1           0        1.026708   -0.091714   -2.908092
     82          8           0        1.981029    2.165667   -0.868706
     83          6           0        2.616603    1.025115   -3.893880
     84          1           0        1.826247    1.317497   -4.593888
     85          1           0        2.832856    1.906567   -3.281957
     86          6           0        3.835391    0.651303   -4.756012
     87          1           0        4.242910    1.561133   -5.211478
     88          1           0        3.528425   -0.021501   -5.567990
     89          7           0        4.885565   -0.008636   -3.970762
     90          1           0        4.602741   -0.652442   -3.213079
     91          7           0        6.738154    0.613105   -5.265306
     92          1           0        7.720617    0.847114   -5.260896
     93          1           0        6.157128    1.125940   -5.910822
     94          7           0        7.002364   -0.629878   -3.319516
     95          1           0        7.924323   -0.915533   -3.617278
     96          1           0        6.555948   -1.183699   -2.588335
     97          6           0        6.190759   -0.003476   -4.197396
     98          8           0        1.053938    0.367965    0.155630
 ---------------------------------------------------------------------

 SCF Done:  E(RB3LYP) =  -2360.07403825     A.U. after    1 cycles

 Alpha  occ. eigenvalues --  -19.22888 -19.21991 -19.20728 -19.19671 -19.18727
 Alpha  occ. eigenvalues --  -19.18594 -19.17625 -19.17336 -14.50702 -14.49385
 Alpha  occ. eigenvalues --  -14.48997 -14.48980 -14.46380 -14.45549 -14.45111
 Alpha  occ. eigenvalues --  -14.43820 -14.42463 -14.41290 -10.46147 -10.39334
 Alpha  occ. eigenvalues --  -10.38608 -10.38070 -10.36001 -10.35425 -10.34573
 Alpha  occ. eigenvalues --  -10.34536 -10.34464 -10.34017 -10.31527 -10.31218
 Alpha  occ. eigenvalues --  -10.30321 -10.28900 -10.28781 -10.28681 -10.28348
 Alpha  occ. eigenvalues --  -10.27963 -10.27904 -10.27746 -10.27739 -10.27034
 Alpha  occ. eigenvalues --  -10.25689 -10.25311 -10.24785 -10.24761 -10.24386
 Alpha  occ. eigenvalues --  -10.24201 -10.24176 -10.24116 -10.24107  -1.14834
 Alpha  occ. eigenvalues --   -1.14040  -1.13421  -1.13087  -1.11493  -1.10573
 Alpha  occ. eigenvalues --   -1.09113  -1.07000  -1.05018  -1.04045  -1.03690
 Alpha  occ. eigenvalues --   -1.02971  -1.02747  -1.02425  -1.01356  -1.01283
 Alpha  occ. eigenvalues --   -0.99730  -0.97772  -0.89912  -0.89691  -0.88617
 Alpha  occ. eigenvalues --   -0.87613  -0.86702  -0.85665  -0.84005  -0.82908
 Alpha  occ. eigenvalues --   -0.81207  -0.79354  -0.78513  -0.78403  -0.77529
 Alpha  occ. eigenvalues --   -0.76198  -0.75876  -0.75317  -0.74289  -0.72611
 Alpha  occ. eigenvalues --   -0.71705  -0.71247  -0.70092  -0.68795  -0.68255
 Alpha  occ. eigenvalues --   -0.67826  -0.67531  -0.67316  -0.66449  -0.65342
 Alpha  occ. eigenvalues --   -0.65044  -0.64428  -0.64288  -0.63474  -0.63229
 Alpha  occ. eigenvalues --   -0.62878  -0.62385  -0.62210  -0.61925  -0.60256
 Alpha  occ. eigenvalues --   -0.60213  -0.59310  -0.58990  -0.57942  -0.57878
 Alpha  occ. eigenvalues --   -0.57261  -0.56506  -0.56101  -0.55384  -0.55299
 Alpha  occ. eigenvalues --   -0.54929  -0.54533  -0.54034  -0.53643  -0.53559
 Alpha  occ. eigenvalues --   -0.53119  -0.52874  -0.52517  -0.52378  -0.52192
 Alpha  occ. eigenvalues --   -0.51805  -0.51021  -0.50611  -0.50004  -0.49776
 Alpha  occ. eigenvalues --   -0.49622  -0.49447  -0.49123  -0.48865  -0.48825
 Alpha  occ. eigenvalues --   -0.48539  -0.48253  -0.48114  -0.47975  -0.47387
 Alpha  occ. eigenvalues --   -0.47203  -0.47007  -0.46804  -0.46747  -0.46477
 Alpha  occ. eigenvalues --   -0.45943  -0.45629  -0.45553  -0.45445  -0.45250
 Alpha  occ. eigenvalues --   -0.44661  -0.44486  -0.44324  -0.44190  -0.43677
 Alpha  occ. eigenvalues --   -0.42936  -0.42615  -0.42084  -0.41761  -0.41408
 Alpha  occ. eigenvalues --   -0.41400  -0.40765  -0.40727  -0.39307  -0.39110
 Alpha  occ. eigenvalues --   -0.38616  -0.38518  -0.38398  -0.36248  -0.35605
 Alpha  occ. eigenvalues --   -0.35446  -0.35121  -0.34928  -0.34510  -0.33544
 Alpha  occ. eigenvalues --   -0.33260  -0.33152  -0.33030  -0.31788  -0.31660
 Alpha  occ. eigenvalues --   -0.30524  -0.29992  -0.28106  -0.26093
 Alpha virt. eigenvalues --   -0.10300  -0.08831  -0.07741  -0.07735  -0.07126
 Alpha virt. eigenvalues --   -0.06399  -0.04776  -0.03632  -0.03226  -0.03189
 Alpha virt. eigenvalues --   -0.02852  -0.02571  -0.00903  -0.00398   0.00362

 Mulliken charges:
               1
     1  N   -0.762570
     2  H    0.399189
     3  H    0.435799
     4  H    0.395503
     5  C   -0.098558
     6  H    0.207617
     7  C    0.648420
     8  C   -0.490030
     9  H    0.185801
    10  H    0.188296
    11  H    0.190123
    12  O   -0.544322
    13  N   -0.606468
    14  H    0.359100
    15  C   -0.062535
    16  H    0.193465
    17  C    0.633443
    18  C   -0.394884
    19  H    0.177102
    20  H    0.185002
    21  O   -0.517270
    22  C    0.075509
    23  C    0.003218
    24  H    0.161373
    25  C    0.074927
    26  C    0.314935
    27  C   -0.250750
    28  H    0.130507
    29  N   -0.688631
    30  H    0.336830
    31  C   -0.153603
    32  H    0.136557
    33  C   -0.158621
    34  H    0.136379
    35  C   -0.143039
    36  H    0.130760
    37  N   -0.655671
    38  H    0.383245
    39  C   -0.042616
    40  H    0.187309
    41  C    0.591818
    42  C   -0.066570
    43  H    0.148194
    44  H    0.183535
    45  O   -0.530179
    46  O   -0.650706
    47  H    0.433214
    48  N   -0.600674
    49  H    0.347107
    50  C   -0.067545
    51  H    0.179527
    52  C    0.639972
    53  C   -0.091495
    54  H    0.146373
    55  O   -0.558162
    56  C   -0.474852
    57  H    0.140272
    58  H    0.172862
    59  H    0.149308
    60  C   -0.443165
    61  H    0.150413
    62  H    0.159003
    63  H    0.171369
    64  N   -0.602655
    65  H    0.349602
    66  C   -0.040142
    67  H    0.172934
    68  C    0.635884
    69  C   -0.466928
    70  H    0.170114
    71  H    0.201814
    72  H    0.172079
    73  O   -0.607224
    74  N   -0.588011
    75  H    0.393509
    76  C   -0.046727
    77  H    0.164096
    78  C    0.603088
    79  C   -0.302360
    80  H    0.155972
    81  H    0.179525
    82  O   -0.594471
    83  C   -0.286826
    84  H    0.166450
    85  H    0.198452
    86  C   -0.162402
    87  H    0.159057
    88  H    0.184812
    89  N   -0.636086
    90  H    0.435214
    91  N   -0.759626
    92  H    0.376148
    93  H    0.380061
    94  N   -0.776806
    95  H    0.363481
    96  H    0.408351
    97  C    0.787511
    98  O   -0.618355
 Sum of Mulliken charges =   1.00000

 Dipole moment (field-independent basis, Debye):
    X=             19.6041    Y=              3.8453    Z=             -7.4186  Tot=             21.3106
 Quadrupole moment (field-independent basis, Debye-Ang):
   XX=           -136.1704   YY=           -211.3182   ZZ=           -183.4741
   XY=            -55.4206   XZ=            -92.9178   YZ=              5.3967

 Normal termination of Gaussian 16 at Tue Jun 28 00:39:23 2022.
