 Gaussian 16, Revision C.01,
 Gaussian 16:  ES64L-G16RevC.01  3-Jul-2019

 -------------------------------------------------------------------
 # B3LYP/6-31G* guess=read geom=check nosymm integral(ultrafinegrid)
 -------------------------------------------------------------------

 ------------------------------------------------------
 Candidate Structure: Conf:197 Charge calc in gas phase
 ------------------------------------------------------
 Structure from the checkpoint file:  "conf-197.chk"
 Charge =  1 Multiplicity = 1

                          Input orientation:
 ---------------------------------------------------------------------
 Center     Atomic      Atomic             Coordinates (Angstroms)
 Number     Number       Type             X           Y           Z
 ---------------------------------------------------------------------
      1          7           0       -5.132812    4.366584    4.395191
      2          1           0       -4.662046    4.190185    5.308618
      3          1           0       -6.003427    4.879487    4.554417
      4          1           0       -4.474288    4.913998    3.793038
      5          6           0       -5.322338    3.081786    3.618748
      6          1           0       -5.498448    2.286167    4.345224
      7          6           0       -3.949820    2.939856    2.905515
      8          6           0       -6.477208    3.222425    2.630374
      9          1           0       -6.588487    2.291679    2.066688
     10          1           0       -7.425705    3.415930    3.144076
     11          1           0       -6.278571    4.027438    1.915387
     12          8           0       -3.412125    3.990091    2.535869
     13          7           0       -3.475071    1.702873    2.797222
     14          1           0       -4.038141    0.888505    3.043087
     15          6           0       -2.137691    1.325184    2.341226
     16          1           0       -1.788544    2.009549    1.565482
     17          6           0       -2.299398   -0.106715    1.801509
     18          6           0       -1.117048    1.331824    3.524176
     19          1           0       -0.138282    1.097256    3.096158
     20          1           0       -1.381506    0.518799    4.212505
     21          8           0       -3.263411   -0.794444    2.166301
     22          6           0       -1.060081    2.647252    4.244763
     23          6           0       -0.257169    3.704894    3.891181
     24          1           0        0.485424    3.737840    3.098296
     25          6           0       -1.898739    3.109657    5.320512
     26          6           0       -1.561661    4.480802    5.556132
     27          6           0       -2.914073    2.528817    6.101968
     28          1           0       -3.169445    1.478905    5.980237
     29          7           0       -0.554925    4.799469    4.677029
     30          1           0       -0.088774    5.692137    4.618990
     31          6           0       -3.244970    4.667415    7.246272
     32          1           0       -3.764831    5.245288    8.005271
     33          6           0       -2.224011    5.263459    6.506726
     34          1           0       -1.951475    6.302814    6.670628
     35          6           0       -3.584181    3.307128    7.049992
     36          1           0       -4.346712    2.852749    7.677858
     37          7           0       -1.329567   -0.535828    0.978594
     38          1           0       -0.547132    0.093903    0.751462
     39          6           0       -1.307121   -1.908720    0.501719
     40          1           0       -1.631356   -2.570483    1.315623
     41          6           0        0.146359   -2.263954    0.133794
     42          6           0       -2.318683   -2.087668   -0.646272
     43          1           0       -1.989583   -1.517832   -1.527710
     44          1           0       -3.281122   -1.691715   -0.305121
     45          8           0        1.085905   -1.585758    0.567528
     46          8           0       -2.423399   -3.484967   -0.936250
     47          1           0       -3.064404   -3.605711   -1.653098
     48          7           0        0.315769   -3.334597   -0.669763
     49          1           0       -0.519564   -3.791321   -1.030189
     50          6           0        1.644190   -3.823488   -1.063529
     51          1           0        2.306979   -3.626163   -0.212166
     52          6           0        2.147878   -2.981261   -2.271709
     53          6           0        1.630280   -5.335492   -1.360002
     54          1           0        1.070166   -5.482432   -2.293180
     55          8           0        2.275546   -3.431084   -3.404959
     56          6           0        3.061900   -5.848415   -1.586287
     57          1           0        3.673763   -5.710772   -0.684819
     58          1           0        3.046264   -6.920056   -1.812304
     59          1           0        3.543337   -5.335147   -2.421385
     60          6           0        0.953289   -6.131295   -0.232390
     61          1           0        1.473840   -5.982290    0.722199
     62          1           0        0.982997   -7.201872   -0.462079
     63          1           0       -0.095499   -5.854345   -0.084993
     64          7           0        2.407480   -1.683395   -1.943740
     65          1           0        2.225805   -1.403223   -0.979944
     66          6           0        2.836968   -0.690866   -2.929442
     67          1           0        3.737679   -1.059032   -3.429685
     68          6           0        3.248876    0.578921   -2.180496
     69          6           0        1.766563   -0.395727   -3.996770
     70          1           0        2.131145    0.357199   -4.704204
     71          1           0        0.842730   -0.024517   -3.540346
     72          1           0        1.547108   -1.314893   -4.542997
     73          8           0        4.420565    1.019236   -2.272773
     74          7           0        2.311768    1.187635   -1.452024
     75          1           0        1.376925    0.797872   -1.313158
     76          6           0        2.572302    2.275742   -0.516368
     77          1           0        3.490318    2.038246    0.032700
     78          6           0        1.405697    2.318502    0.525483
     79          6           0        2.723086    3.661845   -1.206049
     80          1           0        3.062964    3.527660   -2.241674
     81          1           0        1.735116    4.127345   -1.275487
     82          8           0        1.598249    3.090897    1.483830
     83          6           0        3.680299    4.597444   -0.433739
     84          1           0        3.330430    5.633827   -0.498628
     85          1           0        3.647972    4.325841    0.625253
     86          6           0        5.127581    4.601661   -0.958690
     87          1           0        5.776590    5.086278   -0.219144
     88          1           0        5.188466    5.183487   -1.888634
     89          7           0        5.620432    3.245287   -1.223179
     90          1           0        4.951555    2.541332   -1.586165
     91          7           0        7.916543    3.663225   -1.003276
     92          1           0        8.808494    3.275811   -0.730395
     93          1           0        7.742222    4.616992   -0.724886
     94          7           0        7.130000    1.531360   -1.500069
     95          1           0        8.048160    1.265114   -1.826108
     96          1           0        6.342605    0.963694   -1.817997
     97          6           0        6.877448    2.832133   -1.242346
     98          8           0        0.399075    1.600464    0.252398
 ---------------------------------------------------------------------

 SCF Done:  E(RB3LYP) =  -2360.05067459     A.U. after    1 cycles

 Alpha  occ. eigenvalues --  -19.23153 -19.22147 -19.20794 -19.18497 -19.18377
 Alpha  occ. eigenvalues --  -19.16870 -19.14350 -19.13349 -14.55964 -14.49003
 Alpha  occ. eigenvalues --  -14.47092 -14.46974 -14.45537 -14.44813 -14.42975
 Alpha  occ. eigenvalues --  -14.42146 -14.41682 -14.40934 -10.44260 -10.39451
 Alpha  occ. eigenvalues --  -10.37290 -10.36888 -10.35507 -10.35280 -10.33877
 Alpha  occ. eigenvalues --  -10.32733 -10.32088 -10.30804 -10.30696 -10.30241
 Alpha  occ. eigenvalues --  -10.30105 -10.29877 -10.29613 -10.28694 -10.28205
 Alpha  occ. eigenvalues --  -10.27217 -10.27174 -10.27021 -10.26936 -10.26809
 Alpha  occ. eigenvalues --  -10.26538 -10.26098 -10.25881 -10.25691 -10.24427
 Alpha  occ. eigenvalues --  -10.24255 -10.24022 -10.22288 -10.21651  -1.14807
 Alpha  occ. eigenvalues --   -1.12957  -1.11520  -1.10879  -1.10195  -1.09802
 Alpha  occ. eigenvalues --   -1.09744  -1.08520  -1.07049  -1.04747  -1.02202
 Alpha  occ. eigenvalues --   -1.02101  -1.00974  -0.99977  -0.98943  -0.98609
 Alpha  occ. eigenvalues --   -0.98146  -0.97153  -0.91954  -0.89761  -0.87644
 Alpha  occ. eigenvalues --   -0.87180  -0.86005  -0.84201  -0.83788  -0.82002
 Alpha  occ. eigenvalues --   -0.81274  -0.81102  -0.79278  -0.77479  -0.76249
 Alpha  occ. eigenvalues --   -0.76137  -0.73920  -0.73552  -0.72918  -0.71766
 Alpha  occ. eigenvalues --   -0.71118  -0.70175  -0.69775  -0.69655  -0.68843
 Alpha  occ. eigenvalues --   -0.68641  -0.67506  -0.66687  -0.65847  -0.65300
 Alpha  occ. eigenvalues --   -0.64775  -0.64352  -0.63917  -0.63167  -0.62887
 Alpha  occ. eigenvalues --   -0.62292  -0.61756  -0.61014  -0.60767  -0.60501
 Alpha  occ. eigenvalues --   -0.59883  -0.59390  -0.58205  -0.57530  -0.57204
 Alpha  occ. eigenvalues --   -0.56146  -0.55697  -0.55445  -0.54703  -0.54461
 Alpha  occ. eigenvalues --   -0.54252  -0.54042  -0.53879  -0.53228  -0.53035
 Alpha  occ. eigenvalues --   -0.52773  -0.52081  -0.51599  -0.51272  -0.51240
 Alpha  occ. eigenvalues --   -0.50947  -0.50871  -0.50696  -0.50389  -0.49880
 Alpha  occ. eigenvalues --   -0.49594  -0.49232  -0.48943  -0.48747  -0.48532
 Alpha  occ. eigenvalues --   -0.48040  -0.47751  -0.47601  -0.46844  -0.46717
 Alpha  occ. eigenvalues --   -0.46322  -0.46062  -0.45903  -0.45542  -0.45288
 Alpha  occ. eigenvalues --   -0.44607  -0.44359  -0.44232  -0.43882  -0.43444
 Alpha  occ. eigenvalues --   -0.43364  -0.42999  -0.42846  -0.42345  -0.42296
 Alpha  occ. eigenvalues --   -0.41734  -0.41561  -0.41492  -0.41320  -0.40899
 Alpha  occ. eigenvalues --   -0.40612  -0.40220  -0.39685  -0.39067  -0.38301
 Alpha  occ. eigenvalues --   -0.37818  -0.36820  -0.36591  -0.35597  -0.35395
 Alpha  occ. eigenvalues --   -0.35005  -0.34768  -0.33669  -0.33461  -0.32682
 Alpha  occ. eigenvalues --   -0.32389  -0.31728  -0.30662  -0.30290  -0.29423
 Alpha  occ. eigenvalues --   -0.29288  -0.29037  -0.27594  -0.26985
 Alpha virt. eigenvalues --   -0.09118  -0.08862  -0.08558  -0.06610  -0.06458
 Alpha virt. eigenvalues --   -0.05698  -0.05040  -0.04830  -0.04314  -0.02657
 Alpha virt. eigenvalues --   -0.01493  -0.01258  -0.00410  -0.00151   0.00407

 Mulliken charges:
               1
     1  N   -0.759643
     2  H    0.423010
     3  H    0.395257
     4  H    0.418600
     5  C   -0.103430
     6  H    0.198894
     7  C    0.666611
     8  C   -0.472642
     9  H    0.207954
    10  H    0.177219
    11  H    0.195350
    12  O   -0.539250
    13  N   -0.605536
    14  H    0.358191
    15  C   -0.067986
    16  H    0.220957
    17  C    0.614156
    18  C   -0.358814
    19  H    0.205387
    20  H    0.150911
    21  O   -0.566334
    22  C    0.035374
    23  C    0.026337
    24  H    0.243654
    25  C    0.070895
    26  C    0.324220
    27  C   -0.239275
    28  H    0.140012
    29  N   -0.689976
    30  H    0.336854
    31  C   -0.183248
    32  H    0.144156
    33  C   -0.171975
    34  H    0.143348
    35  C   -0.215382
    36  H    0.141378
    37  N   -0.650911
    38  H    0.432236
    39  C   -0.043652
    40  H    0.207382
    41  C    0.594803
    42  C   -0.054321
    43  H    0.140569
    44  H    0.172396
    45  O   -0.550489
    46  O   -0.627986
    47  H    0.415487
    48  N   -0.624503
    49  H    0.379129
    50  C   -0.045871
    51  H    0.172711
    52  C    0.626741
    53  C   -0.095129
    54  H    0.149210
    55  O   -0.525603
    56  C   -0.461967
    57  H    0.136093
    58  H    0.151922
    59  H    0.177234
    60  C   -0.452212
    61  H    0.145825
    62  H    0.155312
    63  H    0.145931
    64  N   -0.665866
    65  H    0.383879
    66  C    0.005593
    67  H    0.178171
    68  C    0.594248
    69  C   -0.462948
    70  H    0.156387
    71  H    0.145162
    72  H    0.202387
    73  O   -0.605226
    74  N   -0.577016
    75  H    0.359897
    76  C   -0.062788
    77  H    0.157251
    78  C    0.598848
    79  C   -0.296848
    80  H    0.147410
    81  H    0.174584
    82  O   -0.564757
    83  C   -0.281208
    84  H    0.156296
    85  H    0.196118
    86  C   -0.161213
    87  H    0.152715
    88  H    0.179003
    89  N   -0.635271
    90  H    0.440512
    91  N   -0.759703
    92  H    0.371959
    93  H    0.375961
    94  N   -0.775690
    95  H    0.360424
    96  H    0.410518
    97  C    0.781028
    98  O   -0.615385
 Sum of Mulliken charges =   1.00000

 Dipole moment (field-independent basis, Debye):
    X=              1.2465    Y=             18.2104    Z=              7.3375  Tot=             19.6726
 Quadrupole moment (field-independent basis, Debye-Ang):
   XX=            -36.2554   YY=           -180.8741   ZZ=           -229.9851
   XY=              6.4901   XZ=            -80.4498   YZ=             50.4105

 Normal termination of Gaussian 16 at Tue Jun 28 00:24:26 2022.
