 Gaussian 16, Revision C.01,
 Gaussian 16:  ES64L-G16RevC.01  3-Jul-2019

 -------------------------------------------------------------------
 # B3LYP/6-31G* guess=read geom=check nosymm integral(ultrafinegrid)
 -------------------------------------------------------------------

 ------------------------------------------------------
 Candidate Structure: Conf:950 Charge calc in gas phase
 ------------------------------------------------------
 Structure from the checkpoint file:  "conf-950.chk"
 Charge =  1 Multiplicity = 1

                          Input orientation:
 ---------------------------------------------------------------------
 Center     Atomic      Atomic             Coordinates (Angstroms)
 Number     Number       Type             X           Y           Z
 ---------------------------------------------------------------------
      1          7           0       -9.714101    0.061945    4.936064
      2          1           0       -9.339401    0.527262    5.790251
      3          1           0      -10.614209   -0.375669    5.149983
      4          1           0       -9.815902    0.793150    4.197503
      5          6           0       -8.699582   -0.899380    4.352786
      6          1           0       -8.168446   -1.357478    5.189554
      7          6           0       -7.794959    0.054269    3.530832
      8          6           0       -9.393898   -1.940045    3.477353
      9          1           0       -8.645377   -2.614332    3.051303
     10          1           0      -10.096183   -2.548280    4.058091
     11          1           0       -9.925114   -1.459619    2.649398
     12          8           0       -8.350503    1.007469    2.975239
     13          7           0       -6.491288   -0.220498    3.532872
     14          1           0       -6.115314   -1.090475    3.912320
     15          6           0       -5.454023    0.615681    2.938759
     16          1           0       -5.859282    1.108511    2.050968
     17          6           0       -4.306461   -0.353712    2.586342
     18          6           0       -4.932431    1.687465    3.951529
     19          1           0       -4.157046    2.273563    3.445097
     20          1           0       -4.431568    1.157568    4.771219
     21          8           0       -4.249828   -1.454918    3.140518
     22          6           0       -6.003967    2.592794    4.486428
     23          6           0       -6.387088    3.800630    3.957339
     24          1           0       -5.963024    4.353536    3.129965
     25          6           0       -6.903627    2.334468    5.584552
     26          6           0       -7.828352    3.420901    5.638549
     27          6           0       -7.031893    1.297947    6.526985
     28          1           0       -6.314758    0.481366    6.550028
     29          7           0       -7.478973    4.296695    4.638746
     30          1           0       -7.917865    5.187442    4.458797
     31          6           0       -8.996031    2.416742    7.465687
     32          1           0       -9.785797    2.437172    8.211134
     33          6           0       -8.875759    3.471425    6.565066
     34          1           0       -9.568218    4.308294    6.589501
     35          6           0       -8.076566    1.339879    7.453458
     36          1           0       -8.155225    0.564406    8.211428
     37          7           0       -3.407006    0.114319    1.705463
     38          1           0       -3.417936    1.094040    1.412677
     39          6           0       -2.089421   -0.471505    1.512758
     40          1           0       -1.689847   -0.804446    2.479553
     41          6           0       -1.201729    0.694385    0.990627
     42          6           0       -2.140762   -1.703556    0.595772
     43          1           0       -2.360108   -1.398062   -0.437424
     44          1           0       -2.943157   -2.362593    0.948956
     45          8           0       -1.684612    1.826045    0.923066
     46          8           0       -0.871502   -2.349076    0.698481
     47          1           0       -0.833364   -3.068457    0.050583
     48          7           0        0.042707    0.327593    0.617348
     49          1           0        0.239915   -0.663155    0.729187
     50          6           0        1.212996    1.207831    0.510878
     51          1           0        1.965401    0.624290   -0.035613
     52          6           0        1.727434    1.475551    1.950199
     53          6           0        0.966426    2.515649   -0.287293
     54          1           0        0.245483    3.111358    0.279051
     55          8           0        0.948794    1.724783    2.867622
     56          6           0        2.269065    3.319203   -0.431471
     57          1           0        3.039257    2.746275   -0.965345
     58          1           0        2.080658    4.230419   -1.009476
     59          1           0        2.685162    3.619788    0.534524
     60          6           0        0.370261    2.212513   -1.669202
     61          1           0        1.039973    1.574038   -2.260606
     62          1           0        0.224246    3.144021   -2.227659
     63          1           0       -0.599902    1.715359   -1.590679
     64          7           0        3.067848    1.389193    2.103772
     65          1           0        3.701299    1.252160    1.319542
     66          6           0        3.753846    1.700442    3.348107
     67          1           0        3.324384    2.618259    3.768903
     68          6           0        5.229695    1.946473    2.966264
     69          6           0        3.612046    0.569866    4.383010
     70          1           0        4.114096    0.829152    5.320792
     71          1           0        4.052168   -0.356879    3.999937
     72          1           0        2.551818    0.403474    4.589883
     73          8           0        5.640654    1.671746    1.832257
     74          7           0        6.001117    2.450445    3.942661
     75          1           0        5.655245    2.634183    4.883701
     76          6           0        7.447598    2.613817    3.851956
     77          1           0        7.876756    1.732082    3.363867
     78          6           0        7.953440    2.692962    5.325188
     79          6           0        7.782306    3.872093    2.991033
     80          1           0        7.053066    3.859168    2.176557
     81          1           0        7.573036    4.774094    3.582493
     82          8           0        9.206296    2.469529    5.495884
     83          6           0        9.188597    3.955651    2.342340
     84          1           0        9.628971    2.953608    2.258131
     85          1           0        9.081479    4.319100    1.313591
     86          6           0       10.205625    4.887608    3.020892
     87          1           0        9.786776    5.898418    3.115100
     88          1           0       11.107408    4.956218    2.397235
     89          7           0       10.546187    4.368116    4.345364
     90          1           0       10.139011    3.427690    4.580012
     91          7           0       11.152897    6.389179    5.351968
     92          1           0       11.384966    6.895823    6.193710
     93          1           0       11.624224    6.693437    4.512590
     94          7           0       10.552144    4.513600    6.628303
     95          1           0       10.732309    5.001479    7.492227
     96          1           0        9.988416    3.636142    6.609390
     97          6           0       10.757189    5.092535    5.440865
     98          8           0        7.127664    2.984573    6.201498
 ---------------------------------------------------------------------

 SCF Done:  E(RB3LYP) =  -2360.02749774     A.U. after    2 cycles

 Alpha  occ. eigenvalues --  -19.24533 -19.23050 -19.20872 -19.18150 -19.15093
 Alpha  occ. eigenvalues --  -19.15019 -19.12767 -19.11890 -14.58139 -14.48016
 Alpha  occ. eigenvalues --  -14.47572 -14.45227 -14.44020 -14.42374 -14.41591
 Alpha  occ. eigenvalues --  -14.41471 -14.39420 -14.38273 -10.41832 -10.39717
 Alpha  occ. eigenvalues --  -10.39381 -10.37806 -10.35280 -10.33623 -10.32395
 Alpha  occ. eigenvalues --  -10.32340 -10.32033 -10.31961 -10.31289 -10.31152
 Alpha  occ. eigenvalues --  -10.30546 -10.30132 -10.29292 -10.29240 -10.29139
 Alpha  occ. eigenvalues --  -10.28995 -10.28893 -10.28796 -10.28577 -10.28387
 Alpha  occ. eigenvalues --  -10.27686 -10.27043 -10.25188 -10.24104 -10.23672
 Alpha  occ. eigenvalues --  -10.22681 -10.21667 -10.21639 -10.21559  -1.17158
 Alpha  occ. eigenvalues --   -1.12845  -1.12071  -1.10368  -1.09610  -1.08505
 Alpha  occ. eigenvalues --   -1.07591  -1.07301  -1.06470  -1.05455  -1.04566
 Alpha  occ. eigenvalues --   -1.00735  -0.98262  -0.98170  -0.96780  -0.96356
 Alpha  occ. eigenvalues --   -0.95906  -0.94722  -0.94216  -0.91913  -0.89931
 Alpha  occ. eigenvalues --   -0.86707  -0.85351  -0.84005  -0.83789  -0.82923
 Alpha  occ. eigenvalues --   -0.81721  -0.80932  -0.79696  -0.77660  -0.76252
 Alpha  occ. eigenvalues --   -0.75621  -0.72844  -0.72423  -0.72354  -0.72205
 Alpha  occ. eigenvalues --   -0.72121  -0.70693  -0.70144  -0.69878  -0.69161
 Alpha  occ. eigenvalues --   -0.68756  -0.66706  -0.66138  -0.65721  -0.64807
 Alpha  occ. eigenvalues --   -0.64530  -0.64421  -0.63512  -0.62305  -0.62041
 Alpha  occ. eigenvalues --   -0.61778  -0.61320  -0.60760  -0.60288  -0.58894
 Alpha  occ. eigenvalues --   -0.58834  -0.58128  -0.57549  -0.57199  -0.57041
 Alpha  occ. eigenvalues --   -0.56580  -0.56487  -0.56107  -0.54796  -0.54625
 Alpha  occ. eigenvalues --   -0.53931  -0.53663  -0.53202  -0.53082  -0.52986
 Alpha  occ. eigenvalues --   -0.52495  -0.52187  -0.52017  -0.51785  -0.51594
 Alpha  occ. eigenvalues --   -0.51006  -0.50806  -0.50702  -0.50196  -0.50026
 Alpha  occ. eigenvalues --   -0.49586  -0.48895  -0.48509  -0.48461  -0.48230
 Alpha  occ. eigenvalues --   -0.47757  -0.47647  -0.47294  -0.46918  -0.46450
 Alpha  occ. eigenvalues --   -0.46024  -0.45841  -0.44966  -0.44842  -0.44827
 Alpha  occ. eigenvalues --   -0.44266  -0.44022  -0.43825  -0.43617  -0.43272
 Alpha  occ. eigenvalues --   -0.43232  -0.42867  -0.42540  -0.42215  -0.41646
 Alpha  occ. eigenvalues --   -0.41125  -0.40865  -0.40240  -0.39863  -0.39197
 Alpha  occ. eigenvalues --   -0.38812  -0.38440  -0.38134  -0.37995  -0.37839
 Alpha  occ. eigenvalues --   -0.37384  -0.37163  -0.37102  -0.35744  -0.35622
 Alpha  occ. eigenvalues --   -0.34620  -0.34298  -0.32701  -0.32235  -0.32172
 Alpha  occ. eigenvalues --   -0.31762  -0.29916  -0.29801  -0.29092  -0.28820
 Alpha  occ. eigenvalues --   -0.28233  -0.27870  -0.26862  -0.26091
 Alpha virt. eigenvalues --   -0.11588  -0.11098  -0.08778  -0.07754  -0.06898
 Alpha virt. eigenvalues --   -0.04498  -0.04399  -0.03654  -0.02416  -0.02165
 Alpha virt. eigenvalues --   -0.01401  -0.01373  -0.00631  -0.00545  -0.00378

 Mulliken charges:
               1
     1  N   -0.755332
     2  H    0.419172
     3  H    0.401535
     4  H    0.420395
     5  C   -0.108024
     6  H    0.203760
     7  C    0.666304
     8  C   -0.473186
     9  H    0.212348
    10  H    0.183666
    11  H    0.198985
    12  O   -0.537379
    13  N   -0.606786
    14  H    0.364786
    15  C   -0.063321
    16  H    0.192900
    17  C    0.628740
    18  C   -0.371629
    19  H    0.190230
    20  H    0.175264
    21  O   -0.543319
    22  C    0.088187
    23  C    0.026994
    24  H    0.179662
    25  C    0.074897
    26  C    0.325621
    27  C   -0.239593
    28  H    0.145504
    29  N   -0.683182
    30  H    0.347157
    31  C   -0.171946
    32  H    0.154326
    33  C   -0.163602
    34  H    0.154433
    35  C   -0.219478
    36  H    0.150573
    37  N   -0.625816
    38  H    0.366814
    39  C   -0.068930
    40  H    0.208933
    41  C    0.634311
    42  C   -0.037907
    43  H    0.144839
    44  H    0.166349
    45  O   -0.544671
    46  O   -0.625258
    47  H    0.414570
    48  N   -0.618083
    49  H    0.369568
    50  C   -0.049853
    51  H    0.140372
    52  C    0.617971
    53  C   -0.081915
    54  H    0.178528
    55  O   -0.538229
    56  C   -0.464216
    57  H    0.142781
    58  H    0.151350
    59  H    0.159883
    60  C   -0.444895
    61  H    0.134620
    62  H    0.147742
    63  H    0.152290
    64  N   -0.614370
    65  H    0.355004
    66  C   -0.032356
    67  H    0.172816
    68  C    0.616729
    69  C   -0.451616
    70  H    0.161319
    71  H    0.155481
    72  H    0.178327
    73  O   -0.560657
    74  N   -0.621780
    75  H    0.356211
    76  C   -0.036976
    77  H    0.164831
    78  C    0.589733
    79  C   -0.275150
    80  H    0.175836
    81  H    0.138460
    82  O   -0.644994
    83  C   -0.303693
    84  H    0.168935
    85  H    0.156896
    86  C   -0.145672
    87  H    0.158569
    88  H    0.158474
    89  N   -0.610718
    90  H    0.411657
    91  N   -0.754447
    92  H    0.358481
    93  H    0.367260
    94  N   -0.773650
    95  H    0.344987
    96  H    0.419264
    97  C    0.765304
    98  O   -0.548300
 Sum of Mulliken charges =   1.00000

 Dipole moment (field-independent basis, Debye):
    X=            -22.2060    Y=             10.0460    Z=             19.5030  Tot=             31.2153
 Quadrupole moment (field-independent basis, Debye-Ang):
   XX=            232.1341   YY=           -175.6705   ZZ=           -177.0011
   XY=            113.7770   XZ=           -111.5981   YZ=             63.4514

 Normal termination of Gaussian 16 at Tue Jun 28 00:56:43 2022.
