 Gaussian 16, Revision C.01,
 Gaussian 16:  ES64L-G16RevC.01  3-Jul-2019

 -------------------------------------------------------------------
 # B3LYP/6-31G* guess=read geom=check nosymm integral(ultrafinegrid)
 -------------------------------------------------------------------

 ------------------------------------------------------
 Candidate Structure: Conf:817 Charge calc in gas phase
 ------------------------------------------------------
 Structure from the checkpoint file:  "conf-817.chk"
 Charge =  1 Multiplicity = 1

                          Input orientation:
 ---------------------------------------------------------------------
 Center     Atomic      Atomic             Coordinates (Angstroms)
 Number     Number       Type             X           Y           Z
 ---------------------------------------------------------------------
      1          7           0       -8.454323    7.662423    0.956281
      2          1           0       -9.099110    7.870968    1.722642
      3          1           0       -8.715079    8.228137    0.144322
      4          1           0       -7.441276    7.870139    1.268194
      5          6           0       -8.341063    6.182275    0.644489
      6          1           0       -9.095128    5.654881    1.233261
      7          6           0       -6.906288    5.853944    1.159616
      8          6           0       -8.518121    5.918853   -0.850790
      9          1           0       -8.369780    4.856276   -1.062958
     10          1           0       -9.525463    6.187755   -1.185068
     11          1           0       -7.778913    6.475081   -1.437835
     12          8           0       -6.202766    6.816558    1.506960
     13          7           0       -6.565780    4.575370    1.163349
     14          1           0       -7.136334    3.869265    0.689283
     15          6           0       -5.221106    4.058923    1.414676
     16          1           0       -4.505525    4.870731    1.261880
     17          6           0       -5.051435    2.940716    0.357628
     18          6           0       -5.077251    3.474993    2.849387
     19          1           0       -4.057215    3.077290    2.935999
     20          1           0       -5.750976    2.613143    2.928993
     21          8           0       -6.057642    2.457018   -0.168369
     22          6           0       -5.358475    4.446044    3.955627
     23          6           0       -6.441299    4.412807    4.799921
     24          1           0       -7.256711    3.702609    4.843600
     25          6           0       -4.553742    5.573944    4.366229
     26          6           0       -5.215834    6.180194    5.467578
     27          6           0       -3.335138    6.120258    3.925968
     28          1           0       -2.793977    5.676363    3.094050
     29          7           0       -6.376855    5.462703    5.695573
     30          1           0       -6.970968    5.567700    6.503947
     31          6           0       -3.492647    7.813473    5.671283
     32          1           0       -3.059284    8.677447    6.166783
     33          6           0       -4.699317    7.298525    6.129910
     34          1           0       -5.215432    7.743763    6.976463
     35          6           0       -2.816776    7.230012    4.580078
     36          1           0       -1.872381    7.654499    4.252070
     37          7           0       -3.786985    2.560233    0.120205
     38          1           0       -3.026700    2.874048    0.720273
     39          6           0       -3.413113    1.427135   -0.710352
     40          1           0       -4.282879    0.772217   -0.816633
     41          6           0       -2.245112    0.724878    0.018573
     42          6           0       -2.950862    1.872844   -2.108405
     43          1           0       -2.650878    0.982136   -2.680419
     44          1           0       -2.062836    2.515689   -1.997791
     45          8           0       -1.620989    1.326196    0.895203
     46          8           0       -4.022761    2.560935   -2.728521
     47          1           0       -3.742837    2.791043   -3.627669
     48          7           0       -1.974557   -0.524575   -0.403528
     49          1           0       -2.447412   -0.904535   -1.220869
     50          6           0       -0.739996   -1.247742   -0.095818
     51          1           0       -0.043558   -0.536666    0.359880
     52          6           0       -0.231170   -1.730086   -1.474112
     53          6           0       -0.987354   -2.429330    0.883767
     54          1           0       -1.659402   -3.129758    0.367371
     55          8           0       -1.054637   -2.042051   -2.343438
     56          6           0        0.317893   -3.167083    1.220587
     57          1           0        1.033087   -2.496832    1.715272
     58          1           0        0.114434   -3.994497    1.909191
     59          1           0        0.806341   -3.581940    0.334302
     60          6           0       -1.678052   -1.946799    2.167270
     61          1           0       -1.057711   -1.214742    2.697849
     62          1           0       -1.855425   -2.792381    2.841513
     63          1           0       -2.643568   -1.477939    1.955715
     64          7           0        1.098140   -1.763130   -1.644282
     65          1           0        1.755272   -1.550035   -0.894292
     66          6           0        1.762849   -2.226074   -2.855680
     67          1           0        1.312927   -3.175779   -3.168563
     68          6           0        3.240901   -2.455510   -2.455498
     69          6           0        1.637729   -1.211148   -4.005700
     70          1           0        2.152818   -1.569117   -4.902563
     71          1           0        2.081887   -0.252720   -3.715842
     72          1           0        0.581910   -1.058399   -4.244710
     73          8           0        3.641017   -2.098596   -1.337813
     74          7           0        3.995519   -3.038963   -3.395483
     75          1           0        3.677898   -3.126583   -4.373584
     76          6           0        5.455864   -3.027610   -3.426009
     77          1           0        5.810785   -2.025207   -3.152749
     78          6           0        5.855606   -3.317403   -4.937478
     79          6           0        6.116663   -4.027485   -2.463621
     80          1           0        7.182536   -3.775693   -2.442207
     81          1           0        5.709474   -3.897610   -1.453604
     82          8           0        7.050008   -3.638921   -5.114102
     83          6           0        5.978492   -5.473300   -2.952394
     84          1           0        4.929579   -5.794228   -2.950190
     85          1           0        6.349076   -5.470977   -3.985532
     86          6           0        6.823932   -6.459099   -2.150990
     87          1           0        6.382486   -6.687354   -1.173018
     88          1           0        7.832146   -6.050810   -2.002179
     89          7           0        6.933791   -7.722636   -2.920076
     90          1           0        6.671890   -7.651071   -3.897515
     91          7           0        8.094173   -8.912290   -1.304974
     92          1           0        8.263188   -9.801340   -0.857429
     93          1           0        8.194469   -8.080721   -0.741242
     94          7           0        7.425587   -9.973049   -3.251148
     95          1           0        8.124922  -10.692776   -3.131815
     96          1           0        6.958428   -9.953003   -4.147261
     97          6           0        7.484941   -8.849757   -2.501289
     98          8           0        4.903444   -3.226146   -5.755212
 ---------------------------------------------------------------------

 SCF Done:  E(RB3LYP) =  -2359.96035187     A.U. after    3 cycles

 Alpha  occ. eigenvalues --  -19.25945 -19.20878 -19.20095 -19.18011 -19.15517
 Alpha  occ. eigenvalues --  -19.13500 -19.06080 -19.05222 -14.58996 -14.50384
 Alpha  occ. eigenvalues --  -14.50172 -14.49658 -14.48091 -14.44729 -14.43677
 Alpha  occ. eigenvalues --  -14.41618 -14.39306 -14.35445 -10.46323 -10.42526
 Alpha  occ. eigenvalues --  -10.40375 -10.37190 -10.35149 -10.32983 -10.32940
 Alpha  occ. eigenvalues --  -10.32659 -10.31682 -10.30210 -10.30160 -10.30137
 Alpha  occ. eigenvalues --  -10.28962 -10.28289 -10.27941 -10.27841 -10.26039
 Alpha  occ. eigenvalues --  -10.25380 -10.25041 -10.24842 -10.24753 -10.24448
 Alpha  occ. eigenvalues --  -10.24143 -10.24121 -10.24008 -10.23205 -10.21756
 Alpha  occ. eigenvalues --  -10.21601 -10.21352 -10.20533 -10.20521  -1.18416
 Alpha  occ. eigenvalues --   -1.14873  -1.12849  -1.12037  -1.09871  -1.08276
 Alpha  occ. eigenvalues --   -1.07347  -1.04924  -1.04856  -1.04510  -1.03768
 Alpha  occ. eigenvalues --   -1.03257  -1.00245  -0.99209  -0.98179  -0.95736
 Alpha  occ. eigenvalues --   -0.92644  -0.92512  -0.90341  -0.90047  -0.88374
 Alpha  occ. eigenvalues --   -0.86012  -0.85675  -0.84479  -0.82356  -0.80506
 Alpha  occ. eigenvalues --   -0.80259  -0.79677  -0.78597  -0.78485  -0.76114
 Alpha  occ. eigenvalues --   -0.75332  -0.75099  -0.73234  -0.72737  -0.72569
 Alpha  occ. eigenvalues --   -0.72202  -0.71510  -0.70500  -0.69338  -0.68586
 Alpha  occ. eigenvalues --   -0.68505  -0.67641  -0.66340  -0.65790  -0.65504
 Alpha  occ. eigenvalues --   -0.64433  -0.64011  -0.63276  -0.62714  -0.62537
 Alpha  occ. eigenvalues --   -0.62460  -0.62028  -0.60900  -0.60648  -0.60252
 Alpha  occ. eigenvalues --   -0.58457  -0.58426  -0.57598  -0.57108  -0.56467
 Alpha  occ. eigenvalues --   -0.56387  -0.55426  -0.55324  -0.55036  -0.54837
 Alpha  occ. eigenvalues --   -0.53577  -0.53347  -0.53290  -0.52862  -0.52725
 Alpha  occ. eigenvalues --   -0.52269  -0.51966  -0.51040  -0.50940  -0.50741
 Alpha  occ. eigenvalues --   -0.50377  -0.49975  -0.49371  -0.49152  -0.48697
 Alpha  occ. eigenvalues --   -0.48502  -0.48279  -0.47976  -0.47358  -0.47234
 Alpha  occ. eigenvalues --   -0.46960  -0.46480  -0.46191  -0.45458  -0.45287
 Alpha  occ. eigenvalues --   -0.44920  -0.44466  -0.44158  -0.43904  -0.43284
 Alpha  occ. eigenvalues --   -0.43114  -0.42872  -0.42505  -0.42238  -0.41515
 Alpha  occ. eigenvalues --   -0.41466  -0.40830  -0.40672  -0.40414  -0.39975
 Alpha  occ. eigenvalues --   -0.39791  -0.39685  -0.39459  -0.39325  -0.38479
 Alpha  occ. eigenvalues --   -0.38298  -0.38140  -0.37992  -0.37485  -0.37333
 Alpha  occ. eigenvalues --   -0.37066  -0.36633  -0.35268  -0.34754  -0.33640
 Alpha  occ. eigenvalues --   -0.33575  -0.33445  -0.33134  -0.32083  -0.31425
 Alpha  occ. eigenvalues --   -0.29470  -0.28992  -0.28552  -0.27504  -0.26939
 Alpha  occ. eigenvalues --   -0.26359  -0.21456  -0.20826  -0.19651
 Alpha virt. eigenvalues --   -0.11119  -0.10456  -0.10389  -0.07449  -0.06436
 Alpha virt. eigenvalues --   -0.05843  -0.05459  -0.04094  -0.03602  -0.03421
 Alpha virt. eigenvalues --   -0.02428  -0.01580  -0.01432  -0.01004  -0.00851

 Mulliken charges:
               1
     1  N   -0.760009
     2  H    0.413881
     3  H    0.411538
     4  H    0.438839
     5  C   -0.105814
     6  H    0.220437
     7  C    0.654641
     8  C   -0.485864
     9  H    0.227950
    10  H    0.191930
    11  H    0.195816
    12  O   -0.532106
    13  N   -0.586886
    14  H    0.369886
    15  C   -0.087040
    16  H    0.198105
    17  C    0.647551
    18  C   -0.368207
    19  H    0.182856
    20  H    0.161553
    21  O   -0.543628
    22  C    0.080379
    23  C   -0.019615
    24  H    0.150721
    25  C    0.098135
    26  C    0.301984
    27  C   -0.204841
    28  H    0.121118
    29  N   -0.689591
    30  H    0.334153
    31  C   -0.150292
    32  H    0.138156
    33  C   -0.165082
    34  H    0.131312
    35  C   -0.139029
    36  H    0.135531
    37  N   -0.597922
    38  H    0.359179
    39  C   -0.086887
    40  H    0.196158
    41  C    0.615749
    42  C   -0.023343
    43  H    0.152516
    44  H    0.138828
    45  O   -0.541736
    46  O   -0.613611
    47  H    0.403705
    48  N   -0.603611
    49  H    0.355909
    50  C   -0.057333
    51  H    0.173220
    52  C    0.619064
    53  C   -0.070563
    54  H    0.139162
    55  O   -0.562531
    56  C   -0.464435
    57  H    0.149946
    58  H    0.148716
    59  H    0.162194
    60  C   -0.444105
    61  H    0.155658
    62  H    0.145049
    63  H    0.144969
    64  N   -0.612675
    65  H    0.358472
    66  C   -0.035523
    67  H    0.171946
    68  C    0.601120
    69  C   -0.460449
    70  H    0.183651
    71  H    0.152421
    72  H    0.169212
    73  O   -0.565835
    74  N   -0.622250
    75  H    0.359623
    76  C   -0.062798
    77  H    0.151485
    78  C    0.565779
    79  C   -0.256835
    80  H    0.148928
    81  H    0.145129
    82  O   -0.605878
    83  C   -0.325748
    84  H    0.154921
    85  H    0.195799
    86  C   -0.148085
    87  H    0.171669
    88  H    0.185447
    89  N   -0.597222
    90  H    0.375222
    91  N   -0.756544
    92  H    0.380218
    93  H    0.394953
    94  N   -0.758837
    95  H    0.378202
    96  H    0.382716
    97  C    0.819826
    98  O   -0.600474
 Sum of Mulliken charges =   1.00000

 Dipole moment (field-independent basis, Debye):
    X=            -20.6659    Y=              1.4881    Z=              9.7748  Tot=             22.9094
 Quadrupole moment (field-independent basis, Debye-Ang):
   XX=            110.9317   YY=            194.7303   ZZ=           -305.2406
   XY=           -439.4769   XZ=            -24.0283   YZ=             61.8548

 Normal termination of Gaussian 16 at Tue Jun 28 00:57:22 2022.
