 Gaussian 16, Revision C.01,
 Gaussian 16:  ES64L-G16RevC.01  3-Jul-2019

 -------------------------------------------------------------------
 # B3LYP/6-31G* guess=read geom=check nosymm integral(ultrafinegrid)
 -------------------------------------------------------------------

 ------------------------------------------------------
 Candidate Structure: Conf:448 Charge calc in gas phase
 ------------------------------------------------------
 Structure from the checkpoint file:  "conf-448.chk"
 Charge =  1 Multiplicity = 1

                          Input orientation:
 ---------------------------------------------------------------------
 Center     Atomic      Atomic             Coordinates (Angstroms)
 Number     Number       Type             X           Y           Z
 ---------------------------------------------------------------------
      1          7           0       -7.759488    4.337352    5.165366
      2          1           0       -7.791639    4.594388    6.155390
      3          1           0       -8.688177    4.484479    4.760117
      4          1           0       -7.024179    4.934392    4.657684
      5          6           0       -7.215470    2.941812    4.916759
      6          1           0       -7.040055    2.475874    5.889510
      7          6           0       -5.860575    3.237011    4.203146
      8          6           0       -8.185252    2.112288    4.076062
      9          1           0       -7.759856    1.123168    3.885459
     10          1           0       -9.136611    1.966197    4.597837
     11          1           0       -8.371554    2.584930    3.105381
     12          8           0       -5.616862    4.426061    3.925915
     13          7           0       -5.089453    2.195137    3.951550
     14          1           0       -5.386724    1.226344    4.117141
     15          6           0       -3.829469    2.229911    3.202931
     16          1           0       -3.976104    2.826401    2.296125
     17          6           0       -3.604077    0.744628    2.821736
     18          6           0       -2.664512    2.857239    4.028041
     19          1           0       -2.313351    2.127614    4.766664
     20          1           0       -3.090218    3.698825    4.587172
     21          8           0       -4.404843   -0.111649    3.222022
     22          6           0       -1.533953    3.346958    3.172226
     23          6           0       -0.276944    2.798564    3.052903
     24          1           0        0.139651    1.915758    3.516450
     25          6           0       -1.556862    4.511137    2.315020
     26          6           0       -0.277208    4.600758    1.703468
     27          6           0       -2.525996    5.485601    2.013333
     28          1           0       -3.508422    5.452615    2.478032
     29          7           0        0.479601    3.549290    2.183999
     30          1           0        1.406493    3.302690    1.872314
     31          6           0       -0.929925    6.559934    0.514745
     32          1           0       -0.708788    7.362978   -0.182247
     33          6           0        0.050462    5.617373    0.800802
     34          1           0        1.033816    5.671623    0.341881
     35          6           0       -2.203365    6.496655    1.116786
     36          1           0       -2.941404    7.256247    0.874757
     37          7           0       -2.532168    0.469157    2.065466
     38          1           0       -1.840776    1.186627    1.852561
     39          6           0       -2.180869   -0.887859    1.676308
     40          1           0       -2.456778   -1.575723    2.481689
     41          6           0       -0.672693   -0.929243    1.418055
     42          6           0       -2.960603   -1.322874    0.393921
     43          1           0       -2.746833   -0.603550   -0.408076
     44          1           0       -4.027348   -1.269426    0.631889
     45          8           0       -0.005872    0.097557    1.293243
     46          8           0       -2.660826   -2.646975    0.009027
     47          1           0       -1.916649   -2.611854   -0.632469
     48          7           0       -0.168095   -2.187368    1.291113
     49          1           0       -0.877794   -2.907961    1.178018
     50          6           0        1.072159   -2.415676    0.554615
     51          1           0        1.827051   -1.729430    0.952084
     52          6           0        0.813951   -2.082784   -0.934589
     53          6           0        1.539400   -3.881468    0.763997
     54          1           0        0.728556   -4.528149    0.396032
     55          8           0       -0.286766   -2.297636   -1.462417
     56          6           0        2.806901   -4.214679   -0.037139
     57          1           0        3.642436   -3.563811    0.252404
     58          1           0        3.112167   -5.246429    0.165269
     59          1           0        2.660150   -4.118360   -1.116590
     60          6           0        1.759617   -4.171481    2.257013
     61          1           0        2.575723   -3.555955    2.656182
     62          1           0        2.033317   -5.221973    2.401753
     63          1           0        0.865176   -3.968228    2.852363
     64          7           0        1.847088   -1.559587   -1.616810
     65          1           0        2.751027   -1.401222   -1.182670
     66          6           0        1.792554   -1.240173   -3.036004
     67          1           0        1.275237   -2.054776   -3.555036
     68          6           0        3.247954   -1.150751   -3.522862
     69          6           0        1.043440    0.080781   -3.302000
     70          1           0        1.014053    0.311388   -4.371960
     71          1           0        1.536168    0.909179   -2.782977
     72          1           0        0.018127   -0.008419   -2.935498
     73          8           0        4.177153   -1.024849   -2.713981
     74          7           0        3.409629   -1.205844   -4.862677
     75          1           0        2.593090   -1.119528   -5.461578
     76          6           0        4.654755   -0.819087   -5.514915
     77          1           0        5.293964   -0.431826   -4.730899
     78          6           0        4.344628    0.318329   -6.505675
     79          6           0        5.334847   -2.004241   -6.244041
     80          1           0        4.551629   -2.530816   -6.802603
     81          1           0        6.027330   -1.605605   -6.994698
     82          8           0        5.368187    1.088307   -6.852405
     83          6           0        6.079920   -3.003735   -5.336591
     84          1           0        5.492658   -3.199870   -4.429877
     85          1           0        6.151339   -3.960793   -5.870020
     86          6           0        7.520894   -2.616155   -4.942244
     87          1           0        8.102640   -2.381217   -5.840622
     88          1           0        8.011977   -3.482188   -4.486841
     89          7           0        7.655652   -1.513956   -3.992058
     90          1           0        7.494302   -1.743417   -3.020021
     91          7           0        7.660083    0.351834   -5.486944
     92          1           0        6.217282    0.885721   -6.337244
     93          1           0        8.176882   -0.268144   -6.110001
     94          7           0        7.017887    0.581320   -3.266860
     95          1           0        6.908957    1.556982   -3.516697
     96          1           0        6.234123    0.199667   -2.742674
     97          6           0        7.468066   -0.194147   -4.320368
     98          8           0        3.222923    0.465451   -6.951783
 ---------------------------------------------------------------------

 SCF Done:  E(RB3LYP) =  -2360.03116217     A.U. after    2 cycles

 Alpha  occ. eigenvalues --  -19.27501 -19.21935 -19.21729 -19.20531 -19.20145
 Alpha  occ. eigenvalues --  -19.20094 -19.19816 -19.17565 -14.60360 -14.49438
 Alpha  occ. eigenvalues --  -14.45222 -14.44827 -14.43643 -14.43303 -14.43248
 Alpha  occ. eigenvalues --  -14.41786 -14.40413 -14.35463 -10.43965 -10.41703
 Alpha  occ. eigenvalues --  -10.38915 -10.36847 -10.36780 -10.36572 -10.36014
 Alpha  occ. eigenvalues --  -10.35189 -10.34392 -10.34216 -10.31100 -10.31049
 Alpha  occ. eigenvalues --  -10.30911 -10.30614 -10.29305 -10.29233 -10.28980
 Alpha  occ. eigenvalues --  -10.28943 -10.28534 -10.27266 -10.25845 -10.25532
 Alpha  occ. eigenvalues --  -10.25272 -10.25241 -10.25224 -10.25045 -10.25026
 Alpha  occ. eigenvalues --  -10.24717 -10.24584 -10.24431 -10.24173  -1.19758
 Alpha  occ. eigenvalues --   -1.14314  -1.13743  -1.13212  -1.12214  -1.11601
 Alpha  occ. eigenvalues --   -1.10835  -1.08073  -1.06205  -1.05279  -1.04840
 Alpha  occ. eigenvalues --   -1.04416  -1.01702  -1.00321  -1.00123  -0.99861
 Alpha  occ. eigenvalues --   -0.95145  -0.93792  -0.90557  -0.90473  -0.89328
 Alpha  occ. eigenvalues --   -0.88170  -0.86407  -0.85260  -0.84059  -0.83290
 Alpha  occ. eigenvalues --   -0.81536  -0.80083  -0.80002  -0.79114  -0.77878
 Alpha  occ. eigenvalues --   -0.76402  -0.75330  -0.74564  -0.74194  -0.73191
 Alpha  occ. eigenvalues --   -0.72733  -0.72332  -0.70320  -0.68813  -0.68226
 Alpha  occ. eigenvalues --   -0.67354  -0.67060  -0.66779  -0.66007  -0.65979
 Alpha  occ. eigenvalues --   -0.65362  -0.64820  -0.64587  -0.63773  -0.63695
 Alpha  occ. eigenvalues --   -0.63341  -0.62362  -0.61240  -0.60775  -0.60343
 Alpha  occ. eigenvalues --   -0.59642  -0.59214  -0.58733  -0.57781  -0.57668
 Alpha  occ. eigenvalues --   -0.56990  -0.56175  -0.56102  -0.55406  -0.54944
 Alpha  occ. eigenvalues --   -0.54900  -0.54598  -0.54462  -0.53966  -0.53700
 Alpha  occ. eigenvalues --   -0.53240  -0.52856  -0.52441  -0.52364  -0.52164
 Alpha  occ. eigenvalues --   -0.51912  -0.51650  -0.50981  -0.50871  -0.50367
 Alpha  occ. eigenvalues --   -0.50186  -0.49935  -0.49493  -0.49342  -0.49276
 Alpha  occ. eigenvalues --   -0.48707  -0.48552  -0.48285  -0.47866  -0.47407
 Alpha  occ. eigenvalues --   -0.47068  -0.47044  -0.46760  -0.46448  -0.46310
 Alpha  occ. eigenvalues --   -0.45932  -0.45662  -0.45240  -0.45101  -0.44957
 Alpha  occ. eigenvalues --   -0.44840  -0.44172  -0.43820  -0.42950  -0.42327
 Alpha  occ. eigenvalues --   -0.42126  -0.41846  -0.41220  -0.41161  -0.41002
 Alpha  occ. eigenvalues --   -0.40842  -0.40210  -0.40086  -0.39845  -0.39548
 Alpha  occ. eigenvalues --   -0.39420  -0.39405  -0.36816  -0.36322  -0.34998
 Alpha  occ. eigenvalues --   -0.34859  -0.34387  -0.34258  -0.34128  -0.33960
 Alpha  occ. eigenvalues --   -0.33502  -0.33052  -0.32670  -0.32156  -0.32015
 Alpha  occ. eigenvalues --   -0.31057  -0.29186  -0.28828  -0.27281
 Alpha virt. eigenvalues --   -0.12672  -0.11600  -0.07886  -0.07366  -0.06700
 Alpha virt. eigenvalues --   -0.06578  -0.05899  -0.04991  -0.04777  -0.03942
 Alpha virt. eigenvalues --   -0.03249  -0.02460  -0.01727  -0.01289  -0.01063

 Mulliken charges:
               1
     1  N   -0.759559
     2  H    0.417504
     3  H    0.414742
     4  H    0.438023
     5  C   -0.105455
     6  H    0.226480
     7  C    0.654576
     8  C   -0.485802
     9  H    0.224475
    10  H    0.196247
    11  H    0.196393
    12  O   -0.542730
    13  N   -0.614777
    14  H    0.378800
    15  C   -0.056509
    16  H    0.208879
    17  C    0.618853
    18  C   -0.357423
    19  H    0.163523
    20  H    0.177443
    21  O   -0.552936
    22  C    0.015089
    23  C    0.019503
    24  H    0.168863
    25  C    0.086130
    26  C    0.312063
    27  C   -0.227245
    28  H    0.136814
    29  N   -0.680037
    30  H    0.341165
    31  C   -0.148633
    32  H    0.139689
    33  C   -0.158467
    34  H    0.136670
    35  C   -0.139522
    36  H    0.128723
    37  N   -0.626757
    38  H    0.383280
    39  C   -0.074943
    40  H    0.193204
    41  C    0.602205
    42  C   -0.035741
    43  H    0.146746
    44  H    0.168117
    45  O   -0.544597
    46  O   -0.647537
    47  H    0.443162
    48  N   -0.599901
    49  H    0.349505
    50  C   -0.053019
    51  H    0.167007
    52  C    0.647306
    53  C   -0.100024
    54  H    0.146811
    55  O   -0.572490
    56  C   -0.463453
    57  H    0.144734
    58  H    0.164211
    59  H    0.159074
    60  C   -0.443526
    61  H    0.147310
    62  H    0.159528
    63  H    0.158429
    64  N   -0.602319
    65  H    0.357362
    66  C   -0.043672
    67  H    0.186734
    68  C    0.619301
    69  C   -0.452727
    70  H    0.173849
    71  H    0.161378
    72  H    0.185659
    73  O   -0.565531
    74  N   -0.592196
    75  H    0.354601
    76  C   -0.100495
    77  H    0.177245
    78  C    0.604769
    79  C   -0.263703
    80  H    0.159847
    81  H    0.156241
    82  O   -0.596879
    83  C   -0.263557
    84  H    0.150910
    85  H    0.152771
    86  C   -0.157388
    87  H    0.161255
    88  H    0.165088
    89  N   -0.563620
    90  H    0.333449
    91  N   -0.717516
    92  H    0.460928
    93  H    0.296915
    94  N   -0.745517
    95  H    0.345380
    96  H    0.353169
    97  C    0.598054
    98  O   -0.479980
 Sum of Mulliken charges =   1.00000

 Dipole moment (field-independent basis, Debye):
    X=            -20.2594    Y=              7.9952    Z=             19.0976  Tot=             28.9670
 Quadrupole moment (field-independent basis, Debye-Ang):
   XX=            -24.7783   YY=           -220.4405   ZZ=           -198.5954
   XY=           -143.1116   XZ=           -158.9867   YZ=             94.1419

 Normal termination of Gaussian 16 at Tue Jun 28 00:39:45 2022.
