 Gaussian 16, Revision C.01,
 Gaussian 16:  ES64L-G16RevC.01  3-Jul-2019

 -------------------------------------------------------------------
 # B3LYP/6-31G* guess=read geom=check nosymm integral(ultrafinegrid)
 -------------------------------------------------------------------

 ------------------------------------------------------
 Candidate Structure: Conf:797 Charge calc in gas phase
 ------------------------------------------------------
 Structure from the checkpoint file:  "conf-797.chk"
 Charge =  1 Multiplicity = 1

                          Input orientation:
 ---------------------------------------------------------------------
 Center     Atomic      Atomic             Coordinates (Angstroms)
 Number     Number       Type             X           Y           Z
 ---------------------------------------------------------------------
      1          7           0       -7.216668    4.036044    4.738723
      2          1           0       -7.152569    3.471452    5.611291
      3          1           0       -8.034166    4.650750    4.772086
      4          1           0       -6.323532    4.575672    4.683680
      5          6           0       -7.169461    3.150696    3.512259
      6          1           0       -7.763597    2.260092    3.727973
      7          6           0       -5.657749    2.824260    3.411806
      8          6           0       -7.693087    3.903632    2.290814
      9          1           0       -7.626109    3.257615    1.410945
     10          1           0       -8.743350    4.189385    2.415781
     11          1           0       -7.093342    4.798692    2.095395
     12          8           0       -4.863773    3.664156    3.856722
     13          7           0       -5.344370    1.655224    2.866660
     14          1           0       -6.051295    0.981090    2.567064
     15          6           0       -4.010637    1.063830    2.884807
     16          1           0       -3.289356    1.775353    2.472239
     17          6           0       -4.128392   -0.173613    1.971198
     18          6           0       -3.575134    0.675860    4.339454
     19          1           0       -3.222138    1.586022    4.833030
     20          1           0       -2.709653    0.008196    4.260515
     21          8           0       -5.236617   -0.690354    1.781007
     22          6           0       -4.678866    0.053599    5.150921
     23          6           0       -5.162222   -1.230040    5.056335
     24          1           0       -4.825052   -2.049574    4.437674
     25          6           0       -5.521364    0.726079    6.111844
     26          6           0       -6.504752   -0.210045    6.546016
     27          6           0       -5.536322    2.020093    6.669500
     28          1           0       -4.765309    2.739791    6.407464
     29          7           0       -6.253804   -1.389931    5.884988
     30          1           0       -6.761655   -2.252754    6.011599
     31          6           0       -7.514390    1.413407    7.977262
     32          1           0       -8.267911    1.696030    8.706278
     33          6           0       -7.503848    0.120447    7.469973
     34          1           0       -8.243274   -0.610152    7.786049
     35          6           0       -6.533946    2.355739    7.587587
     36          1           0       -6.516268    3.331695    8.068716
     37          7           0       -2.974009   -0.624847    1.467183
     38          1           0       -2.094005   -0.135807    1.618980
     39          6           0       -2.855134   -1.726626    0.524243
     40          1           0       -3.343639   -2.621051    0.932893
     41          6           0       -1.340645   -1.960199    0.365542
     42          6           0       -3.505739   -1.379465   -0.846875
     43          1           0       -4.550645   -1.119434   -0.654686
     44          1           0       -3.508290   -2.282570   -1.478226
     45          8           0       -0.527187   -1.209920    0.897534
     46          8           0       -2.887824   -0.288525   -1.473460
     47          1           0       -2.122475   -0.624778   -1.987992
     48          7           0       -0.977698   -3.012022   -0.421213
     49          1           0       -1.713406   -3.407937   -0.994776
     50          6           0        0.337947   -2.998064   -1.071388
     51          1           0        1.089161   -2.846680   -0.290318
     52          6           0        0.350099   -1.799604   -2.053143
     53          6           0        0.584211   -4.350764   -1.782881
     54          1           0       -0.215230   -4.466079   -2.530936
     55          8           0       -0.682011   -1.515843   -2.683745
     56          6           0        1.927709   -4.368245   -2.527618
     57          1           0        2.764593   -4.218020   -1.833046
     58          1           0        2.072079   -5.339218   -3.013473
     59          1           0        1.987195   -3.594846   -3.298327
     60          6           0        0.505871   -5.521251   -0.790330
     61          1           0        1.301345   -5.446090   -0.038197
     62          1           0        0.631671   -6.474647   -1.315204
     63          1           0       -0.450158   -5.550105   -0.259228
     64          7           0        1.496585   -1.124340   -2.164079
     65          1           0        2.342431   -1.389464   -1.661943
     66          6           0        1.680934    0.057948   -2.997564
     67          1           0        1.254950   -0.137499   -3.987665
     68          6           0        3.208136    0.267915   -3.113608
     69          6           0        1.002701    1.299960   -2.388357
     70          1           0        1.180391    2.181661   -3.011942
     71          1           0        1.407714    1.497059   -1.389927
     72          1           0       -0.074816    1.135620   -2.304042
     73          8           0        3.981117   -0.389191   -2.392208
     74          7           0        3.563501    1.197025   -4.003669
     75          1           0        2.854738    1.832976   -4.421806
     76          6           0        4.804327    1.966193   -4.014786
     77          1           0        5.139594    2.133617   -2.982148
     78          6           0        4.417257    3.386896   -4.640694
     79          6           0        5.947403    1.344186   -4.815723
     80          1           0        5.557394    0.995037   -5.782156
     81          1           0        6.640635    2.169777   -5.016848
     82          8           0        5.381261    4.142727   -4.840611
     83          6           0        6.669335    0.200087   -4.095154
     84          1           0        7.063557    0.566294   -3.137600
     85          1           0        5.965290   -0.606997   -3.858657
     86          6           0        7.827309   -0.331418   -4.935848
     87          1           0        8.542886    0.472822   -5.144461
     88          1           0        7.460601   -0.732937   -5.889394
     89          7           0        8.540788   -1.404608   -4.203080
     90          1           0        8.039997   -1.814251   -3.423022
     91          7           0       10.363115   -1.526135   -5.631432
     92          1           0       11.365781   -1.610097   -5.719838
     93          1           0        9.890056   -0.941842   -6.306147
     94          7           0       10.391265   -2.695561   -3.635309
     95          1           0       11.134410   -3.295515   -3.963814
     96          1           0        9.998772   -2.908220   -2.729462
     97          6           0        9.747275   -1.870929   -4.487561
     98          8           0        3.181330    3.534631   -4.847764
 ---------------------------------------------------------------------

 SCF Done:  E(RB3LYP) =  -2359.97550845     A.U. after    3 cycles

 Alpha  occ. eigenvalues --  -19.24250 -19.20181 -19.19085 -19.17781 -19.16646
 Alpha  occ. eigenvalues --  -19.14219 -19.05843 -19.04809 -14.57892 -14.51272
 Alpha  occ. eigenvalues --  -14.51197 -14.50809 -14.47270 -14.46965 -14.43644
 Alpha  occ. eigenvalues --  -14.42473 -14.40425 -14.35609 -10.47369 -10.41318
 Alpha  occ. eigenvalues --  -10.39007 -10.37183 -10.35779 -10.33716 -10.32982
 Alpha  occ. eigenvalues --  -10.32592 -10.31829 -10.31178 -10.30738 -10.30638
 Alpha  occ. eigenvalues --  -10.30208 -10.29054 -10.29036 -10.28467 -10.28417
 Alpha  occ. eigenvalues --  -10.28245 -10.28087 -10.27864 -10.27813 -10.27103
 Alpha  occ. eigenvalues --  -10.26499 -10.25905 -10.24597 -10.23807 -10.23297
 Alpha  occ. eigenvalues --  -10.23264 -10.21533 -10.20823 -10.20607  -1.16808
 Alpha  occ. eigenvalues --   -1.15869  -1.12275  -1.11720  -1.10962  -1.08265
 Alpha  occ. eigenvalues --   -1.06917  -1.05775  -1.05277  -1.04809  -1.04188
 Alpha  occ. eigenvalues --   -1.03990  -1.00174  -0.99099  -0.98910  -0.96706
 Alpha  occ. eigenvalues --   -0.93274  -0.92972  -0.91479  -0.90145  -0.89177
 Alpha  occ. eigenvalues --   -0.87063  -0.86793  -0.85644  -0.83006  -0.82271
 Alpha  occ. eigenvalues --   -0.81009  -0.80836  -0.79454  -0.79133  -0.76939
 Alpha  occ. eigenvalues --   -0.76129  -0.75439  -0.74170  -0.73708  -0.72112
 Alpha  occ. eigenvalues --   -0.71810  -0.71457  -0.71369  -0.70441  -0.69491
 Alpha  occ. eigenvalues --   -0.69136  -0.68522  -0.68270  -0.66328  -0.65342
 Alpha  occ. eigenvalues --   -0.65053  -0.64563  -0.64344  -0.64179  -0.63151
 Alpha  occ. eigenvalues --   -0.62917  -0.62722  -0.61852  -0.61074  -0.60067
 Alpha  occ. eigenvalues --   -0.59434  -0.58274  -0.57855  -0.57677  -0.57066
 Alpha  occ. eigenvalues --   -0.56543  -0.56453  -0.56308  -0.55719  -0.55046
 Alpha  occ. eigenvalues --   -0.54681  -0.54416  -0.54019  -0.53177  -0.53061
 Alpha  occ. eigenvalues --   -0.52469  -0.52209  -0.52007  -0.51717  -0.51402
 Alpha  occ. eigenvalues --   -0.50905  -0.50665  -0.50246  -0.50024  -0.49549
 Alpha  occ. eigenvalues --   -0.49248  -0.48889  -0.48681  -0.48444  -0.47923
 Alpha  occ. eigenvalues --   -0.47481  -0.47007  -0.46708  -0.46484  -0.46250
 Alpha  occ. eigenvalues --   -0.45858  -0.45546  -0.45003  -0.44688  -0.44287
 Alpha  occ. eigenvalues --   -0.44229  -0.43713  -0.43637  -0.43095  -0.42987
 Alpha  occ. eigenvalues --   -0.42925  -0.42464  -0.42438  -0.42059  -0.41066
 Alpha  occ. eigenvalues --   -0.40092  -0.39806  -0.39644  -0.39530  -0.39260
 Alpha  occ. eigenvalues --   -0.38784  -0.38747  -0.37585  -0.37555  -0.37207
 Alpha  occ. eigenvalues --   -0.37068  -0.36619  -0.36258  -0.35211  -0.34620
 Alpha  occ. eigenvalues --   -0.33977  -0.33471  -0.33271  -0.32514  -0.31829
 Alpha  occ. eigenvalues --   -0.30733  -0.30527  -0.29969  -0.29307  -0.28322
 Alpha  occ. eigenvalues --   -0.26990  -0.20936  -0.20732  -0.19171
 Alpha virt. eigenvalues --   -0.11301  -0.10842  -0.10346  -0.08521  -0.07441
 Alpha virt. eigenvalues --   -0.07121  -0.06304  -0.05083  -0.03330  -0.03083
 Alpha virt. eigenvalues --   -0.02958  -0.02578  -0.02395  -0.01852  -0.01825

 Mulliken charges:
               1
     1  N   -0.749472
     2  H    0.408647
     3  H    0.403109
     4  H    0.418437
     5  C   -0.120250
     6  H    0.214031
     7  C    0.672656
     8  C   -0.470177
     9  H    0.216918
    10  H    0.183777
    11  H    0.199802
    12  O   -0.546512
    13  N   -0.610517
    14  H    0.369780
    15  C   -0.037895
    16  H    0.197853
    17  C    0.641072
    18  C   -0.380943
    19  H    0.185435
    20  H    0.183083
    21  O   -0.562585
    22  C    0.065276
    23  C    0.025722
    24  H    0.179633
    25  C    0.075895
    26  C    0.314173
    27  C   -0.268794
    28  H    0.163555
    29  N   -0.684003
    30  H    0.345702
    31  C   -0.151562
    32  H    0.150324
    33  C   -0.156951
    34  H    0.151000
    35  C   -0.202589
    36  H    0.145332
    37  N   -0.615984
    38  H    0.368662
    39  C   -0.056924
    40  H    0.169486
    41  C    0.611717
    42  C   -0.053588
    43  H    0.175678
    44  H    0.125270
    45  O   -0.525395
    46  O   -0.650409
    47  H    0.457294
    48  N   -0.599934
    49  H    0.335806
    50  C   -0.041602
    51  H    0.170800
    52  C    0.639776
    53  C   -0.102777
    54  H    0.141613
    55  O   -0.593173
    56  C   -0.461949
    57  H    0.142753
    58  H    0.152697
    59  H    0.169529
    60  C   -0.441842
    61  H    0.147240
    62  H    0.152938
    63  H    0.150933
    64  N   -0.595159
    65  H    0.353408
    66  C   -0.042949
    67  H    0.180057
    68  C    0.597398
    69  C   -0.463370
    70  H    0.196349
    71  H    0.153626
    72  H    0.168523
    73  O   -0.589402
    74  N   -0.608689
    75  H    0.366418
    76  C   -0.073590
    77  H    0.137716
    78  C    0.584489
    79  C   -0.263542
    80  H    0.131019
    81  H    0.175317
    82  O   -0.584622
    83  C   -0.313576
    84  H    0.153717
    85  H    0.178396
    86  C   -0.152751
    87  H    0.182391
    88  H    0.183128
    89  N   -0.598503
    90  H    0.369700
    91  N   -0.754513
    92  H    0.382233
    93  H    0.397512
    94  N   -0.763448
    95  H    0.381108
    96  H    0.381994
    97  C    0.824042
    98  O   -0.612003
 Sum of Mulliken charges =   1.00000

 Dipole moment (field-independent basis, Debye):
    X=             -1.8776    Y=            -12.1119    Z=             13.3017  Tot=             18.0875
 Quadrupole moment (field-independent basis, Debye-Ang):
   XX=            255.7650   YY=           -246.2070   ZZ=           -177.4830
   XY=           -204.7647   XZ=           -256.6134   YZ=            130.8887

 Normal termination of Gaussian 16 at Tue Jun 28 00:57:29 2022.
