 Gaussian 16, Revision C.01,
 Gaussian 16:  ES64L-G16RevC.01  3-Jul-2019

 -------------------------------------------------------------------
 # B3LYP/6-31G* guess=read geom=check nosymm integral(ultrafinegrid)
 -------------------------------------------------------------------

 ------------------------------------------------------
 Candidate Structure: Conf:304 Charge calc in gas phase
 ------------------------------------------------------
 Structure from the checkpoint file:  "conf-304.chk"
 Charge =  1 Multiplicity = 1

                          Input orientation:
 ---------------------------------------------------------------------
 Center     Atomic      Atomic             Coordinates (Angstroms)
 Number     Number       Type             X           Y           Z
 ---------------------------------------------------------------------
      1          7           0       -7.514338   -0.142710   -0.119539
      2          1           0       -8.156727   -0.923933   -0.280124
      3          1           0       -6.568722   -0.472921    0.209044
      4          1           0       -7.350263    0.373383   -0.993898
      5          6           0       -8.010179    0.855504    0.922908
      6          1           0       -8.866432    1.369700    0.479214
      7          6           0       -6.796778    1.820761    0.932679
      8          6           0       -8.391912    0.126283    2.201536
      9          1           0       -8.693748    0.852462    2.962744
     10          1           0       -9.247410   -0.537387    2.035555
     11          1           0       -7.559727   -0.468991    2.591417
     12          8           0       -6.480398    2.310416   -0.145388
     13          7           0       -6.071930    1.921649    2.073579
     14          1           0       -6.376515    1.374553    2.873688
     15          6           0       -4.618965    1.949869    1.947241
     16          1           0       -4.349414    2.761774    1.266160
     17          6           0       -4.181821    0.609807    1.274602
     18          6           0       -3.977246    2.222812    3.335767
     19          1           0       -4.242830    3.251897    3.601664
     20          1           0       -2.886839    2.208222    3.229548
     21          8           0       -5.009543   -0.270846    0.964503
     22          6           0       -4.405100    1.283355    4.430143
     23          6           0       -5.479411    1.466176    5.275832
     24          1           0       -6.160578    2.304196    5.351489
     25          6           0       -3.783221    0.038621    4.824603
     26          6           0       -4.544309   -0.482696    5.905659
     27          6           0       -2.637211   -0.662795    4.403538
     28          1           0       -2.004370   -0.274170    3.611143
     29          7           0       -5.578333    0.402353    6.147138
     30          1           0       -6.217774    0.349339    6.925701
     31          6           0       -3.087349   -2.356347    6.100206
     32          1           0       -2.797256   -3.286150    6.580632
     33          6           0       -4.214363   -1.680735    6.549084
     34          1           0       -4.808809   -2.062239    7.374707
     35          6           0       -2.303243   -1.848405    5.043168
     36          1           0       -1.416192   -2.392332    4.731806
     37          7           0       -2.877501    0.481793    1.030871
     38          1           0       -2.196119    1.162390    1.366080
     39          6           0       -2.255385   -0.704414    0.462473
     40          1           0       -2.766321   -1.598106    0.833353
     41          6           0       -0.789822   -0.675812    0.917651
     42          6           0       -2.341028   -0.698041   -1.096057
     43          1           0       -1.873286    0.222164   -1.470598
     44          1           0       -3.402774   -0.674796   -1.363460
     45          8           0       -0.316166    0.331629    1.446199
     46          8           0       -1.764188   -1.851875   -1.662110
     47          1           0       -0.824095   -1.641073   -1.874086
     48          7           0       -0.092615   -1.806928    0.647472
     49          1           0       -0.574160   -2.450260    0.023642
     50          6           0        1.362299   -1.769577    0.494548
     51          1           0        1.768656   -1.200867    1.336434
     52          6           0        1.675875   -1.026333   -0.828055
     53          6           0        1.925501   -3.215625    0.518635
     54          1           0        1.448767   -3.755977   -0.313565
     55          8           0        0.909214   -1.104372   -1.803685
     56          6           0        3.445313   -3.257108    0.298930
     57          1           0        3.975443   -2.689445    1.074365
     58          1           0        3.798333   -4.292253    0.352191
     59          1           0        3.741411   -2.854783   -0.673570
     60          6           0        1.556669   -3.918400    1.834678
     61          1           0        2.029236   -3.416254    2.688256
     62          1           0        1.909108   -4.955330    1.821677
     63          1           0        0.476445   -3.928849    2.007132
     64          7           0        2.806176   -0.311773   -0.848872
     65          1           0        3.450888   -0.288479   -0.059707
     66          6           0        3.318686    0.389625   -2.019027
     67          1           0        3.229411   -0.268669   -2.891140
     68          6           0        4.811159    0.656261   -1.715515
     69          6           0        2.549237    1.693548   -2.292801
     70          1           0        2.943684    2.199925   -3.179341
     71          1           0        2.633670    2.373709   -1.439021
     72          1           0        1.494144    1.465558   -2.464285
     73          8           0        5.261754    0.457315   -0.580387
     74          7           0        5.532030    1.116775   -2.746973
     75          1           0        5.124262    1.336294   -3.657009
     76          6           0        6.903739    1.604228   -2.649741
     77          1           0        7.006573    2.199028   -1.735193
     78          6           0        7.100771    2.530200   -3.894035
     79          6           0        7.893093    0.399441   -2.571725
     80          1           0        7.380488   -0.351815   -1.965010
     81          1           0        8.007839   -0.036883   -3.573478
     82          8           0        8.127073    3.298368   -3.857161
     83          6           0        9.278519    0.647106   -1.918205
     84          1           0        9.247022    1.547029   -1.290672
     85          1           0        9.504061   -0.181487   -1.237113
     86          6           0       10.476391    0.757607   -2.874973
     87          1           0       10.544053   -0.144096   -3.499976
     88          1           0       11.403316    0.828683   -2.289907
     89          7           0       10.317274    1.938382   -3.720941
     90          1           0        9.489465    2.554162   -3.498488
     91          7           0       11.759819    1.378317   -5.479659
     92          1           0       11.847278    1.238446   -6.475136
     93          1           0       12.278113    0.754657   -4.880142
     94          7           0       10.040849    2.928828   -5.768229
     95          1           0       10.464816    3.315617   -6.598013
     96          1           0        9.177601    3.338838   -5.364457
     97          6           0       10.707407    2.072156   -4.982501
     98          8           0        6.271308    2.442546   -4.809695
 ---------------------------------------------------------------------

 SCF Done:  E(RB3LYP) =  -2360.03989073     A.U. after    1 cycles

 Alpha  occ. eigenvalues --  -19.24366 -19.23658 -19.20715 -19.20341 -19.18721
 Alpha  occ. eigenvalues --  -19.16358 -19.13533 -19.12670 -14.58145 -14.47409
 Alpha  occ. eigenvalues --  -14.46428 -14.46173 -14.45639 -14.43236 -14.42854
 Alpha  occ. eigenvalues --  -14.42280 -14.41995 -14.39385 -10.41725 -10.40254
 Alpha  occ. eigenvalues --  -10.40168 -10.39367 -10.36922 -10.35424 -10.34408
 Alpha  occ. eigenvalues --  -10.33299 -10.32503 -10.31717 -10.31200 -10.30959
 Alpha  occ. eigenvalues --  -10.30586 -10.30172 -10.29625 -10.29590 -10.29578
 Alpha  occ. eigenvalues --  -10.28823 -10.27178 -10.26541 -10.26252 -10.26156
 Alpha  occ. eigenvalues --  -10.26121 -10.25748 -10.25560 -10.25109 -10.24914
 Alpha  occ. eigenvalues --  -10.23635 -10.23627 -10.23554 -10.23198  -1.17310
 Alpha  occ. eigenvalues --   -1.14558  -1.12253  -1.12129  -1.10121  -1.09006
 Alpha  occ. eigenvalues --   -1.08334  -1.07985  -1.06289  -1.06050  -1.04618
 Alpha  occ. eigenvalues --   -1.02808  -1.00253  -0.98912  -0.98478  -0.97565
 Alpha  occ. eigenvalues --   -0.96859  -0.95827  -0.92017  -0.91188  -0.89335
 Alpha  occ. eigenvalues --   -0.87610  -0.85747  -0.84901  -0.83297  -0.82709
 Alpha  occ. eigenvalues --   -0.80902  -0.80230  -0.79462  -0.78723  -0.77235
 Alpha  occ. eigenvalues --   -0.75879  -0.74543  -0.73078  -0.72954  -0.72781
 Alpha  occ. eigenvalues --   -0.71226  -0.71062  -0.70584  -0.69873  -0.69622
 Alpha  occ. eigenvalues --   -0.68133  -0.66968  -0.66653  -0.65953  -0.65534
 Alpha  occ. eigenvalues --   -0.65281  -0.64755  -0.64087  -0.63411  -0.62870
 Alpha  occ. eigenvalues --   -0.62674  -0.61872  -0.61516  -0.60936  -0.59737
 Alpha  occ. eigenvalues --   -0.59356  -0.58069  -0.57941  -0.57556  -0.57079
 Alpha  occ. eigenvalues --   -0.56517  -0.56363  -0.55863  -0.55308  -0.54867
 Alpha  occ. eigenvalues --   -0.54571  -0.54133  -0.53604  -0.53449  -0.53306
 Alpha  occ. eigenvalues --   -0.53027  -0.52767  -0.52169  -0.52004  -0.51968
 Alpha  occ. eigenvalues --   -0.51855  -0.51039  -0.50969  -0.50414  -0.50043
 Alpha  occ. eigenvalues --   -0.49982  -0.49914  -0.49607  -0.49100  -0.48955
 Alpha  occ. eigenvalues --   -0.48824  -0.48299  -0.47926  -0.47662  -0.47232
 Alpha  occ. eigenvalues --   -0.46757  -0.46672  -0.46188  -0.46038  -0.45672
 Alpha  occ. eigenvalues --   -0.45165  -0.44974  -0.44662  -0.44341  -0.44165
 Alpha  occ. eigenvalues --   -0.43628  -0.43125  -0.42632  -0.42182  -0.41658
 Alpha  occ. eigenvalues --   -0.40929  -0.40781  -0.40728  -0.40441  -0.40318
 Alpha  occ. eigenvalues --   -0.39830  -0.39672  -0.39424  -0.39268  -0.39173
 Alpha  occ. eigenvalues --   -0.38192  -0.38164  -0.37615  -0.36910  -0.35979
 Alpha  occ. eigenvalues --   -0.35163  -0.34647  -0.34189  -0.33286  -0.33022
 Alpha  occ. eigenvalues --   -0.32158  -0.31710  -0.30576  -0.30044  -0.29867
 Alpha  occ. eigenvalues --   -0.28615  -0.28337  -0.27856  -0.26937
 Alpha virt. eigenvalues --   -0.12553  -0.09306  -0.08922  -0.07930  -0.06443
 Alpha virt. eigenvalues --   -0.05102  -0.04785  -0.04533  -0.03210  -0.02700
 Alpha virt. eigenvalues --   -0.02080  -0.02035  -0.01625  -0.00344  -0.00017

 Mulliken charges:
               1
     1  N   -0.752610
     2  H    0.403669
     3  H    0.455257
     4  H    0.420578
     5  C   -0.096683
     6  H    0.224555
     7  C    0.603809
     8  C   -0.501306
     9  H    0.205887
    10  H    0.188277
    11  H    0.203067
    12  O   -0.500360
    13  N   -0.574033
    14  H    0.349306
    15  C   -0.088439
    16  H    0.214906
    17  C    0.669616
    18  C   -0.377486
    19  H    0.184033
    20  H    0.183468
    21  O   -0.607307
    22  C    0.030368
    23  C   -0.019275
    24  H    0.163690
    25  C    0.083514
    26  C    0.306602
    27  C   -0.215555
    28  H    0.141848
    29  N   -0.682089
    30  H    0.340160
    31  C   -0.147157
    32  H    0.143072
    33  C   -0.160260
    34  H    0.138666
    35  C   -0.146291
    36  H    0.138100
    37  N   -0.609172
    38  H    0.372827
    39  C   -0.074906
    40  H    0.193279
    41  C    0.617869
    42  C   -0.028245
    43  H    0.154002
    44  H    0.145190
    45  O   -0.542455
    46  O   -0.648827
    47  H    0.447377
    48  N   -0.599173
    49  H    0.347391
    50  C   -0.061924
    51  H    0.179371
    52  C    0.642674
    53  C   -0.097410
    54  H    0.141182
    55  O   -0.583313
    56  C   -0.464273
    57  H    0.154482
    58  H    0.159383
    59  H    0.163729
    60  C   -0.444590
    61  H    0.150637
    62  H    0.157433
    63  H    0.152254
    64  N   -0.599643
    65  H    0.365270
    66  C   -0.041430
    67  H    0.179252
    68  C    0.619545
    69  C   -0.451847
    70  H    0.170474
    71  H    0.162879
    72  H    0.172737
    73  O   -0.559990
    74  N   -0.622220
    75  H    0.359497
    76  C   -0.045806
    77  H    0.166725
    78  C    0.593995
    79  C   -0.274630
    80  H    0.174213
    81  H    0.139240
    82  O   -0.641463
    83  C   -0.304607
    84  H    0.170591
    85  H    0.158454
    86  C   -0.146130
    87  H    0.150739
    88  H    0.162818
    89  N   -0.610426
    90  H    0.416239
    91  N   -0.761762
    92  H    0.363841
    93  H    0.369359
    94  N   -0.779496
    95  H    0.349594
    96  H    0.416849
    97  C    0.773537
    98  O   -0.544787
 Sum of Mulliken charges =   1.00000

 Dipole moment (field-independent basis, Debye):
    X=            -10.3613    Y=             -2.4453    Z=              1.6431  Tot=             10.7720
 Quadrupole moment (field-independent basis, Debye-Ang):
   XX=            168.0826   YY=           -283.4683   ZZ=           -202.2623
   XY=             -6.5751   XZ=           -153.4044   YZ=              0.2353

 Normal termination of Gaussian 16 at Tue Jun 28 00:39:18 2022.
