 Gaussian 16, Revision C.01,
 Gaussian 16:  ES64L-G16RevC.01  3-Jul-2019

 -------------------------------------------------------------------
 # B3LYP/6-31G* guess=read geom=check nosymm integral(ultrafinegrid)
 -------------------------------------------------------------------

 ------------------------------------------------------
 Candidate Structure: Conf:123 Charge calc in gas phase
 ------------------------------------------------------
 Structure from the checkpoint file:  "conf-123.chk"
 Charge =  1 Multiplicity = 1

                          Input orientation:
 ---------------------------------------------------------------------
 Center     Atomic      Atomic             Coordinates (Angstroms)
 Number     Number       Type             X           Y           Z
 ---------------------------------------------------------------------
      1          7           0       -6.811166    6.618867    4.588690
      2          1           0       -6.886401    6.111244    5.495538
      3          1           0       -7.567907    7.304271    4.515729
      4          1           0       -5.877865    7.085486    4.563416
      5          6           0       -6.764072    5.649040    3.426259
      6          1           0       -7.418561    4.811784    3.677040
      7          6           0       -5.268065    5.244694    3.408343
      8          6           0       -7.192748    6.343090    2.135229
      9          1           0       -7.136210    5.633729    1.304526
     10          1           0       -8.226848    6.699614    2.196868
     11          1           0       -6.529644    7.183547    1.906382
     12          8           0       -4.448766    6.120196    3.702010
     13          7           0       -5.003092    3.972212    3.109679
     14          1           0       -5.723329    3.329105    2.783060
     15          6           0       -3.680363    3.356807    3.163745
     16          1           0       -2.931816    4.112520    2.911329
     17          6           0       -3.716165    2.217491    2.126921
     18          6           0       -3.382502    2.770251    4.581810
     19          1           0       -2.381284    2.325880    4.548946
     20          1           0       -4.084112    1.945451    4.757800
     21          8           0       -4.818193    1.729792    1.824502
     22          6           0       -3.466584    3.783654    5.686479
     23          6           0       -2.430663    4.544789    6.170279
     24          1           0       -1.379276    4.514731    5.917581
     25          6           0       -4.650936    4.236340    6.375492
     26          6           0       -4.255069    5.299506    7.242051
     27          6           0       -6.007209    3.863234    6.349020
     28          1           0       -6.337522    3.024561    5.741407
     29          7           0       -2.896947    5.453362    7.096471
     30          1           0       -2.320150    6.098427    7.615909
     31          6           0       -6.508548    5.633534    7.962923
     32          1           0       -7.239272    6.147833    8.580431
     33          6           0       -5.168783    6.005286    8.032641
     34          1           0       -4.845962    6.810758    8.686371
     35          6           0       -6.925854    4.564736    7.133052
     36          1           0       -7.967618    4.254253    7.149060
     37          7           0       -2.530614    1.812286    1.670584
     38          1           0       -1.666159    2.305302    1.908726
     39          6           0       -2.264589    0.677703    0.785566
     40          1           0       -2.583889   -0.253495    1.271181
     41          6           0       -0.721386    0.668900    0.640242
     42          6           0       -3.013785    0.755265   -0.573219
     43          1           0       -2.487088    0.143451   -1.312151
     44          1           0       -2.974602    1.799553   -0.926359
     45          8           0       -0.047720    1.582757    1.127035
     46          8           0       -4.321999    0.247887   -0.501572
     47          1           0       -4.772316    0.717097    0.227349
     48          7           0       -0.213599   -0.389028   -0.012539
     49          1           0       -0.822227   -1.044943   -0.497377
     50          6           0        1.182104   -0.504236   -0.435239
     51          1           0        1.638020    0.487674   -0.354915
     52          6           0        1.096620   -0.967438   -1.906815
     53          6           0        1.978639   -1.512181    0.444916
     54          1           0        1.528093   -2.500795    0.276763
     55          8           0        0.158427   -1.689432   -2.260176
     56          6           0        3.458830   -1.574747    0.035845
     57          1           0        3.944932   -0.598896    0.166703
     58          1           0        3.991917   -2.292373    0.668618
     59          1           0        3.598618   -1.882103   -1.004182
     60          6           0        1.852255   -1.168218    1.936115
     61          1           0        2.248638   -0.167898    2.146092
     62          1           0        2.416916   -1.890020    2.536716
     63          1           0        0.811575   -1.195927    2.272366
     64          7           0        2.067076   -0.539122   -2.731602
     65          1           0        2.873806   -0.014941   -2.398248
     66          6           0        2.195342   -0.972834   -4.116381
     67          1           0        1.989589   -2.048808   -4.166615
     68          6           0        3.668798   -0.709915   -4.500041
     69          6           0        1.212898   -0.236019   -5.043137
     70          1           0        1.308193   -0.586262   -6.075859
     71          1           0        1.403456    0.842204   -5.025142
     72          1           0        0.189515   -0.423770   -4.707859
     73          8           0        4.413046   -0.081573   -3.736482
     74          7           0        4.048371   -1.196678   -5.690644
     75          1           0        3.405190   -1.661778   -6.331620
     76          6           0        5.339677   -0.939687   -6.318140
     77          1           0        5.608220    0.111508   -6.165852
     78          6           0        5.121690   -1.205331   -7.841680
     79          6           0        6.435038   -1.833445   -5.656408
     80          1           0        6.186347   -1.845900   -4.591824
     81          1           0        6.318221   -2.865509   -6.014737
     82          8           0        6.024779   -0.734987   -8.623153
     83          6           0        7.912234   -1.374972   -5.775471
     84          1           0        7.960363   -0.302076   -6.002173
     85          1           0        8.400872   -1.494473   -4.801533
     86          6           0        8.784851   -2.130932   -6.790484
     87          1           0        8.764518   -3.208538   -6.574622
     88          1           0        9.825609   -1.791864   -6.699072
     89          7           0        8.288267   -1.884548   -8.142751
     90          1           0        7.507269   -1.180184   -8.220404
     91          7           0        9.197147   -3.735359   -9.256668
     92          1           0        8.993514   -4.553585   -9.811161
     93          1           0        9.910944   -3.827979   -8.550204
     94          7           0        7.341304   -2.600921  -10.101103
     95          1           0        7.453962   -3.006313  -11.017886
     96          1           0        6.592441   -1.909215   -9.900430
     97          6           0        8.277954   -2.743690   -9.155477
     98          8           0        4.120741   -1.855205   -8.172568
 ---------------------------------------------------------------------

 SCF Done:  E(RB3LYP) =  -2360.03713814     A.U. after    1 cycles

 Alpha  occ. eigenvalues --  -19.25102 -19.22250 -19.19291 -19.18770 -19.16591
 Alpha  occ. eigenvalues --  -19.15475 -19.12916 -19.12045 -14.58638 -14.48715
 Alpha  occ. eigenvalues --  -14.48132 -14.45310 -14.45158 -14.42590 -14.42328
 Alpha  occ. eigenvalues --  -14.41796 -14.40504 -14.38593 -10.42421 -10.39856
 Alpha  occ. eigenvalues --  -10.39759 -10.39120 -10.36359 -10.34537 -10.33732
 Alpha  occ. eigenvalues --  -10.32665 -10.32566 -10.32406 -10.31916 -10.31164
 Alpha  occ. eigenvalues --  -10.30315 -10.29991 -10.29928 -10.29811 -10.29735
 Alpha  occ. eigenvalues --  -10.29480 -10.29384 -10.29151 -10.29148 -10.28832
 Alpha  occ. eigenvalues --  -10.28328 -10.27644 -10.25475 -10.24893 -10.24397
 Alpha  occ. eigenvalues --  -10.23006 -10.22354 -10.22315 -10.22101  -1.17730
 Alpha  occ. eigenvalues --   -1.13955  -1.12631  -1.11118  -1.08568  -1.08510
 Alpha  occ. eigenvalues --   -1.08163  -1.07104  -1.06822  -1.05647  -1.05222
 Alpha  occ. eigenvalues --   -1.01756  -0.99212  -0.98358  -0.97077  -0.96888
 Alpha  occ. eigenvalues --   -0.96346  -0.95050  -0.94735  -0.92432  -0.90543
 Alpha  occ. eigenvalues --   -0.87287  -0.86119  -0.84323  -0.84293  -0.83301
 Alpha  occ. eigenvalues --   -0.82193  -0.81546  -0.80188  -0.78023  -0.76982
 Alpha  occ. eigenvalues --   -0.76007  -0.73225  -0.72998  -0.72882  -0.72707
 Alpha  occ. eigenvalues --   -0.72400  -0.71161  -0.70632  -0.70323  -0.69705
 Alpha  occ. eigenvalues --   -0.69495  -0.67303  -0.66903  -0.65930  -0.65540
 Alpha  occ. eigenvalues --   -0.64899  -0.64710  -0.64075  -0.63047  -0.62776
 Alpha  occ. eigenvalues --   -0.62369  -0.62116  -0.61422  -0.60794  -0.59619
 Alpha  occ. eigenvalues --   -0.59189  -0.58364  -0.57783  -0.57541  -0.57392
 Alpha  occ. eigenvalues --   -0.57046  -0.56721  -0.56019  -0.55675  -0.54878
 Alpha  occ. eigenvalues --   -0.54143  -0.54017  -0.53723  -0.53662  -0.53390
 Alpha  occ. eigenvalues --   -0.52855  -0.52617  -0.52545  -0.52322  -0.52096
 Alpha  occ. eigenvalues --   -0.51344  -0.51312  -0.50980  -0.50875  -0.50404
 Alpha  occ. eigenvalues --   -0.49853  -0.49195  -0.49015  -0.48831  -0.48497
 Alpha  occ. eigenvalues --   -0.48220  -0.47925  -0.47685  -0.47589  -0.47207
 Alpha  occ. eigenvalues --   -0.47004  -0.46260  -0.45561  -0.45491  -0.45435
 Alpha  occ. eigenvalues --   -0.44677  -0.44377  -0.44238  -0.44066  -0.43888
 Alpha  occ. eigenvalues --   -0.43716  -0.43618  -0.42919  -0.42852  -0.42008
 Alpha  occ. eigenvalues --   -0.41294  -0.40870  -0.40240  -0.40151  -0.39719
 Alpha  occ. eigenvalues --   -0.39360  -0.38896  -0.38752  -0.38649  -0.38533
 Alpha  occ. eigenvalues --   -0.38218  -0.37668  -0.37465  -0.36273  -0.35500
 Alpha  occ. eigenvalues --   -0.34679  -0.34008  -0.33236  -0.32661  -0.32488
 Alpha  occ. eigenvalues --   -0.31540  -0.30699  -0.30510  -0.30225  -0.29597
 Alpha  occ. eigenvalues --   -0.29218  -0.28020  -0.27150  -0.26278
 Alpha virt. eigenvalues --   -0.12115  -0.11651  -0.09226  -0.08390  -0.07832
 Alpha virt. eigenvalues --   -0.05097  -0.04598  -0.04291  -0.03024  -0.02694
 Alpha virt. eigenvalues --   -0.02636  -0.01171  -0.01129  -0.01067  -0.00816

 Mulliken charges:
               1
     1  N   -0.754967
     2  H    0.419725
     3  H    0.403206
     4  H    0.421038
     5  C   -0.109245
     6  H    0.204082
     7  C    0.667887
     8  C   -0.473507
     9  H    0.214153
    10  H    0.185466
    11  H    0.200339
    12  O   -0.535217
    13  N   -0.607071
    14  H    0.366682
    15  C   -0.061033
    16  H    0.195515
    17  C    0.647970
    18  C   -0.363276
    19  H    0.179079
    20  H    0.174623
    21  O   -0.571445
    22  C    0.084186
    23  C    0.027700
    24  H    0.179246
    25  C    0.074852
    26  C    0.325179
    27  C   -0.239379
    28  H    0.144814
    29  N   -0.682341
    30  H    0.348494
    31  C   -0.173521
    32  H    0.156430
    33  C   -0.163216
    34  H    0.156372
    35  C   -0.217772
    36  H    0.152253
    37  N   -0.632026
    38  H    0.368969
    39  C   -0.068693
    40  H    0.193762
    41  C    0.609398
    42  C   -0.027356
    43  H    0.170759
    44  H    0.131776
    45  O   -0.546741
    46  O   -0.633460
    47  H    0.423497
    48  N   -0.609755
    49  H    0.363616
    50  C   -0.056683
    51  H    0.173270
    52  C    0.619849
    53  C   -0.072467
    54  H    0.143339
    55  O   -0.553433
    56  C   -0.466309
    57  H    0.148757
    58  H    0.154800
    59  H    0.163050
    60  C   -0.444398
    61  H    0.154994
    62  H    0.149701
    63  H    0.142286
    64  N   -0.611866
    65  H    0.360083
    66  C   -0.041603
    67  H    0.180383
    68  C    0.619045
    69  C   -0.452313
    70  H    0.167324
    71  H    0.156459
    72  H    0.179710
    73  O   -0.562317
    74  N   -0.621910
    75  H    0.359319
    76  C   -0.041768
    77  H    0.165334
    78  C    0.592284
    79  C   -0.274545
    80  H    0.174884
    81  H    0.138249
    82  O   -0.644272
    83  C   -0.304206
    84  H    0.170033
    85  H    0.157196
    86  C   -0.146013
    87  H    0.149428
    88  H    0.162022
    89  N   -0.609766
    90  H    0.414847
    91  N   -0.761376
    92  H    0.362842
    93  H    0.368236
    94  N   -0.778674
    95  H    0.348904
    96  H    0.417843
    97  C    0.773144
    98  O   -0.544741
 Sum of Mulliken charges =   1.00000

 Dipole moment (field-independent basis, Debye):
    X=             -9.7318    Y=             18.1445    Z=             12.6282  Tot=             24.1537
 Quadrupole moment (field-independent basis, Debye-Ang):
   XX=             24.4139   YY=            -98.9538   ZZ=            -87.9829
   XY=           -235.2621   XZ=           -234.2533   YZ=            187.0524

 Normal termination of Gaussian 16 at Tue Jun 28 00:39:15 2022.
