 Gaussian 16, Revision C.01,
 Gaussian 16:  ES64L-G16RevC.01  3-Jul-2019

 -------------------------------------------------------------------
 # B3LYP/6-31G* guess=read geom=check nosymm integral(ultrafinegrid)
 -------------------------------------------------------------------

 ------------------------------------------------------
 Candidate Structure: Conf:966 Charge calc in gas phase
 ------------------------------------------------------
 Structure from the checkpoint file:  "conf-966.chk"
 Charge =  1 Multiplicity = 1

                          Input orientation:
 ---------------------------------------------------------------------
 Center     Atomic      Atomic             Coordinates (Angstroms)
 Number     Number       Type             X           Y           Z
 ---------------------------------------------------------------------
      1          7           0       -8.130669    3.298051    5.868800
      2          1           0       -8.784206    2.795999    6.474086
      3          1           0       -8.519507    4.223403    5.666130
      4          1           0       -7.164451    3.397047    6.341190
      5          6           0       -7.743198    2.536688    4.614125
      6          1           0       -8.195514    1.543695    4.682792
      7          6           0       -6.195400    2.415120    4.772777
      8          6           0       -8.201111    3.263191    3.351690
      9          1           0       -7.892404    2.703432    2.464643
     10          1           0       -9.291768    3.352513    3.319950
     11          1           0       -7.753109    4.260765    3.283583
     12          8           0       -5.694739    2.902568    5.805763
     13          7           0       -5.554943    1.808162    3.796423
     14          1           0       -6.022498    1.446166    2.955841
     15          6           0       -4.110194    1.620313    3.684237
     16          1           0       -3.619345    2.590119    3.827393
     17          6           0       -3.931362    1.199911    2.200528
     18          6           0       -3.537061    0.634022    4.746006
     19          1           0       -3.569248    1.161193    5.705212
     20          1           0       -2.474482    0.481957    4.518329
     21          8           0       -4.927505    0.968006    1.511935
     22          6           0       -4.243256   -0.683649    4.870171
     23          6           0       -5.247907   -0.964000    5.766105
     24          1           0       -5.671089   -0.335458    6.539102
     25          6           0       -4.016813   -1.896942    4.117619
     26          6           0       -4.935140   -2.866048    4.605126
     27          6           0       -3.104482   -2.274144    3.114198
     28          1           0       -2.364426   -1.572981    2.738437
     29          7           0       -5.685653   -2.261745    5.597034
     30          1           0       -6.327374   -2.743332    6.207964
     31          6           0       -4.076089   -4.512468    3.115444
     32          1           0       -4.080055   -5.520796    2.711584
     33          6           0       -4.981958   -4.174182    4.112186
     34          1           0       -5.692450   -4.899955    4.498821
     35          6           0       -3.143863   -3.573690    2.627210
     36          1           0       -2.438074   -3.878611    1.860277
     37          7           0       -2.664253    1.172538    1.757614
     38          1           0       -1.880982    1.176907    2.405221
     39          6           0       -2.289070    0.845907    0.392496
     40          1           0       -3.105512    0.278338   -0.063525
     41          6           0       -0.990234    0.014394    0.469546
     42          6           0       -2.038991    2.120432   -0.436774
     43          1           0       -1.745949    1.833527   -1.457160
     44          1           0       -1.194850    2.671320    0.009529
     45          8           0       -0.370729   -0.069015    1.532852
     46          8           0       -3.227936    2.889909   -0.427631
     47          1           0       -3.086152    3.657875   -1.001994
     48          7           0       -0.605743   -0.549818   -0.692747
     49          1           0       -1.089674   -0.306907   -1.555139
     50          6           0        0.746159   -1.042807   -0.957577
     51          1           0        1.374795   -0.761217   -0.106663
     52          6           0        1.174001   -0.294973   -2.244249
     53          6           0        0.780819   -2.587496   -1.136090
     54          1           0        0.207565   -2.814887   -2.046288
     55          8           0        0.309036    0.028488   -3.067862
     56          6           0        2.215629   -3.105681   -1.322483
     57          1           0        2.827460   -2.889715   -0.436342
     58          1           0        2.206142   -4.192988   -1.457234
     59          1           0        2.714955   -2.665597   -2.190265
     60          6           0        0.107524   -3.291538    0.050434
     61          1           0        0.615832   -3.052525    0.992256
     62          1           0        0.139158   -4.378502   -0.086427
     63          1           0       -0.940565   -2.993689    0.148065
     64          7           0        2.480364   -0.025497   -2.381527
     65          1           0        3.185110   -0.371728   -1.732158
     66          6           0        3.061188    0.608700   -3.558687
     67          1           0        2.616689    0.160769   -4.455118
     68          6           0        4.572560    0.277642   -3.512287
     69          6           0        2.802374    2.124950   -3.579897
     70          1           0        3.244413    2.586004   -4.468346
     71          1           0        3.238553    2.599394   -2.694130
     72          1           0        1.724888    2.310559   -3.590374
     73          8           0        5.050366   -0.312699   -2.527230
     74          7           0        5.263302    0.678728   -4.580330
     75          1           0        4.873888    1.288256   -5.319685
     76          6           0        6.712374    0.752542   -4.691792
     77          1           0        7.124828    1.196787   -3.774744
     78          6           0        6.999560    1.734216   -5.910763
     79          6           0        7.350711   -0.632690   -4.893133
     80          1           0        6.946195   -1.316257   -4.133817
     81          1           0        7.052131   -1.017177   -5.880044
     82          8           0        8.202959    1.865227   -6.222757
     83          6           0        8.880658   -0.563818   -4.813462
     84          1           0        9.196259    0.253626   -5.477135
     85          1           0        9.180173   -0.269224   -3.793805
     86          6           0        9.574240   -1.856548   -5.230458
     87          1           0       10.665718   -1.791713   -5.162027
     88          1           0        9.333302   -2.102321   -6.268054
     89          7           0        9.158563   -3.045964   -4.437064
     90          1           0        8.323410   -3.526374   -4.747618
     91          7           0       10.449557   -2.529313   -2.578905
     92          1           0       10.974054   -2.848692   -1.777949
     93          1           0       10.542950   -1.562599   -2.858457
     94          7           0        9.258231   -4.511167   -2.632242
     95          1           0        9.242418   -4.580968   -1.624430
     96          1           0        8.721164   -5.198395   -3.141663
     97          6           0        9.602543   -3.344860   -3.223400
     98          8           0        5.969796    2.250401   -6.412479
 ---------------------------------------------------------------------

 SCF Done:  E(RB3LYP) =  -2359.96022252     A.U. after    3 cycles

 Alpha  occ. eigenvalues --  -19.26553 -19.21235 -19.20595 -19.18728 -19.16294
 Alpha  occ. eigenvalues --  -19.14191 -19.06508 -19.05855 -14.59490 -14.50139
 Alpha  occ. eigenvalues --  -14.49950 -14.49634 -14.48398 -14.44888 -14.44060
 Alpha  occ. eigenvalues --  -14.42121 -14.40049 -14.36143 -10.46144 -10.42999
 Alpha  occ. eigenvalues --  -10.40846 -10.37688 -10.35784 -10.33549 -10.33413
 Alpha  occ. eigenvalues --  -10.33388 -10.31429 -10.30900 -10.30611 -10.30566
 Alpha  occ. eigenvalues --  -10.29178 -10.28629 -10.28238 -10.28225 -10.26611
 Alpha  occ. eigenvalues --  -10.25556 -10.24999 -10.24868 -10.24810 -10.24745
 Alpha  occ. eigenvalues --  -10.24314 -10.24289 -10.23745 -10.23194 -10.22769
 Alpha  occ. eigenvalues --  -10.22458 -10.22323 -10.21851 -10.21094  -1.18852
 Alpha  occ. eigenvalues --   -1.14644  -1.13350  -1.12590  -1.10478  -1.08663
 Alpha  occ. eigenvalues --   -1.08115  -1.05435  -1.05300  -1.04652  -1.03580
 Alpha  occ. eigenvalues --   -1.02980  -1.00652  -0.99764  -0.98803  -0.96454
 Alpha  occ. eigenvalues --   -0.93417  -0.92928  -0.90895  -0.89916  -0.88528
 Alpha  occ. eigenvalues --   -0.86338  -0.85809  -0.84810  -0.82805  -0.80938
 Alpha  occ. eigenvalues --   -0.80856  -0.79553  -0.79037  -0.78654  -0.76520
 Alpha  occ. eigenvalues --   -0.76019  -0.75825  -0.74002  -0.73504  -0.72498
 Alpha  occ. eigenvalues --   -0.72258  -0.71693  -0.71272  -0.69649  -0.69057
 Alpha  occ. eigenvalues --   -0.68451  -0.68028  -0.66771  -0.66088  -0.65535
 Alpha  occ. eigenvalues --   -0.64759  -0.64350  -0.63412  -0.63337  -0.62889
 Alpha  occ. eigenvalues --   -0.62704  -0.62416  -0.61731  -0.61220  -0.60284
 Alpha  occ. eigenvalues --   -0.59067  -0.58543  -0.58040  -0.57367  -0.56574
 Alpha  occ. eigenvalues --   -0.56284  -0.55918  -0.55661  -0.55580  -0.55035
 Alpha  occ. eigenvalues --   -0.53938  -0.53693  -0.53465  -0.53327  -0.52756
 Alpha  occ. eigenvalues --   -0.52662  -0.52042  -0.51631  -0.51259  -0.51028
 Alpha  occ. eigenvalues --   -0.50733  -0.50570  -0.49716  -0.49292  -0.49043
 Alpha  occ. eigenvalues --   -0.48836  -0.48681  -0.48522  -0.48057  -0.47987
 Alpha  occ. eigenvalues --   -0.47741  -0.47245  -0.46540  -0.46256  -0.45707
 Alpha  occ. eigenvalues --   -0.45243  -0.44960  -0.44538  -0.44406  -0.44007
 Alpha  occ. eigenvalues --   -0.43916  -0.43634  -0.43433  -0.43118  -0.41527
 Alpha  occ. eigenvalues --   -0.41482  -0.41372  -0.41185  -0.41046  -0.40726
 Alpha  occ. eigenvalues --   -0.39967  -0.39584  -0.39379  -0.39370  -0.39297
 Alpha  occ. eigenvalues --   -0.38892  -0.38679  -0.38499  -0.38375  -0.38028
 Alpha  occ. eigenvalues --   -0.37389  -0.37054  -0.35847  -0.35097  -0.34083
 Alpha  occ. eigenvalues --   -0.34000  -0.33786  -0.33427  -0.32707  -0.32123
 Alpha  occ. eigenvalues --   -0.30215  -0.29758  -0.28474  -0.28329  -0.27049
 Alpha  occ. eigenvalues --   -0.26871  -0.21789  -0.21404  -0.20108
 Alpha virt. eigenvalues --   -0.11989  -0.10638  -0.10528  -0.07438  -0.06414
 Alpha virt. eigenvalues --   -0.06355  -0.05817  -0.04733  -0.03950  -0.03353
 Alpha virt. eigenvalues --   -0.02390  -0.02353  -0.01911  -0.01598  -0.00893

 Mulliken charges:
               1
     1  N   -0.761425
     2  H    0.413018
     3  H    0.412397
     4  H    0.436845
     5  C   -0.106031
     6  H    0.228227
     7  C    0.658758
     8  C   -0.485336
     9  H    0.227622
    10  H    0.192819
    11  H    0.193225
    12  O   -0.556686
    13  N   -0.607052
    14  H    0.384010
    15  C   -0.045682
    16  H    0.193488
    17  C    0.655253
    18  C   -0.392175
    19  H    0.182116
    20  H    0.178483
    21  O   -0.539739
    22  C    0.075082
    23  C   -0.012238
    24  H    0.133480
    25  C    0.079938
    26  C    0.308559
    27  C   -0.218259
    28  H    0.144933
    29  N   -0.686593
    30  H    0.331779
    31  C   -0.147188
    32  H    0.136413
    33  C   -0.161937
    34  H    0.131168
    35  C   -0.151269
    36  H    0.139881
    37  N   -0.611292
    38  H    0.357939
    39  C   -0.084598
    40  H    0.205323
    41  C    0.624055
    42  C   -0.027156
    43  H    0.156841
    44  H    0.135944
    45  O   -0.546050
    46  O   -0.614012
    47  H    0.405210
    48  N   -0.601868
    49  H    0.359231
    50  C   -0.062656
    51  H    0.172217
    52  C    0.620388
    53  C   -0.073214
    54  H    0.142510
    55  O   -0.559362
    56  C   -0.467382
    57  H    0.143933
    58  H    0.147279
    59  H    0.165406
    60  C   -0.452577
    61  H    0.156323
    62  H    0.145574
    63  H    0.156215
    64  N   -0.610156
    65  H    0.355308
    66  C   -0.039193
    67  H    0.179943
    68  C    0.606305
    69  C   -0.457306
    70  H    0.185829
    71  H    0.150436
    72  H    0.167752
    73  O   -0.587893
    74  N   -0.623729
    75  H    0.366147
    76  C   -0.053979
    77  H    0.138053
    78  C    0.583300
    79  C   -0.265231
    80  H    0.122560
    81  H    0.134262
    82  O   -0.587861
    83  C   -0.297160
    84  H    0.249974
    85  H    0.110988
    86  C   -0.199111
    87  H    0.177599
    88  H    0.198359
    89  N   -0.569390
    90  H    0.366181
    91  N   -0.751942
    92  H    0.378973
    93  H    0.400155
    94  N   -0.760030
    95  H    0.377566
    96  H    0.377163
    97  C    0.811514
    98  O   -0.595493
 Sum of Mulliken charges =   1.00000

 Dipole moment (field-independent basis, Debye):
    X=            -14.6446    Y=             -7.5364    Z=             24.8729  Tot=             29.8315
 Quadrupole moment (field-independent basis, Debye-Ang):
   XX=            171.1527   YY=           -192.5464   ZZ=           -235.8292
   XY=           -241.8216   XZ=           -163.0985   YZ=            125.3256

 Normal termination of Gaussian 16 at Tue Jun 28 00:57:03 2022.
