 Gaussian 16, Revision C.01,
 Gaussian 16:  ES64L-G16RevC.01  3-Jul-2019

 ----------------------------------------------------------------------
 # B3LYP/6-31G* empiricaldispersion=gd3 guess=read geom=check nosymm in
 tegral(ultrafinegrid)
 ----------------------------------------------------------------------

 ------------------------------------------------------
 Candidate Structure: Conf:883 Charge calc in gas phase
 ------------------------------------------------------
 Structure from the checkpoint file:  "conf-883.chk"
 Charge =  1 Multiplicity = 1

                          Input orientation:
 ---------------------------------------------------------------------
 Center     Atomic      Atomic             Coordinates (Angstroms)
 Number     Number       Type             X           Y           Z
 ---------------------------------------------------------------------
      1          7           0       -0.070870   -2.746745    3.640111
      2          1           0        0.511699   -2.036417    4.088066
      3          1           0       -0.546945   -3.293093    4.355573
      4          1           0        0.542528   -3.368369    3.107656
      5          6           0       -1.041214   -2.153688    2.694016
      6          1           0       -1.566675   -1.326401    3.179422
      7          6           0       -0.281974   -1.628258    1.480069
      8          6           0       -2.059058   -3.210631    2.263563
      9          1           0       -2.509043   -3.633515    3.168206
     10          1           0       -1.524800   -4.017971    1.757570
     11          8           0        0.636660   -2.256715    0.981324
     12          6           0       -3.187405   -2.726027    1.358015
     13          1           0       -2.805547   -2.405982    0.385237
     14          1           0       -3.750603   -1.915936    1.824596
     15          6           0       -4.094772   -3.960483    1.171822
     16          8           0       -5.021855   -4.079908    1.991885
     17          8           0       -3.777975   -4.718627    0.239409
     18          7           0       -0.714961   -0.439948    0.989857
     19          1           0       -1.521220    0.001874    1.398176
     20          6           0       -0.145942    0.147051   -0.214352
     21          1           0       -0.617472    1.131154   -0.287147
     22          6           0        1.368922    0.354698   -0.047277
     23          6           0       -0.468865   -0.657390   -1.483898
     24          1           0        0.173558   -1.531266   -1.525925
     25          1           0       -1.498667   -1.017771   -1.392761
     26          8           0        2.198400   -0.029124   -0.854765
     27          6           0       -0.334531    0.179693   -2.728951
     28          6           0        0.704718   -0.021484   -3.634334
     29          1           0        1.442493   -0.789844   -3.432078
     30          6           0       -1.249582    1.197059   -2.989204
     31          1           0       -2.059215    1.366054   -2.287999
     32          6           0        0.829562    0.764580   -4.783903
     33          1           0        1.646818    0.595430   -5.476496
     34          6           0       -1.149895    1.987958   -4.135455
     35          1           0       -1.873019    2.774103   -4.325102
     36          8           0        0.057645    2.638341   -6.170427
     37          1           0       -0.835624    2.901117   -6.490525
     38          6           0       -0.100453    1.767524   -5.019053
     39          7           0        1.729881    1.015155    1.082409
     40          1           0        1.135376    1.113072    1.898002
     41          6           0        3.111392    1.185123    1.419778
     42          1           0        3.656570    0.241652    1.292988
     43          6           0        3.139113    1.584274    2.927529
     44          6           0        3.840393    2.263957    0.621519
     45          1           0        4.886725    2.250191    0.941865
     46          1           0        3.816050    1.983850   -0.431091
     47          8           0        4.240950    1.849927    3.414489
     48          6           0        3.254747    3.658754    0.814041
     49          1           0        3.328038    3.932390    1.869603
     50          1           0        2.191343    3.648901    0.564199
     51          6           0        3.964583    4.678990   -0.059308
     52          1           0        5.019071    4.741232    0.226170
     53          1           0        3.935942    4.330824   -1.096789
     54          6           0        3.346611    6.062761   -0.008595
     55          1           0        3.795041    6.703613   -0.769645
     56          1           0        2.281890    5.982106   -0.244688
     57          7           0        3.494353    6.706017    1.322473
     58          1           0        3.062261    7.629778    1.353190
     59          1           0        4.476937    6.811592    1.574428
     60          1           0        3.056062    6.142833    2.050060
     61          8           0        2.026255    1.564395    3.503767
     62          1           0        0.441772    2.114930   -6.910616
 ---------------------------------------------------------------------

 SCF Done:  E(RB3LYP) =  -1526.00291810     A.U. after    4 cycles

 Alpha  occ. eigenvalues --  -19.49871 -19.22646 -19.18174 -19.09565 -19.08493
 Alpha  occ. eigenvalues --  -19.05344 -19.05326 -14.64205 -14.58648 -14.47054
 Alpha  occ. eigenvalues --  -14.39798 -10.42557 -10.40532 -10.39798 -10.35970
 Alpha  occ. eigenvalues --  -10.35289 -10.35083 -10.34924 -10.33501 -10.33205
 Alpha  occ. eigenvalues --  -10.32887 -10.32594 -10.32232 -10.28768 -10.28082
 Alpha  occ. eigenvalues --  -10.27334 -10.26619 -10.24898 -10.24328 -10.24021
 Alpha  occ. eigenvalues --  -10.20870  -1.36813  -1.19134  -1.15902  -1.13052
 Alpha  occ. eigenvalues --   -1.10401  -1.03739  -1.03600  -1.01322  -0.99410
 Alpha  occ. eigenvalues --   -0.97152  -0.94480  -0.94025  -0.93120  -0.90422
 Alpha  occ. eigenvalues --   -0.90327  -0.89859  -0.86682  -0.86201  -0.84755
 Alpha  occ. eigenvalues --   -0.81782  -0.79935  -0.78820  -0.77431  -0.76620
 Alpha  occ. eigenvalues --   -0.75383  -0.74939  -0.73185  -0.72436  -0.72113
 Alpha  occ. eigenvalues --   -0.71067  -0.70039  -0.68069  -0.67331  -0.66674
 Alpha  occ. eigenvalues --   -0.66121  -0.64931  -0.62298  -0.61920  -0.61255
 Alpha  occ. eigenvalues --   -0.59838  -0.59515  -0.59180  -0.58047  -0.57163
 Alpha  occ. eigenvalues --   -0.56967  -0.55891  -0.54724  -0.54452  -0.52958
 Alpha  occ. eigenvalues --   -0.52158  -0.51755  -0.51242  -0.50465  -0.49679
 Alpha  occ. eigenvalues --   -0.49104  -0.48734  -0.48475  -0.48285  -0.47741
 Alpha  occ. eigenvalues --   -0.47287  -0.45822  -0.45363  -0.45072  -0.44425
 Alpha  occ. eigenvalues --   -0.43124  -0.42399  -0.41791  -0.40926  -0.40803
 Alpha  occ. eigenvalues --   -0.39673  -0.39367  -0.39142  -0.39016  -0.37617
 Alpha  occ. eigenvalues --   -0.36940  -0.36288  -0.35324  -0.34235  -0.31963
 Alpha  occ. eigenvalues --   -0.30844  -0.25101  -0.24746  -0.23103  -0.21037
 Alpha  occ. eigenvalues --   -0.20384  -0.19020
 Alpha virt. eigenvalues --   -0.18018  -0.15063  -0.14630  -0.13959  -0.10483
 Alpha virt. eigenvalues --   -0.09525  -0.07863  -0.07523  -0.07413  -0.07189
 Alpha virt. eigenvalues --   -0.05698  -0.04312  -0.02647  -0.02182  -0.01058

 Mulliken charges:
               1
     1  N   -0.714924
     2  H    0.434064
     3  H    0.423796
     4  H    0.426063
     5  C   -0.153225
     6  H    0.195502
     7  C    0.662740
     8  C   -0.287774
     9  H    0.171805
    10  H    0.188158
    11  O   -0.505778
    12  C   -0.341979
    13  H    0.123977
    14  H    0.117481
    15  C    0.539959
    16  O   -0.566212
    17  O   -0.571378
    18  N   -0.608028
    19  H    0.346765
    20  C   -0.057333
    21  H    0.151368
    22  C    0.623799
    23  C   -0.366154
    24  H    0.218869
    25  H    0.192061
    26  O   -0.536345
    27  C    0.186799
    28  C   -0.153757
    29  H    0.209168
    30  C   -0.178665
    31  H    0.173443
    32  C   -0.153168
    33  H    0.174445
    34  C   -0.151254
    35  H    0.167211
    36  O   -0.578390
    37  H    0.459385
    38  C    0.222488
    39  N   -0.608412
    40  H    0.327717
    41  C   -0.053885
    42  H    0.159928
    43  C    0.545135
    44  C   -0.259928
    45  H    0.168462
    46  H    0.137985
    47  O   -0.593354
    48  C   -0.287394
    49  H    0.154146
    50  H    0.134544
    51  C   -0.288167
    52  H    0.170596
    53  H    0.183872
    54  C   -0.224214
    55  H    0.215811
    56  H    0.213341
    57  N   -0.713709
    58  H    0.427174
    59  H    0.431409
    60  H    0.440796
    61  O   -0.629175
    62  H    0.462344
 Sum of Mulliken charges =   1.00000

 Dipole moment (field-independent basis, Debye):
    X=             13.8573    Y=             36.1303    Z=            -17.0575  Tot=             42.2892
 Quadrupole moment (field-independent basis, Debye-Ang):
   XX=           -229.0610   YY=            -28.6982   ZZ=            -29.3820
   XY=              6.7475   XZ=              1.0681   YZ=            -56.3571

 Normal termination of Gaussian 16 at Thu Jun  2 00:18:07 2022.
