 Gaussian 16, Revision C.01,
 Gaussian 16:  ES64L-G16RevC.01  3-Jul-2019

 ----------------------------------------------------------------------
 # B3LYP/6-31G* empiricaldispersion=gd3 guess=read geom=check nosymm in
 tegral(ultrafinegrid)
 ----------------------------------------------------------------------

 ------------------------------------------------------
 Candidate Structure: Conf:549 Charge calc in gas phase
 ------------------------------------------------------
 Structure from the checkpoint file:  "conf-549.chk"
 Charge =  1 Multiplicity = 1

                          Input orientation:
 ---------------------------------------------------------------------
 Center     Atomic      Atomic             Coordinates (Angstroms)
 Number     Number       Type             X           Y           Z
 ---------------------------------------------------------------------
      1          7           0        1.737406   -1.253600    2.914500
      2          1           0        2.425853   -0.535638    2.665360
      3          1           0        1.156142   -0.968239    4.622261
      4          1           0        2.061471   -2.121172    2.486088
      5          6           0        0.455695   -0.877680    2.311329
      6          1           0        0.171014    0.083385    2.756004
      7          6           0        0.568627   -0.720507    0.791982
      8          6           0       -0.640079   -1.921772    2.626774
      9          1           0       -0.489856   -2.797338    1.982079
     10          1           0       -1.614976   -1.494201    2.362678
     11          8           0        1.330864   -1.404322    0.118971
     12          6           0       -0.663190   -2.393279    4.096887
     13          1           0        0.212008   -3.022512    4.290837
     14          1           0       -1.559326   -2.994462    4.266097
     15          6           0       -0.687047   -1.237720    5.100299
     16          8           0        0.493192   -0.612077    5.278605
     17          8           0       -1.687954   -0.887226    5.681876
     18          7           0       -0.240145    0.230058    0.216073
     19          1           0       -0.862213    0.771578    0.800148
     20          6           0       -0.153975    0.526911   -1.210147
     21          1           0       -0.774841    1.414296   -1.383406
     22          6           0        1.305890    0.886159   -1.613616
     23          6           0       -0.690181   -0.649221   -2.067516
     24          1           0        0.022228   -1.470953   -1.982675
     25          1           0       -1.631896   -0.973949   -1.611136
     26          8           0        1.769868    0.543460   -2.696402
     27          6           0       -0.940795   -0.300882   -3.515636
     28          6           0       -2.090082    0.414592   -3.880910
     29          1           0       -2.803000    0.715950   -3.118681
     30          6           0       -0.035335   -0.694773   -4.516546
     31          1           0        0.870024   -1.217340   -4.235621
     32          6           0       -2.351678    0.752219   -5.213288
     33          1           0       -3.235002    1.306409   -5.509875
     34          6           0       -0.263247   -0.388754   -5.856729
     35          1           0        0.436252   -0.689652   -6.631172
     36          8           0       -1.704813    0.696147   -7.568696
     37          1           0       -1.832097   -0.085654   -8.149061
     38          6           0       -1.415528    0.326305   -6.128669
     39          7           0        1.962348    1.642062   -0.698290
     40          1           0        1.540981    1.691788    0.224971
     41          6           0        3.418786    1.648648   -0.598197
     42          1           0        3.834326    1.091125   -1.438861
     43          6           0        3.816290    0.986341    0.726628
     44          6           0        3.958604    3.105281   -0.594347
     45          1           0        3.708019    3.540068   -1.567757
     46          1           0        3.376970    3.670361    0.146982
     47          8           0        5.012616    0.526046    0.770955
     48          6           0        5.477763    3.252800   -0.313936
     49          1           0        5.921729    3.894112   -1.083646
     50          1           0        5.966467    2.279468   -0.406208
     51          6           0        5.841797    3.900948    1.041101
     52          1           0        6.933791    4.019796    1.095759
     53          1           0        5.433453    4.920165    1.061287
     54          6           0        5.354690    3.247053    2.340426
     55          1           0        5.589764    3.903381    3.184312
     56          1           0        4.277461    3.070800    2.332881
     57          7           0        5.979928    1.904239    2.611588
     58          1           0        5.720228    1.571689    3.542326
     59          1           0        7.000485    1.951907    2.569006
     60          1           0        5.576604    1.119239    1.826548
     61          8           0        3.031959    1.081458    1.695147
     62          1           0       -1.021993    1.285426   -7.957138
 ---------------------------------------------------------------------

 SCF Done:  E(RB3LYP) =  -1526.20537877     A.U. after    1 cycles

 Alpha  occ. eigenvalues --  -19.48974 -19.20402 -19.19763 -19.19479 -19.18709
 Alpha  occ. eigenvalues --  -19.18271 -19.15628 -14.49703 -14.45230 -14.42443
 Alpha  occ. eigenvalues --  -14.38911 -10.42398 -10.36689 -10.36514 -10.35824
 Alpha  occ. eigenvalues --  -10.35025 -10.35017 -10.34307 -10.33513 -10.33307
 Alpha  occ. eigenvalues --  -10.33153 -10.32716 -10.32393 -10.29638 -10.29282
 Alpha  occ. eigenvalues --  -10.29168 -10.28015 -10.26375 -10.26273 -10.26003
 Alpha  occ. eigenvalues --  -10.24640  -1.34715  -1.12444  -1.11953  -1.11525
 Alpha  occ. eigenvalues --   -1.10874  -1.05017  -1.03548  -1.02808  -1.01696
 Alpha  occ. eigenvalues --   -1.01320  -0.99079  -0.96151  -0.92385  -0.90067
 Alpha  occ. eigenvalues --   -0.88267  -0.86279  -0.84563  -0.84398  -0.83450
 Alpha  occ. eigenvalues --   -0.80466  -0.77782  -0.76922  -0.76218  -0.73702
 Alpha  occ. eigenvalues --   -0.71563  -0.70619  -0.68812  -0.66919  -0.66471
 Alpha  occ. eigenvalues --   -0.65551  -0.65170  -0.63982  -0.63851  -0.62751
 Alpha  occ. eigenvalues --   -0.62494  -0.60808  -0.60589  -0.59289  -0.58449
 Alpha  occ. eigenvalues --   -0.57881  -0.57161  -0.56531  -0.56324  -0.55794
 Alpha  occ. eigenvalues --   -0.54643  -0.53883  -0.53037  -0.52866  -0.52436
 Alpha  occ. eigenvalues --   -0.51704  -0.51129  -0.50590  -0.49828  -0.49506
 Alpha  occ. eigenvalues --   -0.49399  -0.49172  -0.48570  -0.48248  -0.47793
 Alpha  occ. eigenvalues --   -0.47562  -0.46653  -0.46518  -0.46033  -0.45502
 Alpha  occ. eigenvalues --   -0.45266  -0.45010  -0.43535  -0.43047  -0.41708
 Alpha  occ. eigenvalues --   -0.41604  -0.41274  -0.40781  -0.40638  -0.39740
 Alpha  occ. eigenvalues --   -0.39255  -0.39041  -0.35997  -0.35432  -0.34329
 Alpha  occ. eigenvalues --   -0.34029  -0.33166  -0.32717  -0.32125  -0.31767
 Alpha  occ. eigenvalues --   -0.31147  -0.29236
 Alpha virt. eigenvalues --   -0.18114  -0.15546  -0.14526  -0.09199  -0.08536
 Alpha virt. eigenvalues --   -0.06593  -0.05699  -0.04391  -0.03669  -0.02054
 Alpha virt. eigenvalues --   -0.01168   0.00220   0.00873   0.01360   0.01559

 Mulliken charges:
               1
     1  N   -0.782952
     2  H    0.368719
     3  H    0.443798
     4  H    0.324258
     5  C   -0.081771
     6  H    0.164525
     7  C    0.622741
     8  C   -0.280721
     9  H    0.159624
    10  H    0.150957
    11  O   -0.523262
    12  C   -0.359379
    13  H    0.164605
    14  H    0.177656
    15  C    0.575709
    16  O   -0.599462
    17  O   -0.455766
    18  N   -0.632697
    19  H    0.341196
    20  C   -0.051133
    21  H    0.163976
    22  C    0.627346
    23  C   -0.360859
    24  H    0.214373
    25  H    0.166414
    26  O   -0.536919
    27  C    0.199274
    28  C   -0.197929
    29  H    0.174477
    30  C   -0.144117
    31  H    0.209341
    32  C   -0.108975
    33  H    0.194004
    34  C   -0.143982
    35  H    0.178158
    36  O   -0.629568
    37  H    0.510078
    38  C    0.184819
    39  N   -0.585202
    40  H    0.341425
    41  C   -0.051488
    42  H    0.189669
    43  C    0.615068
    44  C   -0.278182
    45  H    0.159671
    46  H    0.140638
    47  O   -0.613908
    48  C   -0.285029
    49  H    0.151898
    50  H    0.179757
    51  C   -0.286183
    52  H    0.147303
    53  H    0.168331
    54  C   -0.187272
    55  H    0.179694
    56  H    0.215724
    57  N   -0.768243
    58  H    0.383939
    59  H    0.371345
    60  H    0.457238
    61  O   -0.583172
    62  H    0.510429
 Sum of Mulliken charges =   1.00000

 Dipole moment (field-independent basis, Debye):
    X=              3.6206    Y=              7.1203    Z=            -26.6629  Tot=             27.8337
 Quadrupole moment (field-independent basis, Debye-Ang):
   XX=           -101.8425   YY=           -153.1384   ZZ=              7.5332
   XY=             30.0610   XZ=             86.6628   YZ=             -3.3322

 Normal termination of Gaussian 16 at Thu Jun  2 00:08:36 2022.
