 Gaussian 16, Revision C.01,
 Gaussian 16:  ES64L-G16RevC.01  3-Jul-2019

 ----------------------------------------------------------------------
 # B3LYP/6-31G* empiricaldispersion=gd3 guess=read geom=check nosymm in
 tegral(ultrafinegrid)
 ----------------------------------------------------------------------

 ------------------------------------------------------
 Candidate Structure: Conf:123 Charge calc in gas phase
 ------------------------------------------------------
 Structure from the checkpoint file:  "conf-123.chk"
 Charge =  1 Multiplicity = 1

                          Input orientation:
 ---------------------------------------------------------------------
 Center     Atomic      Atomic             Coordinates (Angstroms)
 Number     Number       Type             X           Y           Z
 ---------------------------------------------------------------------
      1          7           0        0.382987   -1.313976    3.039882
      2          1           0        1.560922   -0.042755    2.476627
      3          1           0        0.172683   -1.495398    4.019394
      4          1           0        0.781627   -2.164816    2.639805
      5          6           0       -0.839241   -0.972764    2.294839
      6          1           0       -1.175068    0.010965    2.647174
      7          6           0       -0.462689   -0.890200    0.812904
      8          6           0       -2.013137   -1.967128    2.362320
      9          1           0       -1.663303   -2.959366    2.060936
     10          1           0       -2.736538   -1.658539    1.599213
     11          8           0        0.350165   -1.661735    0.314145
     12          6           0       -2.760984   -2.058392    3.711007
     13          1           0       -2.943185   -1.066404    4.133585
     14          1           0       -2.212513   -2.669963    4.434285
     15          6           0       -4.100188   -2.677993    3.374569
     16          8           0       -3.987745   -3.992720    3.120006
     17          8           0       -5.124889   -2.040338    3.208571
     18          7           0       -1.094167    0.081736    0.091289
     19          1           0       -1.903309    0.524968    0.504221
     20          6           0       -0.965317    0.126041   -1.367344
     21          1           0       -1.486168    1.038417   -1.679515
     22          6           0        0.533178    0.282065   -1.740786
     23          6           0       -1.581200   -1.105214   -2.099616
     24          1           0       -1.879420   -0.778764   -3.102564
     25          1           0       -0.791318   -1.844287   -2.240412
     26          8           0        0.997521   -0.191490   -2.767213
     27          6           0       -2.739378   -1.740988   -1.358419
     28          6           0       -2.686718   -3.097555   -1.011549
     29          1           0       -1.821089   -3.686123   -1.303032
     30          6           0       -3.863690   -1.009081   -0.948082
     31          1           0       -3.951469    0.042945   -1.214924
     32          6           0       -3.701581   -3.705017   -0.273311
     33          1           0       -3.640391   -4.751389    0.007865
     34          6           0       -4.878854   -1.595057   -0.190914
     35          1           0       -5.732806   -1.007918    0.136029
     36          8           0       -5.745233   -3.568559    0.934078
     37          1           0       -6.150585   -2.897736    1.516071
     38          6           0       -4.791659   -2.948297    0.158436
     39          7           0        1.295423    0.983479   -0.831162
     40          1           0        0.797331    1.244879    0.012490
     41          6           0        2.637192    0.476716   -0.529663
     42          1           0        2.764425   -0.459159   -1.083510
     43          6           0        2.760309    0.065226    0.948104
     44          6           0        3.759728    1.433206   -0.956763
     45          1           0        3.636795    2.399643   -0.450232
     46          1           0        4.714944    1.004866   -0.629157
     47          8           0        3.641021   -0.669559    1.330013
     48          6           0        3.745428    1.623626   -2.477092
     49          1           0        2.778975    2.044924   -2.777224
     50          1           0        3.811160    0.643300   -2.965239
     51          6           0        4.889530    2.524120   -2.967669
     52          1           0        4.810064    3.517688   -2.504089
     53          1           0        5.854855    2.095831   -2.662125
     54          6           0        4.840096    2.653237   -4.482748
     55          1           0        4.948950    1.689365   -4.985965
     56          1           0        3.923325    3.134378   -4.832079
     57          7           0        5.995792    3.525926   -4.992048
     58          1           0        5.987822    3.629470   -6.014261
     59          1           0        6.901803    3.121402   -4.724826
     60          1           0        5.952068    4.466377   -4.580603
     61          8           0        1.797785    0.590684    1.726894
     62          1           0       -4.788048   -4.264618    2.619567
 ---------------------------------------------------------------------

 SCF Done:  E(RB3LYP) =  -1526.27691474     A.U. after    2 cycles

 Alpha  occ. eigenvalues --  -19.25360 -19.24326 -19.24001 -19.20504 -19.20287
 Alpha  occ. eigenvalues --  -19.19918 -19.19627 -14.65366 -14.44819 -14.42317
 Alpha  occ. eigenvalues --  -14.41957 -10.42108 -10.38728 -10.38313 -10.37124
 Alpha  occ. eigenvalues --  -10.36552 -10.34482 -10.31926 -10.31258 -10.31177
 Alpha  occ. eigenvalues --  -10.31083 -10.30165 -10.28462 -10.27246 -10.26951
 Alpha  occ. eigenvalues --  -10.25957 -10.25867 -10.25748 -10.25582 -10.25309
 Alpha  occ. eigenvalues --  -10.24948  -1.19191  -1.16708  -1.15696  -1.12552
 Alpha  occ. eigenvalues --   -1.11707  -1.11113  -1.07720  -1.07336  -1.01605
 Alpha  occ. eigenvalues --   -0.99429  -0.98189  -0.95573  -0.91856  -0.88531
 Alpha  occ. eigenvalues --   -0.87301  -0.85431  -0.82995  -0.81232  -0.81077
 Alpha  occ. eigenvalues --   -0.78791  -0.78185  -0.77803  -0.75198  -0.73014
 Alpha  occ. eigenvalues --   -0.70865  -0.69958  -0.68652  -0.67657  -0.67047
 Alpha  occ. eigenvalues --   -0.66511  -0.66215  -0.65429  -0.63799  -0.63019
 Alpha  occ. eigenvalues --   -0.61813  -0.60615  -0.60074  -0.58581  -0.57096
 Alpha  occ. eigenvalues --   -0.56776  -0.56514  -0.55937  -0.54853  -0.54109
 Alpha  occ. eigenvalues --   -0.53938  -0.53738  -0.53392  -0.52856  -0.52698
 Alpha  occ. eigenvalues --   -0.52243  -0.51748  -0.50967  -0.50408  -0.49914
 Alpha  occ. eigenvalues --   -0.49624  -0.48883  -0.48553  -0.48337  -0.47674
 Alpha  occ. eigenvalues --   -0.47461  -0.47181  -0.46896  -0.45946  -0.45644
 Alpha  occ. eigenvalues --   -0.44894  -0.44330  -0.44055  -0.43554  -0.43253
 Alpha  occ. eigenvalues --   -0.42727  -0.42665  -0.41916  -0.41458  -0.40024
 Alpha  occ. eigenvalues --   -0.38749  -0.38000  -0.37569  -0.35704  -0.35576
 Alpha  occ. eigenvalues --   -0.34725  -0.34215  -0.33258  -0.32616  -0.31846
 Alpha  occ. eigenvalues --   -0.31583  -0.28629
 Alpha virt. eigenvalues --   -0.15773  -0.09069  -0.09034  -0.07885  -0.06880
 Alpha virt. eigenvalues --   -0.06696  -0.06641  -0.05906  -0.05140  -0.04460
 Alpha virt. eigenvalues --   -0.02995  -0.01641  -0.01080  -0.00497   0.00253

 Mulliken charges:
               1
     1  N   -0.768296
     2  H    0.454900
     3  H    0.331817
     4  H    0.348550
     5  C   -0.065155
     6  H    0.151711
     7  C    0.642963
     8  C   -0.306188
     9  H    0.185011
    10  H    0.180214
    11  O   -0.534827
    12  C   -0.326589
    13  H    0.170456
    14  H    0.171948
    15  C    0.576762
    16  O   -0.568307
    17  O   -0.486614
    18  N   -0.626206
    19  H    0.340181
    20  C   -0.050819
    21  H    0.169241
    22  C    0.606457
    23  C   -0.356319
    24  H    0.166570
    25  H    0.193406
    26  O   -0.517683
    27  C    0.173459
    28  C   -0.196450
    29  H    0.148473
    30  C   -0.215992
    31  H    0.121635
    32  C   -0.155685
    33  H    0.150075
    34  C   -0.175779
    35  H    0.145795
    36  O   -0.680201
    37  H    0.430926
    38  C    0.345180
    39  N   -0.605136
    40  H    0.358759
    41  C   -0.059352
    42  H    0.205382
    43  C    0.599296
    44  C   -0.267781
    45  H    0.148510
    46  H    0.167712
    47  O   -0.458740
    48  C   -0.270248
    49  H    0.177484
    50  H    0.173787
    51  C   -0.293886
    52  H    0.166347
    53  H    0.168050
    54  C   -0.206588
    55  H    0.234308
    56  H    0.231662
    57  N   -0.732223
    58  H    0.431703
    59  H    0.427986
    60  H    0.427033
    61  O   -0.631073
    62  H    0.432387
 Sum of Mulliken charges =   1.00000

 Dipole moment (field-independent basis, Debye):
    X=             19.5637    Y=             15.3672    Z=            -16.8925  Tot=             30.0707
 Quadrupole moment (field-independent basis, Debye-Ang):
   XX=            -33.0281   YY=           -120.9645   ZZ=            -68.2956
   XY=             90.9722   XZ=           -129.1461   YZ=            -82.3689

 Normal termination of Gaussian 16 at Thu Jun  2 00:02:35 2022.
