 Gaussian 16, Revision C.01,
 Gaussian 16:  ES64L-G16RevC.01  3-Jul-2019

 ----------------------------------------------------------------------
 # B3LYP/6-31G* empiricaldispersion=gd3 guess=read geom=check nosymm in
 tegral(ultrafinegrid)
 ----------------------------------------------------------------------

 ------------------------------------------------------
 Candidate Structure: Conf:222 Charge calc in gas phase
 ------------------------------------------------------
 Structure from the checkpoint file:  "conf-222.chk"
 Charge =  1 Multiplicity = 1

                          Input orientation:
 ---------------------------------------------------------------------
 Center     Atomic      Atomic             Coordinates (Angstroms)
 Number     Number       Type             X           Y           Z
 ---------------------------------------------------------------------
      1          7           0       -0.090724   -0.448059    2.621904
      2          1           0        0.876579    0.888115    2.876830
      3          1           0       -0.775745   -0.700595    3.332744
      4          1           0        0.599235   -1.199974    2.570919
      5          6           0       -0.744099   -0.301616    1.301138
      6          1           0       -1.400952    0.568742    1.350254
      7          6           0        0.381726   -0.026486    0.289008
      8          6           0       -1.571497   -1.549307    0.921213
      9          1           0       -2.391356   -1.641711    1.644483
     10          1           0       -0.930580   -2.429921    1.051257
     11          8           0        1.451620   -0.632973    0.351576
     12          6           0       -2.131991   -1.603401   -0.510392
     13          1           0       -2.686744   -2.533552   -0.655265
     14          1           0       -1.306747   -1.614532   -1.231710
     15          6           0       -3.003180   -0.436648   -0.922489
     16          8           0       -2.745894    0.740768   -0.723991
     17          8           0       -4.096502   -0.831913   -1.591063
     18          7           0        0.149818    0.971260   -0.608203
     19          1           0       -0.822042    1.240023   -0.759377
     20          6           0        1.143625    1.325951   -1.627188
     21          1           0        0.853480    2.321232   -1.984835
     22          6           0        2.516987    1.486728   -0.951880
     23          6           0        1.201690    0.353229   -2.820820
     24          1           0        1.914460    0.760231   -3.548482
     25          1           0        1.622452   -0.592261   -2.467322
     26          8           0        3.544418    1.013493   -1.468513
     27          6           0       -0.161536    0.125513   -3.440194
     28          6           0       -0.636832   -1.171337   -3.660301
     29          1           0        0.003006   -2.021705   -3.434622
     30          6           0       -1.009968    1.194596   -3.770675
     31          1           0       -0.669116    2.220240   -3.647815
     32          6           0       -1.925686   -1.404782   -4.143433
     33          1           0       -2.280122   -2.423654   -4.283255
     34          6           0       -2.299214    0.982644   -4.244131
     35          1           0       -2.957885    1.812561   -4.478734
     36          8           0       -4.074261   -0.467700   -4.790674
     37          1           0       -4.547285   -0.033599   -1.929473
     38          6           0       -2.772340   -0.324564   -4.407161
     39          7           0        2.515537    2.210533    0.192392
     40          1           0        1.592265    2.440087    0.551256
     41          6           0        3.470901    1.910037    1.258690
     42          1           0        4.133548    1.142564    0.868680
     43          6           0        2.738411    1.196169    2.407206
     44          6           0        4.306065    3.113889    1.759636
     45          1           0        4.288526    3.900356    0.996123
     46          1           0        3.831833    3.545660    2.646669
     47          8           0        3.271508    0.324110    3.057199
     48          6           0        5.754405    2.685987    2.081399
     49          1           0        5.750827    1.635197    2.401760
     50          1           0        6.133083    3.242145    2.944927
     51          6           0        6.759243    2.920885    0.929875
     52          1           0        6.957666    3.997521    0.854348
     53          1           0        7.722513    2.454859    1.175578
     54          6           0        6.337456    2.506941   -0.480928
     55          1           0        5.406611    2.988812   -0.787143
     56          1           0        7.110934    2.773982   -1.203252
     57          7           0        6.076255    1.011008   -0.639541
     58          1           0        6.664659    0.589293   -1.362690
     59          1           0        5.047352    0.887816   -0.927571
     60          1           0        6.244297    0.497574    0.230670
     61          8           0        1.492272    1.648335    2.556594
     62          1           0       -4.274056   -1.407500   -4.926332
 ---------------------------------------------------------------------

 SCF Done:  E(RB3LYP) =  -1526.31750090     A.U. after    1 cycles

 Alpha  occ. eigenvalues --  -19.29090 -19.25990 -19.25922 -19.25645 -19.23893
 Alpha  occ. eigenvalues --  -19.22463 -19.22272 -14.57711 -14.47319 -14.46336
 Alpha  occ. eigenvalues --  -14.44399 -10.42078 -10.41820 -10.40568 -10.39206
 Alpha  occ. eigenvalues --  -10.38169 -10.34743 -10.34528 -10.33256 -10.32998
 Alpha  occ. eigenvalues --  -10.32438 -10.30555 -10.30280 -10.29671 -10.29558
 Alpha  occ. eigenvalues --  -10.28442 -10.27899 -10.27680 -10.27649 -10.27372
 Alpha  occ. eigenvalues --  -10.26901  -1.20174  -1.17868  -1.16631  -1.14231
 Alpha  occ. eigenvalues --   -1.14029  -1.12301  -1.11105  -1.09470  -1.04952
 Alpha  occ. eigenvalues --   -1.02608  -1.00459  -0.93990  -0.93295  -0.89878
 Alpha  occ. eigenvalues --   -0.88972  -0.87789  -0.83830  -0.83300  -0.82150
 Alpha  occ. eigenvalues --   -0.80673  -0.77426  -0.75901  -0.74185  -0.72222
 Alpha  occ. eigenvalues --   -0.71923  -0.71104  -0.70300  -0.69979  -0.69229
 Alpha  occ. eigenvalues --   -0.68577  -0.68102  -0.66645  -0.63937  -0.62835
 Alpha  occ. eigenvalues --   -0.62636  -0.62276  -0.61475  -0.59951  -0.59334
 Alpha  occ. eigenvalues --   -0.58758  -0.58321  -0.57898  -0.57064  -0.56878
 Alpha  occ. eigenvalues --   -0.56236  -0.55400  -0.55170  -0.54963  -0.54068
 Alpha  occ. eigenvalues --   -0.53954  -0.53113  -0.52702  -0.52277  -0.52107
 Alpha  occ. eigenvalues --   -0.51524  -0.51093  -0.50846  -0.50603  -0.50295
 Alpha  occ. eigenvalues --   -0.49507  -0.48738  -0.48365  -0.48263  -0.47889
 Alpha  occ. eigenvalues --   -0.47584  -0.46726  -0.46176  -0.45727  -0.45442
 Alpha  occ. eigenvalues --   -0.45358  -0.45056  -0.44479  -0.43887  -0.42076
 Alpha  occ. eigenvalues --   -0.41614  -0.40928  -0.40289  -0.39455  -0.39057
 Alpha  occ. eigenvalues --   -0.37638  -0.37435  -0.36059  -0.35803  -0.34528
 Alpha  occ. eigenvalues --   -0.33613  -0.30191
 Alpha virt. eigenvalues --   -0.11211  -0.10138  -0.09636  -0.09170  -0.08544
 Alpha virt. eigenvalues --   -0.07392  -0.07037  -0.05770  -0.02607  -0.01996
 Alpha virt. eigenvalues --   -0.01395  -0.01328  -0.00384   0.00342   0.00694

 Mulliken charges:
               1
     1  N   -0.782340
     2  H    0.466885
     3  H    0.339806
     4  H    0.354808
     5  C   -0.060161
     6  H    0.187769
     7  C    0.613027
     8  C   -0.279956
     9  H    0.165246
    10  H    0.167925
    11  O   -0.543324
    12  C   -0.385392
    13  H    0.191149
    14  H    0.204069
    15  C    0.622925
    16  O   -0.494158
    17  O   -0.549446
    18  N   -0.639833
    19  H    0.395344
    20  C   -0.067486
    21  H    0.186379
    22  C    0.656883
    23  C   -0.345715
    24  H    0.171268
    25  H    0.179587
    26  O   -0.586361
    27  C    0.173894
    28  C   -0.225143
    29  H    0.141526
    30  C   -0.196755
    31  H    0.130794
    32  C   -0.185334
    33  H    0.138976
    34  C   -0.157674
    35  H    0.157947
    36  O   -0.642560
    37  H    0.428826
    38  C    0.346534
    39  N   -0.578997
    40  H    0.370366
    41  C   -0.055453
    42  H    0.136558
    43  C    0.612345
    44  C   -0.290155
    45  H    0.162295
    46  H    0.189173
    47  O   -0.464092
    48  C   -0.294586
    49  H    0.166116
    50  H    0.184816
    51  C   -0.306655
    52  H    0.193073
    53  H    0.172284
    54  C   -0.184342
    55  H    0.214497
    56  H    0.209926
    57  N   -0.784289
    58  H    0.408994
    59  H    0.458552
    60  H    0.407822
    61  O   -0.626943
    62  H    0.418770
 Sum of Mulliken charges =   1.00000

 Dipole moment (field-independent basis, Debye):
    X=             13.8054    Y=              3.8492    Z=             -3.3497  Tot=             14.7182
 Quadrupole moment (field-independent basis, Debye-Ang):
   XX=            -35.4849   YY=           -151.5153   ZZ=           -164.6791
   XY=             45.7597   XZ=             -4.0378   YZ=              4.4886

 Normal termination of Gaussian 16 at Thu Jun  2 00:02:28 2022.
