 Gaussian 16, Revision C.01,
 Gaussian 16:  ES64L-G16RevC.01  3-Jul-2019

 ----------------------------------------------------------------------
 # B3LYP/6-31G* empiricaldispersion=gd3 guess=read geom=check nosymm in
 tegral(ultrafinegrid)
 ----------------------------------------------------------------------

 ------------------------------------------------------
 Candidate Structure: Conf:234 Charge calc in gas phase
 ------------------------------------------------------
 Structure from the checkpoint file:  "conf-234.chk"
 Charge =  1 Multiplicity = 1

                          Input orientation:
 ---------------------------------------------------------------------
 Center     Atomic      Atomic             Coordinates (Angstroms)
 Number     Number       Type             X           Y           Z
 ---------------------------------------------------------------------
      1          7           0       -2.787936   -2.122298    2.805361
      2          1           0       -3.231170   -1.548675    2.048665
      3          1           0       -2.921540   -3.136917    2.685611
      4          1           0       -3.188418   -1.827420    3.701285
      5          6           0       -1.321131   -1.791485    2.683945
      6          1           0       -0.946036   -2.496168    1.937519
      7          6           0       -1.283237   -0.442125    1.937166
      8          6           0       -0.562870   -1.995491    3.993951
      9          1           0       -0.867435   -1.256843    4.744500
     10          1           0        0.499236   -1.828034    3.788905
     11          8           0       -2.312649   -0.081807    1.355261
     12          6           0       -0.730461   -3.427666    4.572048
     13          1           0       -1.732904   -3.566154    4.991123
     14          1           0       -0.004649   -3.577089    5.373747
     15          6           0       -0.482687   -4.466340    3.494345
     16          8           0       -1.621039   -4.744483    2.797700
     17          8           0        0.596121   -4.931326    3.208091
     18          7           0       -0.086984    0.139622    1.837099
     19          1           0        0.729634   -0.257753    2.304140
     20          6           0        0.323273    0.905550    0.663453
     21          1           0       -0.223489    1.851569    0.622043
     22          6           0        1.828001    1.168843    0.886672
     23          6           0        0.079364    0.116614   -0.681534
     24          1           0       -0.883873    0.432794   -1.088755
     25          1           0        0.847480    0.433668   -1.396613
     26          8           0        2.469911    0.459981    1.671942
     27          6           0        0.072287   -1.391369   -0.513355
     28          6           0        1.158885   -2.079419    0.048737
     29          1           0        2.068725   -1.543383    0.299399
     30          6           0       -1.085577   -2.125448   -0.809172
     31          1           0       -1.940297   -1.617998   -1.247688
     32          6           0        1.071698   -3.434955    0.367829
     33          1           0        1.906437   -3.938656    0.847216
     34          6           0       -1.184086   -3.486674   -0.515598
     35          1           0       -2.083770   -4.049534   -0.745831
     36          8           0       -0.298058   -5.446131    0.488050
     37          1           0       -1.356594   -5.264359    1.992748
     38          6           0       -0.111130   -4.132944    0.102742
     39          7           0        2.358653    2.156000    0.156440
     40          1           0        1.798267    2.711507   -0.484027
     41          6           0        3.779807    2.486198    0.164492
     42          1           0        4.142688    2.484748    1.194594
     43          6           0        3.934169    3.876882   -0.435082
     44          6           0        4.603203    1.461132   -0.679626
     45          1           0        4.714842    0.566576   -0.058959
     46          1           0        3.985987    1.175934   -1.541209
     47          8           0        5.033312    4.471716   -0.014159
     48          6           0        5.979210    1.957604   -1.178387
     49          1           0        6.635983    1.088852   -1.297853
     50          1           0        6.438161    2.583891   -0.407865
     51          6           0        5.913802    2.720206   -2.533445
     52          1           0        6.147699    2.014349   -3.338588
     53          1           0        4.889312    3.057139   -2.733697
     54          6           0        6.851680    3.936289   -2.674629
     55          1           0        7.754038    3.795693   -2.069701
     56          1           0        7.176599    4.034372   -3.719067
     57          7           0        6.200805    5.194608   -2.217302
     58          1           0        6.864752    5.967805   -2.241413
     59          1           0        5.461706    4.989473   -0.813147
     60          1           0        5.441162    5.440122   -2.853280
     61          8           0        3.167125    4.293917   -1.291997
     62          1           0        0.492228   -5.752155    0.969813
 ---------------------------------------------------------------------

 SCF Done:  E(RB3LYP) =  -1526.30755111     A.U. after    3 cycles

 Alpha  occ. eigenvalues --  -19.32463 -19.30237 -19.27157 -19.26336 -19.23287
 Alpha  occ. eigenvalues --  -19.22487 -19.20680 -14.59639 -14.48661 -14.46147
 Alpha  occ. eigenvalues --  -14.42700 -10.45322 -10.43284 -10.40083 -10.39489
 Alpha  occ. eigenvalues --  -10.38567 -10.36430 -10.35479 -10.35316 -10.34125
 Alpha  occ. eigenvalues --  -10.31651 -10.30489 -10.30406 -10.30206 -10.30158
 Alpha  occ. eigenvalues --  -10.30027 -10.29931 -10.29614 -10.27095 -10.26080
 Alpha  occ. eigenvalues --  -10.25857  -1.23220  -1.18806  -1.17645  -1.15866
 Alpha  occ. eigenvalues --   -1.14612  -1.14367  -1.13665  -1.07459  -1.05900
 Alpha  occ. eigenvalues --   -1.02612  -0.98063  -0.96632  -0.95639  -0.90508
 Alpha  occ. eigenvalues --   -0.88034  -0.87737  -0.85948  -0.84806  -0.82489
 Alpha  occ. eigenvalues --   -0.80069  -0.78099  -0.77207  -0.74584  -0.73621
 Alpha  occ. eigenvalues --   -0.73279  -0.72107  -0.70991  -0.70561  -0.69793
 Alpha  occ. eigenvalues --   -0.68670  -0.67465  -0.66371  -0.65565  -0.65333
 Alpha  occ. eigenvalues --   -0.64388  -0.62010  -0.61181  -0.60873  -0.60577
 Alpha  occ. eigenvalues --   -0.58773  -0.58673  -0.58446  -0.58113  -0.57691
 Alpha  occ. eigenvalues --   -0.57028  -0.56379  -0.55912  -0.55006  -0.54541
 Alpha  occ. eigenvalues --   -0.54271  -0.53826  -0.53489  -0.53255  -0.53070
 Alpha  occ. eigenvalues --   -0.52731  -0.51963  -0.51496  -0.50845  -0.50724
 Alpha  occ. eigenvalues --   -0.50533  -0.50220  -0.49859  -0.48949  -0.48681
 Alpha  occ. eigenvalues --   -0.47975  -0.47689  -0.46359  -0.45544  -0.45134
 Alpha  occ. eigenvalues --   -0.44286  -0.44205  -0.44010  -0.43665  -0.41491
 Alpha  occ. eigenvalues --   -0.40936  -0.40818  -0.40662  -0.40477  -0.39187
 Alpha  occ. eigenvalues --   -0.37150  -0.36586  -0.36285  -0.35510  -0.34887
 Alpha  occ. eigenvalues --   -0.33828  -0.33660
 Alpha virt. eigenvalues --   -0.13504  -0.12436  -0.11364  -0.10590  -0.09913
 Alpha virt. eigenvalues --   -0.08225  -0.06339  -0.04418  -0.03398  -0.02806
 Alpha virt. eigenvalues --   -0.01628  -0.01228  -0.00634  -0.00435  -0.00275

 Mulliken charges:
               1
     1  N   -0.754806
     2  H    0.427653
     3  H    0.430080
     4  H    0.406497
     5  C   -0.144409
     6  H    0.248324
     7  C    0.659379
     8  C   -0.316687
     9  H    0.191794
    10  H    0.214965
    11  O   -0.542922
    12  C   -0.353727
    13  H    0.172211
    14  H    0.224192
    15  C    0.588838
    16  O   -0.622913
    17  O   -0.444979
    18  N   -0.613607
    19  H    0.376392
    20  C   -0.037418
    21  H    0.199739
    22  C    0.631193
    23  C   -0.379995
    24  H    0.186944
    25  H    0.185966
    26  O   -0.552372
    27  C    0.137697
    28  C   -0.208142
    29  H    0.181742
    30  C   -0.193109
    31  H    0.159676
    32  C   -0.191898
    33  H    0.167888
    34  C   -0.186819
    35  H    0.160244
    36  O   -0.667170
    37  H    0.456210
    38  C    0.327281
    39  N   -0.619000
    40  H    0.357193
    41  C   -0.008450
    42  H    0.195266
    43  C    0.578827
    44  C   -0.286273
    45  H    0.170032
    46  H    0.144742
    47  O   -0.598554
    48  C   -0.285152
    49  H    0.151258
    50  H    0.174487
    51  C   -0.294964
    52  H    0.155710
    53  H    0.161809
    54  C   -0.144515
    55  H    0.169097
    56  H    0.155910
    57  N   -0.782857
    58  H    0.340463
    59  H    0.462726
    60  H    0.345001
    61  O   -0.506081
    62  H    0.439396
 Sum of Mulliken charges =   1.00000

 Dipole moment (field-independent basis, Debye):
    X=              0.2714    Y=             -5.1064    Z=              6.8415  Tot=              8.5414
 Quadrupole moment (field-independent basis, Debye-Ang):
   XX=           -104.9541   YY=           -130.4264   ZZ=           -128.9174
   XY=             51.7822   XZ=            -50.7688   YZ=            -43.5974

 Normal termination of Gaussian 16 at Thu Jun  2 00:02:45 2022.
