 Gaussian 16, Revision C.01,
 Gaussian 16:  ES64L-G16RevC.01  3-Jul-2019

 ----------------------------------------------------------------------
 # B3LYP/6-31G* empiricaldispersion=gd3 guess=read geom=check nosymm in
 tegral(ultrafinegrid)
 ----------------------------------------------------------------------

 ------------------------------------------------------
 Candidate Structure: Conf:772 Charge calc in gas phase
 ------------------------------------------------------
 Structure from the checkpoint file:  "conf-772.chk"
 Charge =  1 Multiplicity = 1

                          Input orientation:
 ---------------------------------------------------------------------
 Center     Atomic      Atomic             Coordinates (Angstroms)
 Number     Number       Type             X           Y           Z
 ---------------------------------------------------------------------
      1          7           0       -0.265817   -3.911568    1.707177
      2          1           0        0.516357   -4.206655    2.299797
      3          1           0       -0.937847   -4.680652    1.636362
      4          1           0        0.120666   -3.643691    0.755039
      5          6           0       -0.890310   -2.607769    2.154753
      6          1           0       -0.716547   -2.482782    3.226105
      7          6           0       -0.166901   -1.562374    1.261710
      8          6           0       -2.371171   -2.552978    1.769706
      9          1           0       -2.440217   -2.702780    0.687006
     10          1           0       -2.703868   -1.523503    1.935661
     11          8           0        0.340246   -1.979101    0.214559
     12          6           0       -3.354549   -3.503958    2.478264
     13          1           0       -3.372161   -3.331558    3.558156
     14          1           0       -3.144195   -4.559904    2.277544
     15          6           0       -4.695832   -3.160201    1.844284
     16          8           0       -5.277210   -2.132762    2.476020
     17          8           0       -5.092938   -3.657659    0.810241
     18          7           0       -0.304891   -0.290481    1.624169
     19          1           0       -0.670599   -0.085699    2.543216
     20          6           0        0.107823    0.832936    0.782768
     21          1           0       -0.200988    1.729392    1.329453
     22          6           0        1.660500    0.845099    0.695446
     23          6           0       -0.610562    0.817444   -0.599161
     24          1           0       -0.542848    1.828970   -1.018143
     25          1           0       -0.064229    0.154018   -1.273572
     26          8           0        2.335750    0.081896    1.376652
     27          6           0       -2.059439    0.378656   -0.511627
     28          6           0       -2.510075   -0.734726   -1.228662
     29          1           0       -1.823908   -1.257395   -1.889894
     30          6           0       -2.977058    1.032408    0.326811
     31          1           0       -2.669222    1.917130    0.880109
     32          6           0       -3.819299   -1.206371   -1.098286
     33          1           0       -4.145798   -2.081350   -1.654332
     34          6           0       -4.281416    0.569503    0.479442
     35          1           0       -4.982852    1.071063    1.138553
     36          8           0       -5.978441   -1.017390    0.005831
     37          1           0       -5.955570   -1.754595    1.870399
     38          6           0       -4.700319   -0.565826   -0.223974
     39          7           0        2.166657    1.770483   -0.142332
     40          1           0        1.580878    2.363774   -0.720069
     41          6           0        3.596744    1.962245   -0.341173
     42          1           0        4.109584    1.921238    0.622667
     43          6           0        3.797842    3.313719   -1.004620
     44          6           0        4.176727    0.868287   -1.290158
     45          1           0        4.017587   -0.083912   -0.774766
     46          1           0        3.540510    0.851673   -2.184781
     47          8           0        5.016863    3.790451   -0.807341
     48          6           0        5.668090    1.032140   -1.686121
     49          1           0        6.189202    0.089765   -1.481360
     50          1           0        6.144953    1.783363   -1.051999
     51          6           0        5.922827    1.356882   -3.175495
     52          1           0        7.009191    1.362409   -3.346638
     53          1           0        5.533749    0.525418   -3.779131
     54          6           0        5.329233    2.636904   -3.785875
     55          1           0        5.472549    2.582362   -4.874363
     56          1           0        4.251083    2.692365   -3.608630
     57          7           0        5.916769    3.893440   -3.247710
     58          1           0        5.599368    4.683122   -3.809103
     59          1           0        6.933724    3.869097   -3.329169
     60          1           0        5.387459    4.107779   -1.722653
     61          8           0        2.949740    3.795139   -1.741713
     62          1           0       -6.082856   -1.899040   -0.395178
 ---------------------------------------------------------------------

 SCF Done:  E(RB3LYP) =  -1526.28498440     A.U. after    3 cycles

 Alpha  occ. eigenvalues --  -19.29911 -19.28383 -19.27628 -19.25085 -19.22690
 Alpha  occ. eigenvalues --  -19.20482 -19.20266 -14.61307 -14.50837 -14.44694
 Alpha  occ. eigenvalues --  -14.42314 -10.44373 -10.43569 -10.41920 -10.38179
 Alpha  occ. eigenvalues --  -10.38033 -10.35576 -10.35198 -10.34725 -10.33568
 Alpha  occ. eigenvalues --  -10.30888 -10.30293 -10.29750 -10.29517 -10.29339
 Alpha  occ. eigenvalues --  -10.29134 -10.29063 -10.28987 -10.26385 -10.26128
 Alpha  occ. eigenvalues --  -10.25305  -1.21347  -1.20275  -1.16023  -1.15315
 Alpha  occ. eigenvalues --   -1.15115  -1.12591  -1.12504  -1.07383  -1.06963
 Alpha  occ. eigenvalues --   -1.01257  -0.97673  -0.95990  -0.95765  -0.90639
 Alpha  occ. eigenvalues --   -0.88220  -0.87221  -0.85091  -0.84312  -0.82151
 Alpha  occ. eigenvalues --   -0.79115  -0.77549  -0.76961  -0.75108  -0.74071
 Alpha  occ. eigenvalues --   -0.73070  -0.72232  -0.71763  -0.71028  -0.69142
 Alpha  occ. eigenvalues --   -0.68837  -0.66643  -0.66149  -0.64865  -0.64374
 Alpha  occ. eigenvalues --   -0.64201  -0.62243  -0.61054  -0.60117  -0.59634
 Alpha  occ. eigenvalues --   -0.58735  -0.58330  -0.57846  -0.57674  -0.57060
 Alpha  occ. eigenvalues --   -0.56412  -0.56002  -0.55527  -0.54196  -0.53914
 Alpha  occ. eigenvalues --   -0.53713  -0.53104  -0.52785  -0.52650  -0.52264
 Alpha  occ. eigenvalues --   -0.51993  -0.51662  -0.51220  -0.50514  -0.50110
 Alpha  occ. eigenvalues --   -0.49538  -0.49364  -0.49081  -0.48824  -0.47826
 Alpha  occ. eigenvalues --   -0.46913  -0.46292  -0.45596  -0.45266  -0.44167
 Alpha  occ. eigenvalues --   -0.43951  -0.43017  -0.42857  -0.42586  -0.41797
 Alpha  occ. eigenvalues --   -0.41045  -0.40724  -0.40267  -0.40137  -0.38675
 Alpha  occ. eigenvalues --   -0.36436  -0.35482  -0.34923  -0.34550  -0.34104
 Alpha  occ. eigenvalues --   -0.33072  -0.32302
 Alpha virt. eigenvalues --   -0.13728  -0.12051  -0.10791  -0.10138  -0.09594
 Alpha virt. eigenvalues --   -0.07682  -0.07023  -0.06414  -0.05646  -0.03066
 Alpha virt. eigenvalues --   -0.02418  -0.01938  -0.00653  -0.00435  -0.00258

 Mulliken charges:
               1
     1  N   -0.749063
     2  H    0.422919
     3  H    0.417121
     4  H    0.432719
     5  C   -0.132189
     6  H    0.210235
     7  C    0.688892
     8  C   -0.323769
     9  H    0.202857
    10  H    0.217237
    11  O   -0.536891
    12  C   -0.341883
    13  H    0.193006
    14  H    0.165119
    15  C    0.589800
    16  O   -0.565062
    17  O   -0.469318
    18  N   -0.571585
    19  H    0.356843
    20  C   -0.084458
    21  H    0.187567
    22  C    0.655624
    23  C   -0.384169
    24  H    0.181036
    25  H    0.190739
    26  O   -0.534930
    27  C    0.175634
    28  C   -0.210461
    29  H    0.151035
    30  C   -0.204953
    31  H    0.139479
    32  C   -0.189967
    33  H    0.155330
    34  C   -0.161900
    35  H    0.162856
    36  O   -0.667798
    37  H    0.444310
    38  C    0.346693
    39  N   -0.624701
    40  H    0.353662
    41  C   -0.018999
    42  H    0.190014
    43  C    0.587058
    44  C   -0.283852
    45  H    0.174089
    46  H    0.142797
    47  O   -0.601666
    48  C   -0.280843
    49  H    0.147598
    50  H    0.177290
    51  C   -0.278124
    52  H    0.142614
    53  H    0.149719
    54  C   -0.156981
    55  H    0.151483
    56  H    0.178189
    57  N   -0.777010
    58  H    0.343038
    59  H    0.331974
    60  H    0.459860
    61  O   -0.500166
    62  H    0.434300
 Sum of Mulliken charges =   1.00000

 Dipole moment (field-independent basis, Debye):
    X=             -0.0857    Y=             -9.4834    Z=              3.8723  Tot=             10.2439
 Quadrupole moment (field-independent basis, Debye-Ang):
   XX=           -125.9085   YY=           -119.5577   ZZ=           -139.6511
   XY=             24.9861   XZ=            -39.4897   YZ=            -37.7194

 Normal termination of Gaussian 16 at Thu Jun  2 00:08:58 2022.
