 Gaussian 16, Revision C.01,
 Gaussian 16:  ES64L-G16RevC.01  3-Jul-2019

 ----------------------------------------------------------------------
 # B3LYP/6-31G* empiricaldispersion=gd3 guess=read geom=check nosymm in
 tegral(ultrafinegrid)
 ----------------------------------------------------------------------

 ------------------------------------------------------
 Candidate Structure: Conf:879 Charge calc in gas phase
 ------------------------------------------------------
 Structure from the checkpoint file:  "conf-879.chk"
 Charge =  1 Multiplicity = 1

                          Input orientation:
 ---------------------------------------------------------------------
 Center     Atomic      Atomic             Coordinates (Angstroms)
 Number     Number       Type             X           Y           Z
 ---------------------------------------------------------------------
      1          7           0        0.834247   -0.954108    2.013105
      2          1           0        1.411577   -0.649701    1.203293
      3          1           0        1.246967   -0.491087    2.880068
      4          1           0        0.843282   -1.976831    2.039028
      5          6           0       -0.563027   -0.419109    1.888709
      6          1           0       -0.430207    0.663035    1.807202
      7          6           0       -1.111979   -0.909181    0.541092
      8          6           0       -1.426384   -0.728770    3.119067
      9          1           0       -1.679736   -1.795088    3.140424
     10          1           0       -2.368204   -0.185253    2.984389
     11          8           0       -0.541269   -1.824840   -0.041974
     12          6           0       -0.779439   -0.307604    4.465747
     13          1           0       -0.115391   -1.100492    4.824582
     14          1           0       -1.566951   -0.161197    5.207857
     15          6           0        0.040926    0.979877    4.320442
     16          8           0        1.253952    0.811829    3.894252
     17          8           0       -0.491237    2.084938    4.542219
     18          7           0       -2.138243   -0.171849    0.020067
     19          1           0       -2.490878    0.540656    0.651547
     20          6           0       -2.108687    0.334391   -1.378729
     21          1           0       -3.046634    0.875145   -1.508355
     22          6           0       -0.998716    1.419365   -1.475581
     23          6           0       -1.998540   -0.764189   -2.506731
     24          1           0       -2.164575   -1.742070   -2.053089
     25          1           0       -2.820886   -0.581699   -3.204994
     26          8           0       -1.218060    2.535136   -1.913706
     27          6           0       -0.677510   -0.718278   -3.249558
     28          6           0       -0.423104    0.338453   -4.139179
     29          1           0       -1.229752    1.010060   -4.419522
     30          6           0        0.376190   -1.586732   -2.939401
     31          1           0        0.201668   -2.425939   -2.276236
     32          6           0        0.860671    0.594358   -4.612479
     33          1           0        1.062692    1.431152   -5.273462
     34          6           0        1.672705   -1.337815   -3.398595
     35          1           0        2.490953   -1.990770   -3.103497
     36          8           0        3.190261    0.197328   -4.529709
     37          1           0        3.822477   -0.520988   -4.361397
     38          6           0        1.919753   -0.215732   -4.193978
     39          7           0        0.225709    1.019053   -0.976265
     40          1           0        0.369827    0.016082   -0.999942
     41          6           0        1.443590    1.758117   -1.295756
     42          1           0        1.436251    2.020404   -2.361056
     43          6           0        2.611417    0.819399   -0.984760
     44          6           0        1.574348    3.071608   -0.485294
     45          1           0        2.370451    3.674302   -0.940179
     46          1           0        0.637686    3.613147   -0.650891
     47          8           0        3.699937    0.898802   -1.751523
     48          6           0        1.855462    2.919832    1.018633
     49          1           0        2.894185    2.596766    1.169916
     50          1           0        1.230416    2.131401    1.451675
     51          6           0        1.606195    4.251028    1.750174
     52          1           0        1.985112    5.079716    1.138225
     53          1           0        0.527306    4.422884    1.857685
     54          6           0        2.290881    4.394069    3.107973
     55          1           0        3.373101    4.261117    3.015005
     56          1           0        2.103168    5.385235    3.529477
     57          7           0        1.814157    3.390174    4.113419
     58          1           0        2.240895    3.541670    5.031463
     59          1           0        1.962254    2.371362    3.861287
     60          1           0        0.772454    3.336184    4.260859
     61          8           0        2.603569    0.065544   -0.025568
     62          1           0        3.512333    1.296434   -2.625158
 ---------------------------------------------------------------------

 SCF Done:  E(RB3LYP) =  -1526.30954592     A.U. after    1 cycles

 Alpha  occ. eigenvalues --  -19.31441 -19.28496 -19.26742 -19.25877 -19.23383
 Alpha  occ. eigenvalues --  -19.22947 -19.21923 -14.54656 -14.53805 -14.48774
 Alpha  occ. eigenvalues --  -14.46937 -10.44842 -10.42739 -10.40088 -10.39970
 Alpha  occ. eigenvalues --  -10.38178 -10.36540 -10.35711 -10.35422 -10.34926
 Alpha  occ. eigenvalues --  -10.32986 -10.31526 -10.30595 -10.30574 -10.30160
 Alpha  occ. eigenvalues --  -10.29784 -10.29021 -10.28957 -10.28666 -10.28649
 Alpha  occ. eigenvalues --  -10.28404  -1.22636  -1.18002  -1.16092  -1.15639
 Alpha  occ. eigenvalues --   -1.15187  -1.14294  -1.10190  -1.09155  -1.06220
 Alpha  occ. eigenvalues --   -1.05811  -1.03834  -0.95447  -0.92977  -0.92458
 Alpha  occ. eigenvalues --   -0.89732  -0.88032  -0.84994  -0.84612  -0.83355
 Alpha  occ. eigenvalues --   -0.81920  -0.76879  -0.76536  -0.75266  -0.74171
 Alpha  occ. eigenvalues --   -0.72308  -0.72014  -0.71051  -0.70028  -0.69255
 Alpha  occ. eigenvalues --   -0.68629  -0.68287  -0.67585  -0.66132  -0.65490
 Alpha  occ. eigenvalues --   -0.64279  -0.64010  -0.63622  -0.61582  -0.61254
 Alpha  occ. eigenvalues --   -0.60356  -0.59523  -0.58901  -0.58428  -0.57579
 Alpha  occ. eigenvalues --   -0.57449  -0.56789  -0.56498  -0.55904  -0.55195
 Alpha  occ. eigenvalues --   -0.54773  -0.54447  -0.54066  -0.53584  -0.53167
 Alpha  occ. eigenvalues --   -0.52819  -0.52367  -0.52221  -0.51787  -0.51322
 Alpha  occ. eigenvalues --   -0.50961  -0.50311  -0.49694  -0.49354  -0.48785
 Alpha  occ. eigenvalues --   -0.48555  -0.48063  -0.47303  -0.46937  -0.46696
 Alpha  occ. eigenvalues --   -0.46361  -0.45738  -0.45308  -0.44625  -0.43880
 Alpha  occ. eigenvalues --   -0.43563  -0.42293  -0.40706  -0.40397  -0.38784
 Alpha  occ. eigenvalues --   -0.38157  -0.37919  -0.37557  -0.35913  -0.35278
 Alpha  occ. eigenvalues --   -0.34911  -0.31973
 Alpha virt. eigenvalues --   -0.14229  -0.12396  -0.10359  -0.09438  -0.08296
 Alpha virt. eigenvalues --   -0.07677  -0.06671  -0.05802  -0.04791  -0.04163
 Alpha virt. eigenvalues --   -0.02441  -0.01394  -0.00702  -0.00117   0.00182

 Mulliken charges:
               1
     1  N   -0.784478
     2  H    0.443670
     3  H    0.433287
     4  H    0.393821
     5  C   -0.135337
     6  H    0.218105
     7  C    0.600477
     8  C   -0.284204
     9  H    0.184558
    10  H    0.184477
    11  O   -0.505176
    12  C   -0.348677
    13  H    0.168474
    14  H    0.198106
    15  C    0.600244
    16  O   -0.655554
    17  O   -0.553308
    18  N   -0.570029
    19  H    0.343572
    20  C   -0.083196
    21  H    0.198594
    22  C    0.590210
    23  C   -0.351410
    24  H    0.195891
    25  H    0.183070
    26  O   -0.492400
    27  C    0.113938
    28  C   -0.174880
    29  H    0.161882
    30  C   -0.206951
    31  H    0.174566
    32  C   -0.163629
    33  H    0.166903
    34  C   -0.190886
    35  H    0.149657
    36  O   -0.652788
    37  H    0.426714
    38  C    0.314120
    39  N   -0.650953
    40  H    0.373572
    41  C   -0.032992
    42  H    0.179507
    43  C    0.610686
    44  C   -0.288009
    45  H    0.160649
    46  H    0.202696
    47  O   -0.566190
    48  C   -0.294768
    49  H    0.156584
    50  H    0.154548
    51  C   -0.284642
    52  H    0.180507
    53  H    0.173397
    54  C   -0.178097
    55  H    0.195360
    56  H    0.201020
    57  N   -0.770158
    58  H    0.390084
    59  H    0.427932
    60  H    0.412928
    61  O   -0.489726
    62  H    0.444634
 Sum of Mulliken charges =   1.00000

 Dipole moment (field-independent basis, Debye):
    X=              5.5293    Y=              5.8614    Z=              6.1265  Tot=             10.1224
 Quadrupole moment (field-independent basis, Debye-Ang):
   XX=           -151.5724   YY=           -139.7468   ZZ=           -129.7058
   XY=             23.4057   XZ=              6.5286   YZ=             21.9123

 Normal termination of Gaussian 16 at Thu Jun  2 00:17:39 2022.
