 Gaussian 16, Revision C.01,
 Gaussian 16:  ES64L-G16RevC.01  3-Jul-2019

 ----------------------------------------------------------------------
 # B3LYP/6-31G* empiricaldispersion=gd3 guess=read geom=check nosymm in
 tegral(ultrafinegrid)
 ----------------------------------------------------------------------

 ------------------------------------------------------
 Candidate Structure: Conf:472 Charge calc in gas phase
 ------------------------------------------------------
 Structure from the checkpoint file:  "conf-472.chk"
 Charge =  1 Multiplicity = 1

                          Input orientation:
 ---------------------------------------------------------------------
 Center     Atomic      Atomic             Coordinates (Angstroms)
 Number     Number       Type             X           Y           Z
 ---------------------------------------------------------------------
      1          7           0        0.609001   -1.050652    2.715590
      2          1           0        1.785096    0.149700    2.103089
      3          1           0        0.422467   -1.209779    3.703927
      4          1           0        0.961583   -1.921774    2.315725
      5          6           0       -0.626115   -0.679080    2.002699
      6          1           0       -0.927957    0.312653    2.362420
      7          6           0       -0.277791   -0.609206    0.513433
      8          6           0       -1.817567   -1.648194    2.100816
      9          1           0       -1.496781   -2.645637    1.784522
     10          1           0       -2.555324   -1.322049    1.358965
     11          8           0        0.528679   -1.386931    0.012835
     12          6           0       -2.531363   -1.734429    3.467556
     13          1           0       -2.700148   -0.741174    3.892744
     14          1           0       -1.967854   -2.347433    4.178106
     15          6           0       -3.880010   -2.351328    3.161903
     16          8           0       -4.904361   -1.710685    3.010745
     17          8           0       -3.776141   -3.668448    2.914792
     18          7           0       -0.916470    0.355949   -0.206999
     19          1           0       -1.724168    0.800454    0.207937
     20          6           0       -0.798712    0.383413   -1.668459
     21          1           0       -1.300324    1.304627   -1.985237
     22          6           0        0.703966    0.509466   -2.040667
     23          6           0       -1.441705   -0.842858   -2.382840
     24          1           0       -1.765071   -0.514980   -3.377506
     25          1           0       -0.659886   -1.586117   -2.545220
     26          8           0        1.185932   -0.051148   -3.008253
     27          6           0       -2.585477   -1.470451   -1.612555
     28          6           0       -2.523207   -2.820448   -1.242317
     29          1           0       -1.660525   -3.411491   -1.537474
     30          6           0       -3.706417   -0.735012   -1.198865
     31          1           0       -3.802134    0.311267   -1.484688
     32          6           0       -3.525674   -3.418171   -0.479289
     33          1           0       -3.458089   -4.459819   -0.182328
     34          6           0       -4.709214   -1.310919   -0.417599
     35          1           0       -5.561500   -0.720983   -0.091068
     36          8           0       -5.554853   -3.269115    0.750516
     37          1           0       -5.970498   -2.588708    1.312869
     38          6           0       -4.612696   -2.657638   -0.046793
     39          7           0        1.442785    1.308653   -1.184881
     40          1           0        0.938433    1.607074   -0.357779
     41          6           0        2.813014    0.911063   -0.888481
     42          1           0        3.065608    0.101028   -1.578512
     43          6           0        2.929731    0.312703    0.525693
     44          6           0        3.823958    2.056222   -1.095739
     45          1           0        3.727664    2.392240   -2.134837
     46          1           0        3.566834    2.908624   -0.454560
     47          8           0        3.786801   -0.499081    0.814492
     48          6           0        5.261296    1.598932   -0.810529
     49          1           0        5.398666    0.626022   -1.307187
     50          1           0        5.376890    1.409061    0.264225
     51          6           0        6.330356    2.592275   -1.283408
     52          1           0        6.342082    2.661327   -2.379351
     53          1           0        6.106503    3.600766   -0.915051
     54          6           0        7.723155    2.246833   -0.764297
     55          1           0        8.514193    2.859086   -1.203109
     56          1           0        7.780913    2.308170    0.325430
     57          7           0        8.071747    0.792314   -1.103493
     58          1           0        9.009334    0.532021   -0.776501
     59          1           0        8.034233    0.629640   -2.117359
     60          1           0        7.393121    0.151865   -0.670189
     61          8           0        2.030568    0.817371    1.378844
     62          1           0       -4.584258   -3.938994    2.425378
 ---------------------------------------------------------------------

 SCF Done:  E(RB3LYP) =  -1526.28022119     A.U. after    2 cycles

 Alpha  occ. eigenvalues --  -19.25541 -19.25447 -19.24205 -19.21478 -19.20689
 Alpha  occ. eigenvalues --  -19.20574 -19.19332 -14.64709 -14.45045 -14.42851
 Alpha  occ. eigenvalues --  -14.42681 -10.42130 -10.39637 -10.38936 -10.37416
 Alpha  occ. eigenvalues --  -10.36424 -10.34618 -10.32123 -10.31928 -10.31812
 Alpha  occ. eigenvalues --  -10.31773 -10.31274 -10.29752 -10.27598 -10.27356
 Alpha  occ. eigenvalues --  -10.25967 -10.25878 -10.25649 -10.25558 -10.25357
 Alpha  occ. eigenvalues --  -10.25032  -1.18673  -1.16970  -1.16889  -1.12846
 Alpha  occ. eigenvalues --   -1.11875  -1.11038  -1.08581  -1.07925  -1.01810
 Alpha  occ. eigenvalues --   -0.99794  -0.98907  -0.95805  -0.91895  -0.89595
 Alpha  occ. eigenvalues --   -0.87723  -0.85554  -0.83481  -0.81310  -0.81280
 Alpha  occ. eigenvalues --   -0.78855  -0.77842  -0.77144  -0.75805  -0.73100
 Alpha  occ. eigenvalues --   -0.72274  -0.70589  -0.68784  -0.68227  -0.67371
 Alpha  occ. eigenvalues --   -0.66755  -0.66541  -0.65606  -0.64093  -0.62328
 Alpha  occ. eigenvalues --   -0.62140  -0.60736  -0.60494  -0.58851  -0.58152
 Alpha  occ. eigenvalues --   -0.57571  -0.57120  -0.56320  -0.55474  -0.55064
 Alpha  occ. eigenvalues --   -0.54424  -0.54145  -0.53831  -0.53507  -0.52992
 Alpha  occ. eigenvalues --   -0.52764  -0.51870  -0.51036  -0.50795  -0.50496
 Alpha  occ. eigenvalues --   -0.49929  -0.49193  -0.48718  -0.48647  -0.48156
 Alpha  occ. eigenvalues --   -0.48015  -0.47636  -0.47332  -0.47067  -0.45949
 Alpha  occ. eigenvalues --   -0.45622  -0.45027  -0.44685  -0.44118  -0.43571
 Alpha  occ. eigenvalues --   -0.43262  -0.43003  -0.42223  -0.41538  -0.40061
 Alpha  occ. eigenvalues --   -0.38905  -0.38705  -0.38191  -0.36672  -0.36036
 Alpha  occ. eigenvalues --   -0.35320  -0.34483  -0.33601  -0.32496  -0.32272
 Alpha  occ. eigenvalues --   -0.31664  -0.28692
 Alpha virt. eigenvalues --   -0.14972  -0.08510  -0.08433  -0.07959  -0.07107
 Alpha virt. eigenvalues --   -0.06803  -0.06468  -0.05928  -0.05201  -0.04884
 Alpha virt. eigenvalues --   -0.03177  -0.01926  -0.01327  -0.00994  -0.00152

 Mulliken charges:
               1
     1  N   -0.771689
     2  H    0.454824
     3  H    0.332079
     4  H    0.348189
     5  C   -0.067340
     6  H    0.153785
     7  C    0.644664
     8  C   -0.306126
     9  H    0.184939
    10  H    0.181780
    11  O   -0.535234
    12  C   -0.326477
    13  H    0.170414
    14  H    0.169268
    15  C    0.576889
    16  O   -0.484200
    17  O   -0.570123
    18  N   -0.626563
    19  H    0.340919
    20  C   -0.054340
    21  H    0.174661
    22  C    0.611806
    23  C   -0.359849
    24  H    0.171198
    25  H    0.196212
    26  O   -0.497885
    27  C    0.172216
    28  C   -0.196446
    29  H    0.148207
    30  C   -0.216814
    31  H    0.125235
    32  C   -0.156138
    33  H    0.149045
    34  C   -0.176596
    35  H    0.146307
    36  O   -0.679415
    37  H    0.430737
    38  C    0.345390
    39  N   -0.598370
    40  H    0.349611
    41  C   -0.052936
    42  H    0.200553
    43  C    0.610340
    44  C   -0.271057
    45  H    0.173549
    46  H    0.162802
    47  O   -0.492628
    48  C   -0.310983
    49  H    0.135322
    50  H    0.174425
    51  C   -0.289891
    52  H    0.178314
    53  H    0.206574
    54  C   -0.208871
    55  H    0.227798
    56  H    0.230719
    57  N   -0.734448
    58  H    0.430893
    59  H    0.426967
    60  H    0.439912
    61  O   -0.625511
    62  H    0.433386
 Sum of Mulliken charges =   1.00000

 Dipole moment (field-independent basis, Debye):
    X=             28.4299    Y=              6.2360    Z=             -0.6461  Tot=             29.1130
 Quadrupole moment (field-independent basis, Debye-Ang):
   XX=             93.2406   YY=           -163.8281   ZZ=           -169.4910
   XY=             39.9791   XZ=            -37.0331   YZ=            -13.3289

 Normal termination of Gaussian 16 at Thu Jun  2 00:08:52 2022.
