 Gaussian 16, Revision C.01,
 Gaussian 16:  ES64L-G16RevC.01  3-Jul-2019

 ----------------------------------------------------------------------
 # B3LYP/6-31G* empiricaldispersion=gd3 guess=read geom=check nosymm in
 tegral(ultrafinegrid)
 ----------------------------------------------------------------------

 ------------------------------------------------------
 Candidate Structure: Conf:578 Charge calc in gas phase
 ------------------------------------------------------
 Structure from the checkpoint file:  "conf-578.chk"
 Charge =  1 Multiplicity = 1

                          Input orientation:
 ---------------------------------------------------------------------
 Center     Atomic      Atomic             Coordinates (Angstroms)
 Number     Number       Type             X           Y           Z
 ---------------------------------------------------------------------
      1          7           0        1.463308   -1.435739    2.855189
      2          1           0        2.119235   -0.667642    2.667126
      3          1           0        0.805663   -1.269879    4.540496
      4          1           0        1.853614   -2.263996    2.404795
      5          6           0        0.185147   -1.107964    2.217055
      6          1           0       -0.173779   -0.187588    2.692765
      7          6           0        0.334545   -0.886695    0.709221
      8          6           0       -0.854736   -2.230547    2.440251
      9          1           0       -0.630286   -3.056148    1.752961
     10          1           0       -1.845379   -1.846579    2.167525
     11          8           0        1.059439   -1.590091    0.014335
     12          6           0       -0.892741   -2.788003    3.879273
     13          1           0        0.016659   -3.368713    4.067653
     14          1           0       -1.751131   -3.455796    3.982143
     15          6           0       -1.025421   -1.700353    4.947829
     16          8           0        0.098304   -1.002517    5.195405
     17          8           0       -2.063938   -1.463145    5.522441
     18          7           0       -0.419757    0.124213    0.163905
     19          1           0       -0.968867    0.712340    0.775041
     20          6           0       -0.314578    0.464767   -1.250493
     21          1           0       -0.888440    1.388632   -1.392528
     22          6           0        1.161430    0.755123   -1.650421
     23          6           0       -0.915723   -0.652981   -2.143014
     24          1           0       -0.226939   -1.498502   -2.123116
     25          1           0       -1.851110   -0.971066   -1.669881
     26          8           0        1.608470    0.403958   -2.740449
     27          6           0       -1.205909   -0.223759   -3.560910
     28          6           0       -0.331430   -0.557313   -4.610409
     29          1           0        0.582378   -1.091816   -4.385677
     30          6           0       -2.365542    0.511005   -3.849237
     31          1           0       -3.053330    0.767541   -3.048517
     32          6           0       -0.602496   -0.176427   -5.923558
     33          1           0        0.070704   -0.433387   -6.736285
     34          6           0       -2.669651    0.922820   -5.151074
     35          1           0       -3.561868    1.491440   -5.387717
     36          8           0       -2.101079    0.996082   -7.526684
     37          1           0       -2.256135    0.245576   -8.140428
     38          6           0       -1.763279    0.549839   -6.118097
     39          7           0        1.856179    1.450450   -0.720978
     40          1           0        1.453771    1.492515    0.215504
     41          6           0        3.304954    1.355490   -0.608154
     42          1           0        3.654155    0.588263   -1.305657
     43          6           0        3.607064    0.811495    0.864686
     44          6           0        4.023960    2.702556   -0.965179
     45          1           0        4.117861    2.780519   -2.054208
     46          1           0        3.424774    3.551098   -0.617460
     47          8           0        4.750903    0.302119    1.102818
     48          6           0        5.354309    2.599764   -0.231512
     49          1           0        5.642689    1.567203   -0.420696
     50          1           0        5.066782    2.653435    0.823575
     51          6           0        6.666074    3.371132   -0.314027
     52          1           0        7.215164    3.169854   -1.241728
     53          1           0        6.565984    4.458441   -0.219230
     54          6           0        7.459203    2.872305    0.921619
     55          1           0        8.537683    3.031141    0.842438
     56          1           0        7.096746    3.370015    1.824392
     57          7           0        7.251213    1.374458    1.196259
     58          1           0        7.709753    1.113083    2.073842
     59          1           0        7.675989    0.804895    0.458049
     60          1           0        6.210902    1.031808    1.251435
     61          8           0        2.660926    0.915860    1.673527
     62          1           0       -1.426691    1.598511   -7.909103
 ---------------------------------------------------------------------

 SCF Done:  E(RB3LYP) =  -1526.15663610     A.U. after    1 cycles

 Alpha  occ. eigenvalues --  -19.48686 -19.19119 -19.18477 -19.18444 -19.15791
 Alpha  occ. eigenvalues --  -19.15615 -19.14420 -14.54785 -14.43999 -14.40893
 Alpha  occ. eigenvalues --  -14.37345 -10.42027 -10.35907 -10.35514 -10.35250
 Alpha  occ. eigenvalues --  -10.34670 -10.34626 -10.33958 -10.33108 -10.32804
 Alpha  occ. eigenvalues --  -10.32703 -10.32486 -10.32239 -10.29641 -10.28359
 Alpha  occ. eigenvalues --  -10.28327 -10.28277 -10.26418 -10.26054 -10.25054
 Alpha  occ. eigenvalues --  -10.23473  -1.34426  -1.10937  -1.10291  -1.09780
 Alpha  occ. eigenvalues --   -1.09333  -1.08494  -1.02295  -1.01019  -1.00600
 Alpha  occ. eigenvalues --   -1.00095  -0.97606  -0.94644  -0.91860  -0.90249
 Alpha  occ. eigenvalues --   -0.89665  -0.85545  -0.84466  -0.84291  -0.83167
 Alpha  occ. eigenvalues --   -0.80046  -0.77818  -0.76289  -0.75373  -0.73596
 Alpha  occ. eigenvalues --   -0.71319  -0.70160  -0.68689  -0.68055  -0.67179
 Alpha  occ. eigenvalues --   -0.65600  -0.65217  -0.65154  -0.63511  -0.61699
 Alpha  occ. eigenvalues --   -0.61479  -0.59726  -0.59643  -0.59336  -0.58371
 Alpha  occ. eigenvalues --   -0.57701  -0.57371  -0.56782  -0.56489  -0.54839
 Alpha  occ. eigenvalues --   -0.54346  -0.53536  -0.52926  -0.52062  -0.51695
 Alpha  occ. eigenvalues --   -0.51364  -0.50293  -0.49983  -0.49239  -0.49114
 Alpha  occ. eigenvalues --   -0.48762  -0.48229  -0.47646  -0.47439  -0.47368
 Alpha  occ. eigenvalues --   -0.46825  -0.46194  -0.45541  -0.45087  -0.44911
 Alpha  occ. eigenvalues --   -0.44433  -0.44206  -0.43382  -0.42004  -0.41827
 Alpha  occ. eigenvalues --   -0.41516  -0.40327  -0.39666  -0.39538  -0.39311
 Alpha  occ. eigenvalues --   -0.38616  -0.37801  -0.34906  -0.33367  -0.32912
 Alpha  occ. eigenvalues --   -0.31997  -0.31627  -0.31217  -0.30483  -0.29639
 Alpha  occ. eigenvalues --   -0.28868  -0.28037
 Alpha virt. eigenvalues --   -0.17877  -0.15149  -0.14123  -0.08948  -0.08241
 Alpha virt. eigenvalues --   -0.07036  -0.05407  -0.04533  -0.02105  -0.01247
 Alpha virt. eigenvalues --   -0.00826   0.00000   0.00019   0.00712   0.01364

 Mulliken charges:
               1
     1  N   -0.785431
     2  H    0.378259
     3  H    0.446509
     4  H    0.320735
     5  C   -0.076942
     6  H    0.161199
     7  C    0.629064
     8  C   -0.281192
     9  H    0.158660
    10  H    0.149606
    11  O   -0.530173
    12  C   -0.359084
    13  H    0.162437
    14  H    0.173200
    15  C    0.575773
    16  O   -0.597768
    17  O   -0.460629
    18  N   -0.630464
    19  H    0.340584
    20  C   -0.049730
    21  H    0.160451
    22  C    0.621841
    23  C   -0.359267
    24  H    0.213878
    25  H    0.166147
    26  O   -0.546883
    27  C    0.193816
    28  C   -0.145677
    29  H    0.211000
    30  C   -0.196817
    31  H    0.175863
    32  C   -0.145195
    33  H    0.175212
    34  C   -0.109532
    35  H    0.193066
    36  O   -0.629569
    37  H    0.509478
    38  C    0.183876
    39  N   -0.594422
    40  H    0.351179
    41  C   -0.063191
    42  H    0.177667
    43  C    0.608538
    44  C   -0.265105
    45  H    0.150125
    46  H    0.150592
    47  O   -0.627825
    48  C   -0.306204
    49  H    0.154048
    50  H    0.158008
    51  C   -0.275285
    52  H    0.160897
    53  H    0.178091
    54  C   -0.187759
    55  H    0.195150
    56  H    0.214027
    57  N   -0.776264
    58  H    0.400836
    59  H    0.396949
    60  H    0.459051
    61  O   -0.564706
    62  H    0.509302
 Sum of Mulliken charges =   1.00000

 Dipole moment (field-independent basis, Debye):
    X=              9.8775    Y=              8.3714    Z=            -30.4665  Tot=             33.1037
 Quadrupole moment (field-independent basis, Debye-Ang):
   XX=            -16.7652   YY=           -157.3353   ZZ=            -12.1447
   XY=             29.9196   XZ=             83.1032   YZ=            -15.0833

 Normal termination of Gaussian 16 at Thu Jun  2 00:08:35 2022.
