 Gaussian 16, Revision C.01,
 Gaussian 16:  ES64L-G16RevC.01  3-Jul-2019

 ----------------------------------------------------------------------
 # B3LYP/6-31G* empiricaldispersion=gd3 guess=read geom=check nosymm in
 tegral(ultrafinegrid)
 ----------------------------------------------------------------------

 ------------------------------------------------------
 Candidate Structure: Conf:962 Charge calc in gas phase
 ------------------------------------------------------
 Structure from the checkpoint file:  "conf-962.chk"
 Charge =  1 Multiplicity = 1

                          Input orientation:
 ---------------------------------------------------------------------
 Center     Atomic      Atomic             Coordinates (Angstroms)
 Number     Number       Type             X           Y           Z
 ---------------------------------------------------------------------
      1          7           0       -3.843299    0.533475   -5.340058
      2          1           0       -4.013904    1.092575   -6.179789
      3          1           0       -2.814686    0.329676   -5.272230
      4          1           0       -4.399081   -0.337437   -5.391139
      5          6           0       -4.144775    1.271313   -4.057617
      6          1           0       -4.817482    2.099874   -4.286863
      7          6           0       -2.756246    1.707931   -3.547401
      8          6           0       -4.774089    0.290304   -3.022843
      9          1           0       -3.967631   -0.312421   -2.595380
     10          1           0       -5.193056    0.903752   -2.218707
     11          8           0       -1.761723    1.175156   -4.068117
     12          6           0       -5.813823   -0.613040   -3.644355
     13          6           0       -7.090808   -0.135601   -3.975240
     14          1           0       -7.370393    0.885148   -3.721854
     15          6           0       -5.467660   -1.937903   -3.963259
     16          1           0       -4.489612   -2.319574   -3.672356
     17          6           0       -8.011767   -0.970596   -4.606103
     18          1           0       -9.003296   -0.598028   -4.845822
     19          6           0       -6.394025   -2.769991   -4.601641
     20          1           0       -6.125035   -3.796486   -4.832555
     21          6           0       -7.662816   -2.287618   -4.923746
     22          1           0       -8.383323   -2.935922   -5.413266
     23          7           0       -2.711723    2.476510   -2.461678
     24          1           0       -3.533183    2.992138   -2.169056
     25          6           0       -1.468918    2.722849   -1.708033
     26          1           0       -0.672846    2.893914   -2.440995
     27          6           0       -1.076465    1.519535   -0.807149
     28          6           0       -1.653318    3.968759   -0.839038
     29          1           0       -0.675534    4.249221   -0.433305
     30          1           0       -2.305480    3.728461    0.014308
     31          8           0       -0.577054    1.705415    0.295570
     32          8           0       -2.223046    4.968229   -1.674942
     33          1           0       -2.269707    5.795496   -1.171715
     34          7           0       -1.367093    0.294544   -1.314296
     35          1           0       -1.489219    0.181229   -2.313963
     36          6           0       -1.111842   -0.949431   -0.597995
     37          1           0       -1.166039   -0.741289    0.474069
     38          6           0        0.287889   -1.455286   -0.991005
     39          6           0       -2.185913   -1.965014   -1.016620
     40          1           0       -3.164112   -1.631188   -0.658331
     41          1           0       -1.966297   -2.943627   -0.571522
     42          8           0        0.427060   -2.274291   -1.911486
     43          8           0       -2.269135   -2.049306   -2.440591
     44          1           0       -1.383643   -2.380413   -2.705147
     45          7           0        1.310441   -0.898980   -0.322140
     46          1           0        1.156442   -0.165909    0.369683
     47          6           0        2.699016   -1.171670   -0.646088
     48          1           0        2.848358   -2.252170   -0.729010
     49          6           0        3.541979   -0.581753    0.502441
     50          6           0        3.095341   -0.534694   -2.006082
     51          1           0        2.424014   -0.947857   -2.765480
     52          1           0        2.978949    0.551076   -1.967617
     53          8           0        3.068831    0.276702    1.244021
     54          6           0        4.519114   -0.918284   -2.351463
     55          8           0        4.937040   -2.057988   -2.274228
     56          8           0        5.279345    0.137331   -2.675083
     57          7           0        4.810444   -1.050390    0.590810
     58          1           0        5.141583   -1.716075   -0.099518
     59          6           0        5.812004   -0.429878    1.442525
     60          1           0        5.366405    0.479778    1.856642
     61          6           0        7.010584   -0.027239    0.587684
     62          6           0        6.255002   -1.348320    2.601335
     63          1           0        7.071291   -0.854258    3.135872
     64          1           0        6.668956   -2.277430    2.189763
     65          8           0        7.198196   -0.359505   -0.564720
     66          6           0        5.101871   -1.663730    3.560277
     67          1           0        4.263183   -2.101544    3.002977
     68          1           0        4.723937   -0.728467    3.997761
     69          6           0        5.495077   -2.634325    4.686720
     70          1           0        4.613219   -2.855834    5.299263
     71          1           0        5.828963   -3.581708    4.256078
     72          7           0        6.544762   -2.140279    5.583614
     73          1           0        6.284090   -1.285284    6.062448
     74          7           0        8.292596   -3.304630    4.548994
     75          1           0        9.300934   -3.311670    4.438185
     76          1           0        7.961688   -4.163074    4.978291
     77          7           0        8.766823   -1.228145    5.457997
     78          1           0        8.325579   -0.384622    5.830221
     79          6           0        7.898383   -2.145974    5.227416
     80          8           0        7.867706    0.732176    1.291845
     81          1           0        6.207557   -0.172312   -2.679374
     82          1           0        8.636098    0.918063    0.719317
 ---------------------------------------------------------------------

 SCF Done:  E(RB3LYP) =  -2166.36131771     A.U. after    2 cycles

 Alpha  occ. eigenvalues --  -19.27997 -19.26652 -19.25980 -19.25620 -19.24505
 Alpha  occ. eigenvalues --  -19.22430 -19.21381 -19.21147 -19.20377 -19.19433
 Alpha  occ. eigenvalues --  -14.59957 -14.51390 -14.46254 -14.44654 -14.43329
 Alpha  occ. eigenvalues --  -14.39280 -14.38027 -14.32444 -10.44819 -10.41543
 Alpha  occ. eigenvalues --  -10.39775 -10.39291 -10.38973 -10.37945 -10.36656
 Alpha  occ. eigenvalues --  -10.35663 -10.34477 -10.34015 -10.33250 -10.32960
 Alpha  occ. eigenvalues --  -10.32267 -10.31946 -10.31911 -10.30907 -10.30607
 Alpha  occ. eigenvalues --  -10.30528 -10.30401 -10.30305 -10.30116 -10.27702
 Alpha  occ. eigenvalues --  -10.27217 -10.24720 -10.24215  -1.20456  -1.17758
 Alpha  occ. eigenvalues --   -1.17055  -1.14720  -1.14244  -1.13200  -1.12904
 Alpha  occ. eigenvalues --   -1.11513  -1.10906  -1.08815  -1.08058  -1.07455
 Alpha  occ. eigenvalues --   -1.02915  -1.01468  -1.01135  -1.00131  -0.97795
 Alpha  occ. eigenvalues --   -0.93744  -0.92816  -0.89450  -0.88217  -0.87762
 Alpha  occ. eigenvalues --   -0.86468  -0.85930  -0.85523  -0.84519  -0.80345
 Alpha  occ. eigenvalues --   -0.79772  -0.77576  -0.76136  -0.74668  -0.74435
 Alpha  occ. eigenvalues --   -0.73533  -0.72990  -0.72654  -0.71865  -0.70264
 Alpha  occ. eigenvalues --   -0.70017  -0.69097  -0.68303  -0.66452  -0.65957
 Alpha  occ. eigenvalues --   -0.65662  -0.65044  -0.64570  -0.64116  -0.63787
 Alpha  occ. eigenvalues --   -0.62919  -0.62685  -0.61259  -0.60807  -0.59196
 Alpha  occ. eigenvalues --   -0.58688  -0.58486  -0.58074  -0.57669  -0.57273
 Alpha  occ. eigenvalues --   -0.56756  -0.56458  -0.55846  -0.54997  -0.54882
 Alpha  occ. eigenvalues --   -0.54831  -0.54521  -0.54199  -0.53799  -0.53370
 Alpha  occ. eigenvalues --   -0.53324  -0.52971  -0.52675  -0.52415  -0.52017
 Alpha  occ. eigenvalues --   -0.51970  -0.51691  -0.51249  -0.50769  -0.50578
 Alpha  occ. eigenvalues --   -0.50410  -0.50034  -0.49416  -0.49143  -0.48408
 Alpha  occ. eigenvalues --   -0.48252  -0.47671  -0.47625  -0.47368  -0.46754
 Alpha  occ. eigenvalues --   -0.46499  -0.45884  -0.45517  -0.45190  -0.45064
 Alpha  occ. eigenvalues --   -0.44551  -0.44277  -0.43665  -0.43319  -0.42550
 Alpha  occ. eigenvalues --   -0.42240  -0.41812  -0.41539  -0.40039  -0.39695
 Alpha  occ. eigenvalues --   -0.38924  -0.38562  -0.38029  -0.37903  -0.37154
 Alpha  occ. eigenvalues --   -0.36783  -0.36485  -0.35658  -0.35290  -0.34963
 Alpha  occ. eigenvalues --   -0.33718  -0.33548  -0.33168  -0.32852  -0.30512
 Alpha  occ. eigenvalues --   -0.29590  -0.26624
 Alpha virt. eigenvalues --   -0.14400  -0.12425  -0.11671  -0.10310  -0.09196
 Alpha virt. eigenvalues --   -0.07448  -0.06279  -0.06053  -0.05712  -0.05052
 Alpha virt. eigenvalues --   -0.03749  -0.02920  -0.02229  -0.01735  -0.00710

 Mulliken charges:
               1
     1  N   -0.747612
     2  H    0.415662
     3  H    0.431586
     4  H    0.410516
     5  C   -0.108406
     6  H    0.212638
     7  C    0.638172
     8  C   -0.399413
     9  H    0.233197
    10  H    0.189742
    11  O   -0.544343
    12  C    0.103763
    13  C   -0.179750
    14  H    0.141050
    15  C   -0.238756
    16  H    0.193622
    17  C   -0.124757
    18  H    0.166788
    19  C   -0.123538
    20  H    0.169207
    21  C   -0.123169
    22  H    0.169327
    23  N   -0.573672
    24  H    0.365442
    25  C   -0.081779
    26  H    0.222168
    27  C    0.624993
    28  C   -0.066483
    29  H    0.190916
    30  H    0.155982
    31  O   -0.502493
    32  O   -0.632419
    33  H    0.419799
    34  N   -0.627018
    35  H    0.374626
    36  C   -0.095945
    37  H    0.193775
    38  C    0.644262
    39  C   -0.048035
    40  H    0.151962
    41  H    0.171624
    42  O   -0.556368
    43  O   -0.657170
    44  H    0.429296
    45  N   -0.622665
    46  H    0.380813
    47  C   -0.047179
    48  H    0.206077
    49  C    0.604801
    50  C   -0.347708
    51  H    0.208629
    52  H    0.176512
    53  O   -0.528917
    54  C    0.584798
    55  O   -0.473452
    56  O   -0.556289
    57  N   -0.607543
    58  H    0.371005
    59  C   -0.065527
    60  H    0.207448
    61  C    0.593470
    62  C   -0.274841
    63  H    0.189948
    64  H    0.159219
    65  O   -0.483839
    66  C   -0.262963
    67  H    0.141839
    68  H    0.141806
    69  C   -0.151439
    70  H    0.152534
    71  H    0.161997
    72  N   -0.577985
    73  H    0.310184
    74  N   -0.737216
    75  H    0.340155
    76  H    0.324913
    77  N   -0.630865
    78  H    0.263535
    79  C    0.547203
    80  O   -0.548879
    81  H    0.437084
    82  H    0.424346
 Sum of Mulliken charges =   1.00000

 Dipole moment (field-independent basis, Debye):
    X=            -16.9668    Y=              4.3032    Z=            -15.8808  Tot=             23.6345
 Quadrupole moment (field-independent basis, Debye-Ang):
   XX=           -127.5593   YY=           -208.8859   ZZ=           -152.3153
   XY=            -15.0643   XZ=             89.9488   YZ=            -20.7606

 Normal termination of Gaussian 16 at Mon May 16 06:35:35 2022.
