 Gaussian 16, Revision C.01,
 Gaussian 16:  ES64L-G16RevC.01  3-Jul-2019

 ----------------------------------------------------------------------
 # B3LYP/6-31G* empiricaldispersion=gd3 guess=read geom=check nosymm in
 tegral(ultrafinegrid)
 ----------------------------------------------------------------------

 ------------------------------------------------------
 Candidate Structure: Conf:746 Charge calc in gas phase
 ------------------------------------------------------
 Structure from the checkpoint file:  "conf-746.chk"
 Charge =  1 Multiplicity = 1

                          Input orientation:
 ---------------------------------------------------------------------
 Center     Atomic      Atomic             Coordinates (Angstroms)
 Number     Number       Type             X           Y           Z
 ---------------------------------------------------------------------
      1          7           0       -3.835882    0.882983   -5.608428
      2          1           0       -3.083919    1.015689   -6.289945
      3          1           0       -4.291494   -0.041016   -5.808272
      4          1           0       -4.486880    1.678855   -5.683629
      5          6           0       -3.314229    0.734511   -4.196547
      6          1           0       -2.309866    1.156639   -4.145125
      7          6           0       -3.283624   -0.792688   -3.973946
      8          6           0       -4.238809    1.472394   -3.204528
      9          1           0       -5.208407    0.961318   -3.163666
     10          1           0       -3.771459    1.377291   -2.220692
     11          8           0       -3.847802   -1.529426   -4.794007
     12          6           0       -4.400040    2.924149   -3.595241
     13          6           0       -3.349527    3.829277   -3.380204
     14          1           0       -2.452562    3.491425   -2.865966
     15          6           0       -5.557938    3.361614   -4.256089
     16          1           0       -6.396354    2.678885   -4.389441
     17          6           0       -3.462399    5.149383   -3.813101
     18          1           0       -2.649784    5.847149   -3.632732
     19          6           0       -5.666429    4.686287   -4.694280
     20          1           0       -6.572635    5.017989   -5.192455
     21          6           0       -4.618235    5.579187   -4.474340
     22          1           0       -4.702019    6.608987   -4.808330
     23          7           0       -2.644646   -1.172321   -2.870997
     24          1           0       -2.194182   -0.462858   -2.295305
     25          6           0       -2.310486   -2.549165   -2.528081
     26          1           0       -3.223566   -3.153160   -2.448825
     27          6           0       -1.603769   -2.453210   -1.161694
     28          6           0       -1.381900   -3.160481   -3.611894
     29          1           0       -1.921972   -3.131683   -4.561872
     30          1           0       -1.191443   -4.220872   -3.389211
     31          8           0       -1.538945   -1.382753   -0.561542
     32          8           0       -0.193320   -2.415319   -3.760297
     33          1           0        0.506530   -2.776859   -3.179083
     34          7           0       -0.975295   -3.572519   -0.694234
     35          1           0       -0.858842   -4.334339   -1.353205
     36          6           0        0.192292   -3.356075    0.187666
     37          1           0       -0.148375   -2.802354    1.064354
     38          6           0        1.191899   -2.551997   -0.659505
     39          6           0        0.762073   -4.703544    0.646218
     40          1           0        1.684296   -4.522692    1.206251
     41          1           0        1.031942   -5.304932   -0.236823
     42          8           0        1.636455   -3.041976   -1.702937
     43          8           0       -0.114333   -5.371987    1.526239
     44          1           0       -0.930911   -5.586950    1.048709
     45          7           0        1.461610   -1.288500   -0.249514
     46          1           0        0.863375   -0.901211    0.471211
     47          6           0        2.059408   -0.313352   -1.163866
     48          1           0        2.768951   -0.871108   -1.784446
     49          6           0        2.877481    0.762605   -0.429030
     50          6           0        1.024981    0.322528   -2.108770
     51          1           0        1.536231    1.077206   -2.716319
     52          1           0        0.610478   -0.428150   -2.787650
     53          8           0        3.020412    1.874187   -0.917764
     54          6           0       -0.146562    1.016171   -1.457740
     55          8           0       -1.156577    1.352910   -2.062604
     56          8           0        0.004937    1.241503   -0.145807
     57          7           0        3.428791    0.382138    0.758600
     58          1           0        3.486855   -0.613554    0.935565
     59          6           0        4.477515    1.206283    1.346651
     60          1           0        4.123012    2.239378    1.370727
     61          6           0        5.718618    1.143443    0.448876
     62          6           0        4.783727    0.716730    2.775530
     63          1           0        5.219163   -0.292131    2.719035
     64          1           0        3.820194    0.619331    3.292587
     65          8           0        5.977191    0.218583   -0.287805
     66          6           0        5.699189    1.645125    3.580447
     67          1           0        5.258055    2.647870    3.625173
     68          1           0        6.671836    1.748143    3.086468
     69          6           0        5.906494    1.140606    5.016343
     70          1           0        4.935295    1.009162    5.503792
     71          1           0        6.387871    0.155102    5.010482
     72          7           0        6.734377    2.023696    5.841429
     73          1           0        7.715234    1.994050    5.586543
     74          7           0        4.943030    3.424235    6.398376
     75          1           0        4.725709    4.361003    6.722571
     76          1           0        4.614739    2.725579    7.058647
     77          7           0        7.036321    4.390823    6.162949
     78          1           0        7.980030    4.214320    5.812718
     79          6           0        6.315098    3.331996    6.126175
     80          8           0        6.504127    2.226868    0.603524
     81          1           0       -0.807856    1.672411    0.181514
     82          1           0        7.279391    2.105043    0.022163
 ---------------------------------------------------------------------

 SCF Done:  E(RB3LYP) =  -2166.36443654     A.U. after    1 cycles

 Alpha  occ. eigenvalues --  -19.31330 -19.26852 -19.26056 -19.25650 -19.25055
 Alpha  occ. eigenvalues --  -19.24533 -19.23973 -19.23430 -19.21062 -19.20321
 Alpha  occ. eigenvalues --  -14.59085 -14.48771 -14.48581 -14.47618 -14.44461
 Alpha  occ. eigenvalues --  -14.39651 -14.38306 -14.32712 -10.44045 -10.42752
 Alpha  occ. eigenvalues --  -10.41859 -10.40428 -10.39184 -10.39057 -10.37652
 Alpha  occ. eigenvalues --  -10.35850 -10.34811 -10.34418 -10.33862 -10.33682
 Alpha  occ. eigenvalues --  -10.32929 -10.32106 -10.31461 -10.31381 -10.30314
 Alpha  occ. eigenvalues --  -10.30078 -10.29709 -10.29617 -10.29519 -10.29317
 Alpha  occ. eigenvalues --  -10.27902 -10.27143 -10.24771  -1.22292  -1.18409
 Alpha  occ. eigenvalues --   -1.17718  -1.17281  -1.15178  -1.13194  -1.12960
 Alpha  occ. eigenvalues --   -1.12431  -1.12074  -1.11619  -1.08771  -1.05850
 Alpha  occ. eigenvalues --   -1.04684  -1.04160  -1.01763  -1.00974  -0.96951
 Alpha  occ. eigenvalues --   -0.93167  -0.92661  -0.90111  -0.88902  -0.88552
 Alpha  occ. eigenvalues --   -0.87081  -0.86318  -0.85198  -0.84553  -0.81441
 Alpha  occ. eigenvalues --   -0.78962  -0.78903  -0.77277  -0.74806  -0.73580
 Alpha  occ. eigenvalues --   -0.73121  -0.72967  -0.72614  -0.72129  -0.71023
 Alpha  occ. eigenvalues --   -0.69984  -0.69489  -0.69414  -0.69144  -0.67179
 Alpha  occ. eigenvalues --   -0.66554  -0.65869  -0.64294  -0.64029  -0.63060
 Alpha  occ. eigenvalues --   -0.62530  -0.62120  -0.61460  -0.60922  -0.60318
 Alpha  occ. eigenvalues --   -0.59888  -0.59397  -0.59290  -0.58911  -0.58659
 Alpha  occ. eigenvalues --   -0.58196  -0.57120  -0.56755  -0.56433  -0.56139
 Alpha  occ. eigenvalues --   -0.56070  -0.55579  -0.55001  -0.54515  -0.54472
 Alpha  occ. eigenvalues --   -0.53821  -0.53259  -0.53014  -0.52913  -0.52706
 Alpha  occ. eigenvalues --   -0.52218  -0.51900  -0.51345  -0.51179  -0.50903
 Alpha  occ. eigenvalues --   -0.50868  -0.50496  -0.50030  -0.49891  -0.49726
 Alpha  occ. eigenvalues --   -0.49465  -0.49068  -0.48487  -0.48339  -0.47856
 Alpha  occ. eigenvalues --   -0.47413  -0.46722  -0.46522  -0.45439  -0.45065
 Alpha  occ. eigenvalues --   -0.44723  -0.44536  -0.44026  -0.43698  -0.43144
 Alpha  occ. eigenvalues --   -0.42789  -0.42130  -0.40930  -0.40533  -0.40415
 Alpha  occ. eigenvalues --   -0.40307  -0.39841  -0.39432  -0.38651  -0.38572
 Alpha  occ. eigenvalues --   -0.38191  -0.37251  -0.36859  -0.36028  -0.35656
 Alpha  occ. eigenvalues --   -0.35480  -0.35448  -0.34459  -0.33425  -0.30866
 Alpha  occ. eigenvalues --   -0.29933  -0.27026
 Alpha virt. eigenvalues --   -0.12567  -0.12060  -0.11720  -0.10465  -0.10460
 Alpha virt. eigenvalues --   -0.10115  -0.09189  -0.07094  -0.05791  -0.04481
 Alpha virt. eigenvalues --   -0.03322  -0.02879  -0.00977  -0.00913  -0.00789

 Mulliken charges:
               1
     1  N   -0.750455
     2  H    0.417027
     3  H    0.422797
     4  H    0.404557
     5  C   -0.120760
     6  H    0.240486
     7  C    0.655639
     8  C   -0.380151
     9  H    0.181122
    10  H    0.213405
    11  O   -0.546352
    12  C    0.126986
    13  C   -0.187125
    14  H    0.167358
    15  C   -0.230454
    16  H    0.146598
    17  C   -0.126351
    18  H    0.163931
    19  C   -0.122494
    20  H    0.163756
    21  C   -0.124292
    22  H    0.165560
    23  N   -0.633807
    24  H    0.416096
    25  C   -0.058795
    26  H    0.203475
    27  C    0.611516
    28  C   -0.079608
    29  H    0.198365
    30  H    0.143723
    31  O   -0.532106
    32  O   -0.639601
    33  H    0.448665
    34  N   -0.605706
    35  H    0.341796
    36  C   -0.077662
    37  H    0.190245
    38  C    0.617990
    39  C   -0.049598
    40  H    0.179431
    41  H    0.154361
    42  O   -0.553642
    43  O   -0.593362
    44  H    0.401711
    45  N   -0.602400
    46  H    0.366596
    47  C   -0.092440
    48  H    0.231305
    49  C    0.649993
    50  C   -0.398560
    51  H    0.229707
    52  H    0.209847
    53  O   -0.522353
    54  C    0.649543
    55  O   -0.521185
    56  O   -0.549370
    57  N   -0.607036
    58  H    0.339494
    59  C   -0.027299
    60  H    0.202297
    61  C    0.596805
    62  C   -0.304264
    63  H    0.147061
    64  H    0.158769
    65  O   -0.469291
    66  C   -0.269082
    67  H    0.176088
    68  H    0.150035
    69  C   -0.139901
    70  H    0.150564
    71  H    0.148176
    72  N   -0.579685
    73  H    0.312048
    74  N   -0.740553
    75  H    0.339569
    76  H    0.322470
    77  N   -0.624045
    78  H    0.265935
    79  C    0.542237
    80  O   -0.553951
    81  H    0.427702
    82  H    0.420904
 Sum of Mulliken charges =   1.00000

 Dipole moment (field-independent basis, Debye):
    X=            -10.8485    Y=              0.0960    Z=            -14.1754  Tot=             17.8505
 Quadrupole moment (field-independent basis, Debye-Ang):
   XX=           -167.8603   YY=           -220.7605   ZZ=           -158.3424
   XY=            -31.5026   XZ=             74.7360   YZ=            -37.1203

 Normal termination of Gaussian 16 at Mon May 16 06:35:21 2022.
