 Gaussian 16, Revision C.01,
 Gaussian 16:  ES64L-G16RevC.01  3-Jul-2019

 ----------------------------------------------------------------------
 # B3LYP/6-31G* empiricaldispersion=gd3 guess=read geom=check nosymm in
 tegral(ultrafinegrid)
 ----------------------------------------------------------------------

 ------------------------------------------------------
 Candidate Structure: Conf:315 Charge calc in gas phase
 ------------------------------------------------------
 Structure from the checkpoint file:  "conf-315.chk"
 Charge =  1 Multiplicity = 1

                          Input orientation:
 ---------------------------------------------------------------------
 Center     Atomic      Atomic             Coordinates (Angstroms)
 Number     Number       Type             X           Y           Z
 ---------------------------------------------------------------------
      1          7           0       -5.415671    0.534290   -3.664907
      2          1           0       -5.711910    1.477517   -3.930445
      3          1           0       -5.048693    0.051023   -4.524867
      4          1           0       -6.214904    0.041036   -3.242881
      5          6           0       -4.215526    0.532722   -2.744126
      6          1           0       -4.195810    1.465279   -2.177800
      7          6           0       -3.019314    0.397912   -3.708450
      8          6           0       -4.303211   -0.684407   -1.799461
      9          1           0       -4.246911   -1.597096   -2.405856
     10          1           0       -3.405273   -0.679796   -1.173818
     11          8           0       -3.234607   -0.068246   -4.837693
     12          6           0       -5.578616   -0.656873   -0.986589
     13          6           0       -5.759046    0.302646    0.021784
     14          1           0       -4.956831    1.001141    0.251774
     15          6           0       -6.630778   -1.536875   -1.280278
     16          1           0       -6.495650   -2.303872   -2.041241
     17          6           0       -6.958209    0.370311    0.728360
     18          1           0       -7.082259    1.111744    1.512282
     19          6           0       -7.836332   -1.467198   -0.573416
     20          1           0       -8.637965   -2.162613   -0.803958
     21          6           0       -8.000500   -0.514236    0.430947
     22          1           0       -8.933492   -0.460347    0.983700
     23          7           0       -1.852616    0.746449   -3.180226
     24          1           0       -1.853793    1.134605   -2.196938
     25          6           0       -0.574791    0.559856   -3.873278
     26          1           0       -0.645544   -0.323830   -4.516855
     27          6           0        0.454747    0.335182   -2.753239
     28          6           0       -0.206799    1.775514   -4.741578
     29          1           0       -0.248616    2.684505   -4.123139
     30          1           0       -0.953202    1.868571   -5.535773
     31          8           0        1.285443    1.209899   -2.485299
     32          8           0        1.047660    1.596118   -5.356615
     33          1           0        1.714841    1.724010   -4.662210
     34          7           0        0.301267   -0.822090   -2.062630
     35          1           0       -0.482613   -1.387225   -2.379123
     36          6           0        0.449386   -0.979826   -0.603783
     37          1           0       -0.170945   -0.210914   -0.125242
     38          6           0        1.827389   -0.843502    0.067870
     39          6           0       -0.156247   -2.337561   -0.239148
     40          1           0       -0.158620   -2.436057    0.848931
     41          1           0        0.454725   -3.144676   -0.666738
     42          8           0        1.949791   -1.296858    1.204944
     43          8           0       -1.484989   -2.357625   -0.785345
     44          1           0       -1.834088   -3.255973   -0.684272
     45          7           0        2.808185   -0.158489   -0.573499
     46          1           0        2.500657    0.447620   -1.336704
     47          6           0        3.921764    0.329776    0.234360
     48          1           0        4.264832   -0.488841    0.867756
     49          6           0        3.392476    1.487401    1.110304
     50          6           0        5.064311    0.802049   -0.667275
     51          1           0        5.264813    0.051721   -1.441253
     52          1           0        4.802518    1.731020   -1.187487
     53          8           0        2.617542    2.318361    0.618874
     54          6           0        6.336201    1.013807    0.128613
     55          8           0        6.467587    0.763642    1.308963
     56          8           0        7.324174    1.503822   -0.641976
     57          7           0        3.774592    1.510746    2.397830
     58          1           0        4.554556    0.933961    2.699300
     59          6           0        3.254604    2.494280    3.333043
     60          1           0        2.977129    3.389616    2.770250
     61          6           0        4.361222    2.853970    4.314270
     62          6           0        2.025886    1.964894    4.126032
     63          1           0        1.679801    2.770433    4.784798
     64          1           0        2.371038    1.148656    4.772049
     65          8           0        5.370973    2.208806    4.479780
     66          6           0        0.875157    1.439450    3.254922
     67          1           0        0.170880    0.910771    3.912367
     68          1           0        1.251406    0.689820    2.552015
     69          6           0        0.111765    2.528695    2.487931
     70          1           0       -0.409932    3.194362    3.189275
     71          1           0        0.799572    3.144128    1.912178
     72          7           0       -0.862327    1.939185    1.566144
     73          1           0       -1.563426    1.345932    1.987799
     74          7           0       -0.025101    2.889261   -0.392157
     75          1           0       -0.086216    2.881404   -1.400826
     76          1           0        0.937256    2.773766   -0.073334
     77          7           0       -1.965951    1.617735   -0.498377
     78          1           0       -2.642509    1.154709    0.107803
     79          6           0       -0.981667    2.128629    0.217437
     80          8           0        4.046518    3.962589    5.013914
     81          1           0        8.112914    1.599278   -0.074048
     82          1           0        4.769673    4.115077    5.652196
 ---------------------------------------------------------------------

 SCF Done:  E(RB3LYP) =  -2166.39485694     A.U. after    1 cycles

 Alpha  occ. eigenvalues --  -19.27367 -19.27074 -19.26355 -19.25139 -19.23974
 Alpha  occ. eigenvalues --  -19.22165 -19.21787 -19.21762 -19.20340 -19.20177
 Alpha  occ. eigenvalues --  -14.59056 -14.47228 -14.46572 -14.44733 -14.44142
 Alpha  occ. eigenvalues --  -14.43474 -14.41783 -14.38995 -10.41751 -10.40273
 Alpha  occ. eigenvalues --  -10.40040 -10.39795 -10.39196 -10.38430 -10.37605
 Alpha  occ. eigenvalues --  -10.37221 -10.33581 -10.33534 -10.33370 -10.32887
 Alpha  occ. eigenvalues --  -10.31999 -10.31912 -10.31783 -10.31621 -10.30756
 Alpha  occ. eigenvalues --  -10.30550 -10.30189 -10.30184 -10.30179 -10.29861
 Alpha  occ. eigenvalues --  -10.28632 -10.27225 -10.26351  -1.18304  -1.18168
 Alpha  occ. eigenvalues --   -1.17550  -1.15488  -1.13204  -1.12874  -1.12636
 Alpha  occ. eigenvalues --   -1.11650  -1.09814  -1.09477  -1.09260  -1.07061
 Alpha  occ. eigenvalues --   -1.04937  -1.02914  -1.00893  -1.00536  -0.97470
 Alpha  occ. eigenvalues --   -0.97426  -0.93479  -0.92539  -0.88782  -0.87994
 Alpha  occ. eigenvalues --   -0.86921  -0.85977  -0.85747  -0.83978  -0.82651
 Alpha  occ. eigenvalues --   -0.78763  -0.77741  -0.75850  -0.75148  -0.73116
 Alpha  occ. eigenvalues --   -0.73009  -0.72529  -0.71615  -0.70735  -0.69997
 Alpha  occ. eigenvalues --   -0.69949  -0.69666  -0.68909  -0.68322  -0.66819
 Alpha  occ. eigenvalues --   -0.66309  -0.66129  -0.65350  -0.64265  -0.62998
 Alpha  occ. eigenvalues --   -0.62621  -0.61954  -0.61554  -0.60561  -0.59729
 Alpha  occ. eigenvalues --   -0.59221  -0.58636  -0.58142  -0.57323  -0.57242
 Alpha  occ. eigenvalues --   -0.57047  -0.56879  -0.56476  -0.56246  -0.56010
 Alpha  occ. eigenvalues --   -0.55725  -0.55552  -0.55326  -0.54438  -0.53943
 Alpha  occ. eigenvalues --   -0.53665  -0.53479  -0.53322  -0.53114  -0.52903
 Alpha  occ. eigenvalues --   -0.52282  -0.51855  -0.51667  -0.51542  -0.51221
 Alpha  occ. eigenvalues --   -0.51039  -0.50194  -0.49927  -0.49309  -0.49241
 Alpha  occ. eigenvalues --   -0.48850  -0.48264  -0.47852  -0.47794  -0.47258
 Alpha  occ. eigenvalues --   -0.47071  -0.46235  -0.46192  -0.45868  -0.45517
 Alpha  occ. eigenvalues --   -0.45295  -0.45086  -0.44527  -0.44269  -0.43959
 Alpha  occ. eigenvalues --   -0.42119  -0.42061  -0.41651  -0.39970  -0.39491
 Alpha  occ. eigenvalues --   -0.39321  -0.39006  -0.38683  -0.38062  -0.37312
 Alpha  occ. eigenvalues --   -0.36988  -0.36577  -0.35991  -0.35796  -0.35638
 Alpha  occ. eigenvalues --   -0.35236  -0.34600  -0.34202  -0.33821  -0.33563
 Alpha  occ. eigenvalues --   -0.32727  -0.31748
 Alpha virt. eigenvalues --   -0.12765  -0.12020  -0.10654  -0.09668  -0.09158
 Alpha virt. eigenvalues --   -0.07921  -0.06696  -0.06288  -0.05811  -0.04529
 Alpha virt. eigenvalues --   -0.04359  -0.03269  -0.03136  -0.01657  -0.00790

 Mulliken charges:
               1
     1  N   -0.747428
     2  H    0.415216
     3  H    0.422546
     4  H    0.404036
     5  C   -0.118972
     6  H    0.225720
     7  C    0.636276
     8  C   -0.399204
     9  H    0.176531
    10  H    0.230684
    11  O   -0.547816
    12  C    0.132659
    13  C   -0.188689
    14  H    0.144169
    15  C   -0.224035
    16  H    0.146991
    17  C   -0.124063
    18  H    0.163276
    19  C   -0.120911
    20  H    0.165499
    21  C   -0.125205
    22  H    0.167139
    23  N   -0.659440
    24  H    0.436773
    25  C   -0.077216
    26  H    0.201188
    27  C    0.601140
    28  C   -0.023290
    29  H    0.136086
    30  H    0.168859
    31  O   -0.546059
    32  O   -0.607397
    33  H    0.413549
    34  N   -0.602721
    35  H    0.359758
    36  C   -0.084447
    37  H    0.205315
    38  C    0.640736
    39  C   -0.070666
    40  H    0.190303
    41  H    0.162708
    42  O   -0.531070
    43  O   -0.644782
    44  H    0.415798
    45  N   -0.633512
    46  H    0.388563
    47  C   -0.039036
    48  H    0.200524
    49  C    0.621084
    50  C   -0.392980
    51  H    0.208307
    52  H    0.203722
    53  O   -0.565719
    54  C    0.596706
    55  O   -0.460286
    56  O   -0.557467
    57  N   -0.583176
    58  H    0.383895
    59  C   -0.050021
    60  H    0.199733
    61  C    0.583199
    62  C   -0.274114
    63  H    0.167181
    64  H    0.163479
    65  O   -0.447470
    66  C   -0.295554
    67  H    0.139215
    68  H    0.188974
    69  C   -0.141196
    70  H    0.157409
    71  H    0.193395
    72  N   -0.604839
    73  H    0.321686
    74  N   -0.772237
    75  H    0.340336
    76  H    0.405199
    77  N   -0.783796
    78  H    0.277927
    79  C    0.654223
    80  O   -0.563445
    81  H    0.424881
    82  H    0.425672
 Sum of Mulliken charges =   1.00000

 Dipole moment (field-independent basis, Debye):
    X=            -15.8224    Y=              1.9806    Z=             -3.8391  Tot=             16.4015
 Quadrupole moment (field-independent basis, Debye-Ang):
   XX=            -90.7650   YY=           -225.2703   ZZ=           -213.3037
   XY=             14.3506   XZ=             47.7557   YZ=             16.2736

 Normal termination of Gaussian 16 at Mon May 16 06:35:40 2022.
