 Gaussian 16, Revision C.01,
 Gaussian 16:  ES64L-G16RevC.01  3-Jul-2019

 ----------------------------------------------------------------------
 # B3LYP/6-31G* empiricaldispersion=gd3 guess=read geom=check nosymm in
 tegral(ultrafinegrid)
 ----------------------------------------------------------------------

 ------------------------------------------------------
 Candidate Structure: Conf:156 Charge calc in gas phase
 ------------------------------------------------------
 Structure from the checkpoint file:  "conf-156.chk"
 Charge =  1 Multiplicity = 1

                          Input orientation:
 ---------------------------------------------------------------------
 Center     Atomic      Atomic             Coordinates (Angstroms)
 Number     Number       Type             X           Y           Z
 ---------------------------------------------------------------------
      1          7           0       -2.747100    0.561622   -0.551764
      2          1           0       -3.552816    0.905146   -0.021734
      3          1           0       -2.415029   -0.322527   -0.149122
      4          1           0       -1.946884    1.263529   -0.479393
      5          6           0       -3.092161    0.312327   -2.010521
      6          1           0       -3.993798   -0.307208   -2.013135
      7          6           0       -1.882439   -0.548123   -2.468654
      8          6           0       -3.327982    1.661496   -2.701538
      9          1           0       -4.067617    2.224660   -2.114217
     10          1           0       -2.392314    2.230582   -2.671723
     11          8           0       -1.359720   -1.251237   -1.595898
     12          6           0       -3.806742    1.533977   -4.135428
     13          6           0       -3.095037    2.170374   -5.159726
     14          1           0       -2.198783    2.735099   -4.919577
     15          6           0       -4.953191    0.794005   -4.459838
     16          1           0       -5.532244    0.304857   -3.679243
     17          6           0       -3.510465    2.061703   -6.487230
     18          1           0       -2.934147    2.543782   -7.270181
     19          6           0       -5.372696    0.690519   -5.785400
     20          1           0       -6.263201    0.117067   -6.025635
     21          6           0       -4.650363    1.322587   -6.801737
     22          1           0       -4.976612    1.236312   -7.833959
     23          7           0       -1.432679   -0.414232   -3.722676
     24          1           0       -1.893042    0.245086   -4.347192
     25          6           0       -0.002664   -0.614028   -4.029436
     26          1           0        0.330427   -1.600727   -3.696315
     27          6           0        0.706867    0.502467   -3.243794
     28          6           0        0.190631   -0.437215   -5.543369
     29          1           0       -0.285697   -1.269400   -6.069622
     30          1           0        1.267878   -0.465264   -5.765100
     31          8           0        0.425574    1.699493   -3.504821
     32          8           0       -0.426657    0.749457   -6.014061
     33          1           0       -0.051522    1.482052   -5.488948
     34          7           0        1.499238    0.134035   -2.237223
     35          1           0        1.694666   -0.881530   -2.096153
     36          6           0        1.994024    1.120449   -1.291088
     37          1           0        2.280562    2.024951   -1.841159
     38          6           0        3.189398    0.549503   -0.515749
     39          6           0        0.902109    1.482209   -0.248722
     40          1           0        1.270702    2.279119    0.405943
     41          1           0        0.686040    0.609178    0.374044
     42          8           0        3.459089   -0.646122   -0.532587
     43          8           0       -0.328313    1.897708   -0.870721
     44          1           0       -0.109205    2.238759   -1.768942
     45          7           0        3.834168    1.444445    0.272437
     46          1           0        3.698992    2.444297    0.171014
     47          6           0        4.658127    0.989845    1.376621
     48          1           0        5.574042    0.519486    0.996393
     49          6           0        3.843006   -0.024496    2.224859
     50          6           0        5.011958    2.168941    2.310225
     51          1           0        4.084429    2.521563    2.777142
     52          1           0        5.681282    1.818968    3.098651
     53          8           0        2.637757    0.123644    2.390549
     54          6           0        5.621148    3.347028    1.577078
     55          8           0        5.065477    3.944530    0.674005
     56          8           0        6.840772    3.668758    2.035603
     57          7           0        4.578588   -1.008010    2.801106
     58          1           0        5.560772   -1.093415    2.576740
     59          6           0        3.965703   -2.075714    3.577262
     60          1           0        2.954031   -1.735741    3.810608
     61          6           0        4.671449   -2.335253    4.901161
     62          6           0        3.866804   -3.409323    2.789484
     63          1           0        3.221571   -4.080107    3.368461
     64          1           0        4.856664   -3.886192    2.747686
     65          8           0        4.195028   -3.011930    5.780878
     66          6           0        3.335731   -3.188283    1.370428
     67          1           0        4.085292   -2.657424    0.775460
     68          1           0        2.459705   -2.531992    1.386770
     69          6           0        2.972647   -4.490289    0.646442
     70          1           0        3.774816   -5.230308    0.743740
     71          1           0        2.084910   -4.950670    1.095432
     72          7           0        2.756939   -4.306339   -0.798039
     73          1           0        3.622825   -4.283938   -1.322855
     74          7           0        0.672012   -3.282063   -0.554177
     75          1           0       -0.048021   -2.745934   -1.027744
     76          1           0        0.334670   -4.122652   -0.102921
     77          7           0        1.967142   -2.703519   -2.377967
     78          1           0        2.922756   -2.761557   -2.729954
     79          6           0        1.827328   -3.409510   -1.295424
     80          8           0        5.911403   -1.790723    4.958143
     81          1           0        7.152064    4.442473    1.525491
     82          1           0        6.292891   -2.055147    5.817689
 ---------------------------------------------------------------------

 SCF Done:  E(RB3LYP) =  -2166.39974642     A.U. after    1 cycles

 Alpha  occ. eigenvalues --  -19.29077 -19.27784 -19.26810 -19.25213 -19.23542
 Alpha  occ. eigenvalues --  -19.22795 -19.22349 -19.21531 -19.21294 -19.20396
 Alpha  occ. eigenvalues --  -14.57636 -14.47633 -14.45435 -14.45253 -14.45139
 Alpha  occ. eigenvalues --  -14.42848 -14.41671 -14.36786 -10.42249 -10.41880
 Alpha  occ. eigenvalues --  -10.39860 -10.39290 -10.38995 -10.38528 -10.37854
 Alpha  occ. eigenvalues --  -10.36427 -10.34187 -10.33959 -10.33685 -10.32765
 Alpha  occ. eigenvalues --  -10.32622 -10.32471 -10.32033 -10.30307 -10.30048
 Alpha  occ. eigenvalues --  -10.30037 -10.28656 -10.28230 -10.28017 -10.27716
 Alpha  occ. eigenvalues --  -10.27648 -10.27221 -10.25344  -1.20044  -1.18383
 Alpha  occ. eigenvalues --   -1.17610  -1.14615  -1.13605  -1.12841  -1.12085
 Alpha  occ. eigenvalues --   -1.11502  -1.11050  -1.10225  -1.09407  -1.05568
 Alpha  occ. eigenvalues --   -1.04253  -1.02159  -1.02095  -1.01746  -0.96351
 Alpha  occ. eigenvalues --   -0.95672  -0.92156  -0.91441  -0.89770  -0.87589
 Alpha  occ. eigenvalues --   -0.86832  -0.85007  -0.83859  -0.83394  -0.82408
 Alpha  occ. eigenvalues --   -0.78429  -0.78308  -0.76169  -0.75147  -0.73381
 Alpha  occ. eigenvalues --   -0.72413  -0.71458  -0.70670  -0.70287  -0.69772
 Alpha  occ. eigenvalues --   -0.69682  -0.68986  -0.68324  -0.67614  -0.67275
 Alpha  occ. eigenvalues --   -0.67082  -0.66684  -0.64809  -0.62994  -0.62896
 Alpha  occ. eigenvalues --   -0.61931  -0.61580  -0.61019  -0.60518  -0.60278
 Alpha  occ. eigenvalues --   -0.59815  -0.59227  -0.58817  -0.58081  -0.57722
 Alpha  occ. eigenvalues --   -0.57010  -0.56775  -0.55779  -0.55481  -0.55218
 Alpha  occ. eigenvalues --   -0.55020  -0.54809  -0.54718  -0.54470  -0.54147
 Alpha  occ. eigenvalues --   -0.53660  -0.53326  -0.52818  -0.52493  -0.52174
 Alpha  occ. eigenvalues --   -0.51598  -0.51296  -0.51218  -0.51141  -0.50849
 Alpha  occ. eigenvalues --   -0.50768  -0.50450  -0.50162  -0.49728  -0.49435
 Alpha  occ. eigenvalues --   -0.49058  -0.48635  -0.48310  -0.47886  -0.47574
 Alpha  occ. eigenvalues --   -0.47397  -0.47010  -0.46956  -0.45921  -0.44954
 Alpha  occ. eigenvalues --   -0.44876  -0.44346  -0.43642  -0.43395  -0.43239
 Alpha  occ. eigenvalues --   -0.42735  -0.42458  -0.41168  -0.41002  -0.39793
 Alpha  occ. eigenvalues --   -0.39502  -0.39426  -0.38780  -0.37482  -0.36667
 Alpha  occ. eigenvalues --   -0.36526  -0.36247  -0.35435  -0.35394  -0.34902
 Alpha  occ. eigenvalues --   -0.34601  -0.34116  -0.33929  -0.33848  -0.33423
 Alpha  occ. eigenvalues --   -0.32998  -0.30373
 Alpha virt. eigenvalues --   -0.12697  -0.09991  -0.09380  -0.09195  -0.08795
 Alpha virt. eigenvalues --   -0.07982  -0.07425  -0.06832  -0.05919  -0.03427
 Alpha virt. eigenvalues --   -0.03240  -0.02208  -0.01524  -0.01213  -0.00808

 Mulliken charges:
               1
     1  N   -0.760346
     2  H    0.397112
     3  H    0.417585
     4  H    0.450186
     5  C   -0.127124
     6  H    0.221325
     7  C    0.663920
     8  C   -0.372762
     9  H    0.177530
    10  H    0.186292
    11  O   -0.543135
    12  C    0.114003
    13  C   -0.187908
    14  H    0.149593
    15  C   -0.177278
    16  H    0.126713
    17  C   -0.101136
    18  H    0.162548
    19  C   -0.124918
    20  H    0.156481
    21  C   -0.126420
    22  H    0.159949
    23  N   -0.601906
    24  H    0.393096
    25  C   -0.106247
    26  H    0.235081
    27  C    0.611883
    28  C   -0.058586
    29  H    0.177557
    30  H    0.158902
    31  O   -0.616232
    32  O   -0.628868
    33  H    0.420499
    34  N   -0.608998
    35  H    0.442214
    36  C   -0.134637
    37  H    0.194572
    38  C    0.638328
    39  C   -0.001309
    40  H    0.162321
    41  H    0.182989
    42  O   -0.519842
    43  O   -0.701297
    44  H    0.448887
    45  N   -0.625031
    46  H    0.366838
    47  C   -0.024232
    48  H    0.170541
    49  C    0.645717
    50  C   -0.391929
    51  H    0.210902
    52  H    0.200477
    53  O   -0.539012
    54  C    0.596017
    55  O   -0.466487
    56  O   -0.544601
    57  N   -0.598320
    58  H    0.342539
    59  C   -0.065655
    60  H    0.215506
    61  C    0.592850
    62  C   -0.284313
    63  H    0.175224
    64  H    0.144573
    65  O   -0.446116
    66  C   -0.271413
    67  H    0.159116
    68  H    0.179795
    69  C   -0.158983
    70  H    0.160223
    71  H    0.152416
    72  N   -0.581687
    73  H    0.323817
    74  N   -0.772194
    75  H    0.378470
    76  H    0.332068
    77  N   -0.727413
    78  H    0.283725
    79  C    0.641702
    80  O   -0.576775
    81  H    0.426608
    82  H    0.424422
 Sum of Mulliken charges =   1.00000

 Dipole moment (field-independent basis, Debye):
    X=              0.8983    Y=              1.0495    Z=             -3.1304  Tot=              3.4217
 Quadrupole moment (field-independent basis, Debye-Ang):
   XX=           -124.1904   YY=           -219.3880   ZZ=           -214.9559
   XY=             -3.4207   XZ=             42.6626   YZ=              2.0911

 Normal termination of Gaussian 16 at Mon May 16 06:35:40 2022.
