 Gaussian 16, Revision C.01,
 Gaussian 16:  ES64L-G16RevC.01  3-Jul-2019

 ----------------------------------------------------------------------
 # B3LYP/6-31G* empiricaldispersion=gd3 guess=read geom=check nosymm in
 tegral(ultrafinegrid)
 ----------------------------------------------------------------------

 ------------------------------------------------------
 Candidate Structure: Conf:102 Charge calc in gas phase
 ------------------------------------------------------
 Structure from the checkpoint file:  "conf-102.chk"
 Charge =  1 Multiplicity = 1

                          Input orientation:
 ---------------------------------------------------------------------
 Center     Atomic      Atomic             Coordinates (Angstroms)
 Number     Number       Type             X           Y           Z
 ---------------------------------------------------------------------
      1          7           0       -4.064339   -2.356151   -1.480147
      2          1           0       -4.347081   -3.156955   -2.053490
      3          1           0       -3.165183   -2.640169   -0.999633
      4          1           0       -4.773933   -2.139342   -0.769524
      5          6           0       -3.824467   -1.141669   -2.342944
      6          1           0       -4.764778   -0.942224   -2.867158
      7          6           0       -2.724414   -1.565683   -3.341096
      8          6           0       -3.457145    0.056061   -1.431231
      9          1           0       -2.410024   -0.027771   -1.119749
     10          1           0       -3.540474    0.968940   -2.032869
     11          8           0       -2.481405   -2.763459   -3.496241
     12          6           0       -4.369611    0.132683   -0.224565
     13          6           0       -5.695514    0.572258   -0.363963
     14          1           0       -6.048194    0.938874   -1.326492
     15          6           0       -3.925110   -0.320430    1.026103
     16          1           0       -2.899354   -0.650876    1.177312
     17          6           0       -6.558024    0.565386    0.732820
     18          1           0       -7.578125    0.920327    0.618320
     19          6           0       -4.790004   -0.328766    2.123381
     20          1           0       -4.401039   -0.679185    3.074374
     21          6           0       -6.106395    0.112074    1.976329
     22          1           0       -6.779729    0.110848    2.828560
     23          7           0       -2.037299   -0.570761   -3.955691
     24          1           0       -2.197421    0.370037   -3.607396
     25          6           0       -0.613713   -0.797162   -4.326555
     26          1           0       -0.544179   -1.797426   -4.755909
     27          6           0        0.079297   -0.662131   -2.960719
     28          6           0       -0.154938    0.235147   -5.357864
     29          1           0        0.916553    0.096425   -5.530919
     30          1           0       -0.288525    1.248385   -4.949653
     31          8           0        0.190797    0.447017   -2.437427
     32          8           0       -0.793325    0.045942   -6.601127
     33          1           0       -1.728258    0.286707   -6.509602
     34          7           0        0.325035   -1.818047   -2.291680
     35          1           0        0.326897   -2.685727   -2.812006
     36          6           0        0.325623   -1.883293   -0.825166
     37          1           0       -0.292328   -1.042176   -0.482205
     38          6           0        1.692214   -1.656081   -0.153121
     39          6           0       -0.306472   -3.196818   -0.357538
     40          1           0       -0.420488   -3.195607    0.725318
     41          1           0        0.324071   -4.050897   -0.634188
     42          8           0        2.029220   -2.329021    0.815214
     43          8           0       -1.629795   -3.381683   -0.898507
     44          1           0       -1.572983   -3.555925   -1.854409
     45          7           0        2.421887   -0.631202   -0.684340
     46          1           0        1.863379    0.032674   -1.219963
     47          6           0        3.425185   -0.010814    0.171878
     48          1           0        4.019468   -0.806499    0.624909
     49          6           0        2.669378    0.756944    1.289881
     50          6           0        4.340334    0.897645   -0.658641
     51          1           0        4.600194    0.395256   -1.598478
     52          1           0        3.841411    1.834199   -0.935325
     53          8           0        1.484384    1.053912    1.139178
     54          6           0        5.637198    1.220195    0.056047
     55          8           0        5.986495    0.753257    1.121846
     56          8           0        6.386785    2.079836   -0.654255
     57          7           0        3.376829    1.016067    2.410573
     58          1           0        4.374266    0.820919    2.437457
     59          6           0        2.740555    1.580171    3.586884
     60          1           0        1.901083    2.196633    3.251085
     61          6           0        3.744124    2.464419    4.309930
     62          6           0        2.197689    0.483528    4.541947
     63          1           0        1.653109    0.982174    5.352477
     64          1           0        3.046585   -0.042041    5.001160
     65          8           0        4.928249    2.515215    4.065724
     66          6           0        1.302377   -0.524465    3.814411
     67          1           0        1.886644   -1.051327    3.052352
     68          1           0        0.507540   -0.000309    3.273560
     69          6           0        0.696334   -1.578510    4.746816
     70          1           0        1.481570   -2.066086    5.335597
     71          1           0        0.004925   -1.129241    5.469337
     72          7           0       -0.017286   -2.632136    4.027480
     73          1           0        0.587872   -3.225862    3.469445
     74          7           0       -1.679111   -3.497900    2.665824
     75          1           0       -2.667469   -3.406093    2.456768
     76          1           0       -1.485928   -4.401149    3.089493
     77          7           0       -2.032410   -1.389615    3.559065
     78          1           0       -1.582542   -0.617445    4.047488
     79          6           0       -1.256637   -2.411883    3.456620
     80          8           0        3.147642    3.166723    5.296361
     81          1           0        7.205906    2.237594   -0.146000
     82          1           0        3.846327    3.683392    5.741377
 ---------------------------------------------------------------------

 SCF Done:  E(RB3LYP) =  -2166.37292438     A.U. after    1 cycles

 Alpha  occ. eigenvalues --  -19.28814 -19.27903 -19.27591 -19.26798 -19.24696
 Alpha  occ. eigenvalues --  -19.24499 -19.22356 -19.21495 -19.21192 -19.18892
 Alpha  occ. eigenvalues --  -14.58672 -14.51233 -14.49036 -14.44066 -14.42929
 Alpha  occ. eigenvalues --  -14.42722 -14.42685 -14.36721 -10.45077 -10.41521
 Alpha  occ. eigenvalues --  -10.40962 -10.40644 -10.39205 -10.38312 -10.36186
 Alpha  occ. eigenvalues --  -10.36056 -10.35981 -10.34577 -10.34508 -10.34350
 Alpha  occ. eigenvalues --  -10.33970 -10.31626 -10.31186 -10.31001 -10.29833
 Alpha  occ. eigenvalues --  -10.29384 -10.29186 -10.29131 -10.29038 -10.28718
 Alpha  occ. eigenvalues --  -10.28183 -10.26459 -10.25056  -1.20151  -1.18745
 Alpha  occ. eigenvalues --   -1.17718  -1.16567  -1.15380  -1.13386  -1.13160
 Alpha  occ. eigenvalues --   -1.12381  -1.10835  -1.09783  -1.08848  -1.07378
 Alpha  occ. eigenvalues --   -1.05560  -1.04939  -1.01169  -0.99837  -0.96735
 Alpha  occ. eigenvalues --   -0.96654  -0.93094  -0.92074  -0.89638  -0.88134
 Alpha  occ. eigenvalues --   -0.86922  -0.86173  -0.85285  -0.84491  -0.81957
 Alpha  occ. eigenvalues --   -0.79308  -0.78518  -0.76911  -0.75170  -0.74638
 Alpha  occ. eigenvalues --   -0.73971  -0.73213  -0.71872  -0.71407  -0.70399
 Alpha  occ. eigenvalues --   -0.69925  -0.69048  -0.68134  -0.67788  -0.66970
 Alpha  occ. eigenvalues --   -0.65930  -0.65683  -0.65290  -0.64530  -0.63919
 Alpha  occ. eigenvalues --   -0.62814  -0.62401  -0.62203  -0.61912  -0.61137
 Alpha  occ. eigenvalues --   -0.60291  -0.59894  -0.59259  -0.58899  -0.58235
 Alpha  occ. eigenvalues --   -0.57653  -0.56955  -0.56561  -0.56037  -0.55709
 Alpha  occ. eigenvalues --   -0.55666  -0.55074  -0.54887  -0.54875  -0.54479
 Alpha  occ. eigenvalues --   -0.54028  -0.53711  -0.53261  -0.53184  -0.52720
 Alpha  occ. eigenvalues --   -0.52270  -0.51910  -0.51840  -0.51596  -0.51163
 Alpha  occ. eigenvalues --   -0.51027  -0.50754  -0.50443  -0.50131  -0.49805
 Alpha  occ. eigenvalues --   -0.49256  -0.49035  -0.48595  -0.47419  -0.46882
 Alpha  occ. eigenvalues --   -0.46592  -0.46442  -0.46292  -0.45746  -0.45213
 Alpha  occ. eigenvalues --   -0.44611  -0.44323  -0.44218  -0.43760  -0.43587
 Alpha  occ. eigenvalues --   -0.42748  -0.42530  -0.42155  -0.41710  -0.41055
 Alpha  occ. eigenvalues --   -0.40645  -0.39922  -0.39430  -0.38875  -0.38761
 Alpha  occ. eigenvalues --   -0.36781  -0.36115  -0.35640  -0.35359  -0.35174
 Alpha  occ. eigenvalues --   -0.35090  -0.34734  -0.33996  -0.33757  -0.32905
 Alpha  occ. eigenvalues --   -0.32405  -0.30536
 Alpha virt. eigenvalues --   -0.15481  -0.11315  -0.10771  -0.10613  -0.08818
 Alpha virt. eigenvalues --   -0.08313  -0.07165  -0.06162  -0.05357  -0.05253
 Alpha virt. eigenvalues --   -0.04292  -0.03406  -0.03047  -0.02878  -0.02304

 Mulliken charges:
               1
     1  N   -0.755335
     2  H    0.411887
     3  H    0.443946
     4  H    0.412828
     5  C   -0.117659
     6  H    0.228334
     7  C    0.644245
     8  C   -0.404910
     9  H    0.208020
    10  H    0.190822
    11  O   -0.537272
    12  C    0.112879
    13  C   -0.190493
    14  H    0.136118
    15  C   -0.225003
    16  H    0.168445
    17  C   -0.126029
    18  H    0.160659
    19  C   -0.134635
    20  H    0.195124
    21  C   -0.127635
    22  H    0.162126
    23  N   -0.596552
    24  H    0.360319
    25  C   -0.091260
    26  H    0.200658
    27  C    0.605508
    28  C   -0.044728
    29  H    0.183841
    30  H    0.159023
    31  O   -0.525383
    32  O   -0.592135
    33  H    0.401301
    34  N   -0.595439
    35  H    0.343712
    36  C   -0.114158
    37  H    0.213694
    38  C    0.654208
    39  C   -0.093320
    40  H    0.244514
    41  H    0.166944
    42  O   -0.525276
    43  O   -0.672906
    44  H    0.430649
    45  N   -0.609392
    46  H    0.370258
    47  C   -0.064921
    48  H    0.206077
    49  C    0.616264
    50  C   -0.385274
    51  H    0.205802
    52  H    0.201831
    53  O   -0.546877
    54  C    0.605586
    55  O   -0.464560
    56  O   -0.555259
    57  N   -0.617007
    58  H    0.386774
    59  C   -0.045029
    60  H    0.201446
    61  C    0.581023
    62  C   -0.269751
    63  H    0.165202
    64  H    0.149338
    65  O   -0.453977
    66  C   -0.290384
    67  H    0.171237
    68  H    0.163198
    69  C   -0.166416
    70  H    0.162059
    71  H    0.161744
    72  N   -0.584671
    73  H    0.337304
    74  N   -0.761083
    75  H    0.326370
    76  H    0.333038
    77  N   -0.670765
    78  H    0.293196
    79  C    0.592013
    80  O   -0.564756
    81  H    0.427692
    82  H    0.422989
 Sum of Mulliken charges =   1.00000

 Dipole moment (field-independent basis, Debye):
    X=            -10.5260    Y=             -6.0057    Z=             -4.3620  Tot=             12.8800
 Quadrupole moment (field-independent basis, Debye-Ang):
   XX=           -151.6146   YY=           -213.3050   ZZ=           -201.5192
   XY=             30.5171   XZ=             25.8924   YZ=              8.8614

 Normal termination of Gaussian 16 at Mon May 16 06:35:40 2022.
