 Gaussian 16, Revision C.01,
 Gaussian 16:  ES64L-G16RevC.01  3-Jul-2019

 ----------------------------------------------------------------------
 # B3LYP/6-31G* empiricaldispersion=gd3 guess=read geom=check nosymm in
 tegral(ultrafinegrid)
 ----------------------------------------------------------------------

 ------------------------------------------------------
 Candidate Structure: Conf:883 Charge calc in gas phase
 ------------------------------------------------------
 Structure from the checkpoint file:  "conf-883.chk"
 Charge =  1 Multiplicity = 1

                          Input orientation:
 ---------------------------------------------------------------------
 Center     Atomic      Atomic             Coordinates (Angstroms)
 Number     Number       Type             X           Y           Z
 ---------------------------------------------------------------------
      1          7           0       -4.848190   -1.159770   -4.740070
      2          1           0       -4.040214   -1.581696   -4.213402
      3          1           0       -5.579640   -0.910670   -4.050187
      4          1           0       -5.211829   -1.827579   -5.423704
      5          6           0       -4.249741    0.087082   -5.351150
      6          1           0       -4.462200    0.080844   -6.422785
      7          6           0       -2.743411   -0.054237   -5.079440
      8          6           0       -4.826987    1.367935   -4.672637
      9          1           0       -4.092444    2.168699   -4.803630
     10          1           0       -5.734689    1.664956   -5.207667
     11          8           0       -2.387106   -0.887280   -4.240191
     12          6           0       -5.120714    1.116086   -3.211741
     13          6           0       -6.428822    0.804105   -2.799862
     14          1           0       -7.252816    0.873594   -3.508938
     15          6           0       -4.072221    1.068719   -2.278491
     16          1           0       -3.054668    1.311895   -2.577339
     17          6           0       -6.685324    0.455492   -1.469110
     18          1           0       -7.701083    0.233697   -1.155313
     19          6           0       -4.333429    0.715474   -0.955341
     20          1           0       -3.507682    0.667422   -0.251681
     21          6           0       -5.635317    0.406508   -0.548418
     22          1           0       -5.831665    0.132548    0.483881
     23          7           0       -1.931866    0.767767   -5.726724
     24          1           0       -2.250811    1.357428   -6.488648
     25          6           0       -0.531630    0.893280   -5.350302
     26          1           0        0.004457   -0.014171   -5.648233
     27          6           0       -0.501843    1.125599   -3.823148
     28          6           0        0.057274    2.116389   -6.063951
     29          1           0        1.149349    2.097046   -5.949592
     30          1           0       -0.333508    3.022166   -5.579479
     31          8           0       -1.276020    1.938763   -3.334866
     32          8           0       -0.343286    2.036353   -7.428443
     33          1           0       -0.026072    2.825937   -7.893313
     34          7           0        0.377981    0.391718   -3.129285
     35          1           0        1.086383   -0.179734   -3.582086
     36          6           0        0.499502    0.471712   -1.685283
     37          1           0        0.139602    1.450385   -1.356306
     38          6           0        1.977464    0.243213   -1.341840
     39          6           0       -0.369960   -0.634527   -1.031553
     40          1           0       -0.329865   -0.528135    0.057081
     41          1           0        0.061512   -1.614285   -1.291838
     42          8           0        2.720371   -0.338899   -2.136959
     43          8           0       -1.729968   -0.535094   -1.405792
     44          1           0       -1.805729   -0.744952   -2.351989
     45          7           0        2.362584    0.664491   -0.123809
     46          1           0        1.718668    1.089345    0.540322
     47          6           0        3.663295    0.345313    0.440640
     48          1           0        3.897451   -0.705041    0.235221
     49          6           0        3.519170    0.568447    1.965344
     50          6           0        4.766799    1.216286   -0.199813
     51          1           0        4.581456    1.266043   -1.278066
     52          1           0        4.736537    2.244699    0.177363
     53          8           0        2.486709    1.062275    2.424620
     54          6           0        6.161738    0.658067   -0.021473
     55          8           0        6.443214   -0.361886    0.579565
     56          8           0        7.078131    1.419549   -0.639945
     57          7           0        4.582427    0.204416    2.706883
     58          1           0        5.412596   -0.144707    2.231584
     59          6           0        4.698850    0.538909    4.116252
     60          1           0        3.937717    1.290671    4.346724
     61          6           0        6.074015    1.156378    4.344430
     62          6           0        4.483703   -0.678077    5.040958
     63          1           0        4.593322   -0.342007    6.077611
     64          1           0        5.273446   -1.418002    4.845457
     65          8           0        6.978753    1.159013    3.538753
     66          6           0        3.107420   -1.322871    4.859072
     67          1           0        3.012754   -1.722803    3.841740
     68          1           0        2.328084   -0.556738    4.965070
     69          6           0        2.862292   -2.458270    5.861577
     70          1           0        1.905564   -2.948873    5.631692
     71          1           0        3.638946   -3.221972    5.766762
     72          7           0        2.866133   -1.987596    7.249440
     73          1           0        1.976214   -1.629322    7.571781
     74          7           0        4.848655   -3.079724    7.841267
     75          1           0        5.377138   -3.418365    8.637957
     76          1           0        5.385849   -2.416515    7.291686
     77          7           0        3.270701   -2.718913    9.500503
     78          1           0        2.291425   -2.466074    9.647957
     79          6           0        3.607073   -2.592480    8.268537
     80          8           0        6.169658    1.682050    5.582425
     81          1           0        7.950259    1.013475   -0.470660
     82          1           0        7.076238    2.031449    5.677457
 ---------------------------------------------------------------------

 SCF Done:  E(RB3LYP) =  -2166.35615203     A.U. after    1 cycles

 Alpha  occ. eigenvalues --  -19.28147 -19.27141 -19.26745 -19.26461 -19.22967
 Alpha  occ. eigenvalues --  -19.22091 -19.21943 -19.20923 -19.20661 -19.19587
 Alpha  occ. eigenvalues --  -14.59520 -14.50915 -14.46577 -14.44538 -14.42887
 Alpha  occ. eigenvalues --  -14.39077 -14.37547 -14.31770 -10.44533 -10.41109
 Alpha  occ. eigenvalues --  -10.40203 -10.39703 -10.38886 -10.37796 -10.36678
 Alpha  occ. eigenvalues --  -10.35779 -10.35532 -10.33644 -10.32520 -10.32444
 Alpha  occ. eigenvalues --  -10.31984 -10.31494 -10.30954 -10.30533 -10.29956
 Alpha  occ. eigenvalues --  -10.29257 -10.28652 -10.28338 -10.28230 -10.28082
 Alpha  occ. eigenvalues --  -10.26894 -10.25250 -10.24087  -1.20765  -1.18341
 Alpha  occ. eigenvalues --   -1.17413  -1.15055  -1.13942  -1.13865  -1.12671
 Alpha  occ. eigenvalues --   -1.11364  -1.10536  -1.09360  -1.08530  -1.07531
 Alpha  occ. eigenvalues --   -1.03008  -1.01221  -1.00980  -0.99977  -0.96602
 Alpha  occ. eigenvalues --   -0.93174  -0.92416  -0.89529  -0.88146  -0.87643
 Alpha  occ. eigenvalues --   -0.85965  -0.85465  -0.84387  -0.84315  -0.80483
 Alpha  occ. eigenvalues --   -0.79231  -0.77696  -0.76593  -0.75146  -0.74315
 Alpha  occ. eigenvalues --   -0.73098  -0.72680  -0.72306  -0.70389  -0.69818
 Alpha  occ. eigenvalues --   -0.69291  -0.68902  -0.68363  -0.66253  -0.66126
 Alpha  occ. eigenvalues --   -0.65338  -0.65082  -0.64912  -0.63924  -0.63736
 Alpha  occ. eigenvalues --   -0.62756  -0.62063  -0.61588  -0.60133  -0.59320
 Alpha  occ. eigenvalues --   -0.58919  -0.58489  -0.57986  -0.57179  -0.56971
 Alpha  occ. eigenvalues --   -0.56458  -0.56054  -0.55872  -0.55766  -0.55102
 Alpha  occ. eigenvalues --   -0.55002  -0.54489  -0.54319  -0.53682  -0.53450
 Alpha  occ. eigenvalues --   -0.53249  -0.52870  -0.52415  -0.52183  -0.51836
 Alpha  occ. eigenvalues --   -0.51568  -0.51468  -0.51035  -0.50854  -0.50633
 Alpha  occ. eigenvalues --   -0.50540  -0.49393  -0.49144  -0.48798  -0.48656
 Alpha  occ. eigenvalues --   -0.47959  -0.47565  -0.47441  -0.46576  -0.46311
 Alpha  occ. eigenvalues --   -0.46267  -0.45943  -0.45552  -0.45059  -0.44343
 Alpha  occ. eigenvalues --   -0.44135  -0.43779  -0.43487  -0.42702  -0.42421
 Alpha  occ. eigenvalues --   -0.41648  -0.40991  -0.40716  -0.40220  -0.39553
 Alpha  occ. eigenvalues --   -0.39240  -0.39231  -0.38543  -0.37659  -0.36743
 Alpha  occ. eigenvalues --   -0.35858  -0.35451  -0.35315  -0.34867  -0.34612
 Alpha  occ. eigenvalues --   -0.34488  -0.33751  -0.33389  -0.32649  -0.30008
 Alpha  occ. eigenvalues --   -0.29157  -0.26055
 Alpha virt. eigenvalues --   -0.13730  -0.11392  -0.11014  -0.09644  -0.09270
 Alpha virt. eigenvalues --   -0.06972  -0.06793  -0.05852  -0.05018  -0.04862
 Alpha virt. eigenvalues --   -0.03720  -0.02159  -0.01838  -0.00900  -0.00603

 Mulliken charges:
               1
     1  N   -0.758319
     2  H    0.433545
     3  H    0.408961
     4  H    0.410384
     5  C   -0.106025
     6  H    0.210340
     7  C    0.681023
     8  C   -0.378736
     9  H    0.215147
    10  H    0.186923
    11  O   -0.561286
    12  C    0.083873
    13  C   -0.236084
    14  H    0.144393
    15  C   -0.203518
    16  H    0.226198
    17  C   -0.119206
    18  H    0.160097
    19  C   -0.109225
    20  H    0.173638
    21  C   -0.132113
    22  H    0.160994
    23  N   -0.586560
    24  H    0.368731
    25  C   -0.032256
    26  H    0.187832
    27  C    0.607982
    28  C   -0.071862
    29  H    0.172170
    30  H    0.174327
    31  O   -0.524374
    32  O   -0.631169
    33  H    0.423238
    34  N   -0.604724
    35  H    0.359566
    36  C   -0.085111
    37  H    0.194246
    38  C    0.625834
    39  C   -0.034230
    40  H    0.165183
    41  H    0.145050
    42  O   -0.545742
    43  O   -0.639106
    44  H    0.437727
    45  N   -0.628139
    46  H    0.364003
    47  C   -0.043917
    48  H    0.204597
    49  C    0.602394
    50  C   -0.369094
    51  H    0.218477
    52  H    0.199643
    53  O   -0.541769
    54  C    0.613950
    55  O   -0.474996
    56  O   -0.555040
    57  N   -0.618055
    58  H    0.394082
    59  C   -0.060529
    60  H    0.204744
    61  C    0.581356
    62  C   -0.273988
    63  H    0.180758
    64  H    0.142721
    65  O   -0.462835
    66  C   -0.252114
    67  H    0.137572
    68  H    0.149358
    69  C   -0.155502
    70  H    0.143614
    71  H    0.182130
    72  N   -0.592842
    73  H    0.312880
    74  N   -0.740327
    75  H    0.340780
    76  H    0.319661
    77  N   -0.630381
    78  H    0.262182
    79  C    0.556104
    80  O   -0.558903
    81  H    0.427038
    82  H    0.422631
 Sum of Mulliken charges =   1.00000

 Dipole moment (field-independent basis, Debye):
    X=            -11.6857    Y=              2.1332    Z=            -21.9930  Tot=             24.9959
 Quadrupole moment (field-independent basis, Debye-Ang):
   XX=           -111.4735   YY=           -240.6340   ZZ=           -132.5377
   XY=             32.5662   XZ=             85.4314   YZ=              6.6382

 Normal termination of Gaussian 16 at Mon May 16 06:35:19 2022.
