 Gaussian 16, Revision C.01,
 Gaussian 16:  ES64L-G16RevC.01  3-Jul-2019

 ----------------------------------------------------------------------
 # B3LYP/6-31G* empiricaldispersion=gd3 guess=read geom=check nosymm in
 tegral(ultrafinegrid)
 ----------------------------------------------------------------------

 ------------------------------------------------------
 Candidate Structure: Conf:197 Charge calc in gas phase
 ------------------------------------------------------
 Structure from the checkpoint file:  "conf-197.chk"
 Charge =  1 Multiplicity = 1

                          Input orientation:
 ---------------------------------------------------------------------
 Center     Atomic      Atomic             Coordinates (Angstroms)
 Number     Number       Type             X           Y           Z
 ---------------------------------------------------------------------
      1          7           0       -5.670703   -0.752687   -3.076330
      2          1           0       -6.523833   -1.078688   -3.535272
      3          1           0       -5.195593   -1.531433   -2.542365
      4          1           0       -5.902365    0.008233   -2.415359
      5          6           0       -4.593349   -0.283482   -4.027023
      6          1           0       -4.816863   -0.709029   -5.010342
      7          6           0       -3.319126   -0.984941   -3.476897
      8          6           0       -4.559805    1.260014   -4.093985
      9          1           0       -3.655703    1.552382   -4.637992
     10          1           0       -5.404314    1.596785   -4.705323
     11          8           0       -3.463601   -1.857275   -2.614944
     12          6           0       -4.613719    1.905304   -2.723360
     13          6           0       -5.813220    2.481824   -2.273156
     14          1           0       -6.674448    2.529160   -2.937792
     15          6           0       -3.501008    1.884559   -1.867597
     16          1           0       -2.574949    1.406599   -2.171269
     17          6           0       -5.896593    3.039550   -0.993505
     18          1           0       -6.825631    3.494192   -0.662740
     19          6           0       -3.587085    2.447667   -0.594734
     20          1           0       -2.710955    2.441726    0.044479
     21          6           0       -4.781705    3.025202   -0.155139
     22          1           0       -4.841275    3.465205    0.835779
     23          7           0       -2.153312   -0.604437   -4.000222
     24          1           0       -2.111564   -0.014793   -4.825078
     25          6           0       -0.881414   -1.219761   -3.642954
     26          1           0       -0.876622   -2.258586   -3.994477
     27          6           0       -0.645915   -1.171539   -2.120532
     28          6           0        0.228605   -0.424394   -4.348949
     29          1           0        1.170397   -0.982325   -4.263703
     30          1           0        0.353094    0.546971   -3.855999
     31          8           0       -1.147017   -0.300566   -1.407371
     32          8           0       -0.186986   -0.279969   -5.706740
     33          1           0        0.444729    0.298774   -6.160752
     34          7           0        0.189765   -2.127619   -1.673445
     35          1           0        0.667739   -2.760015   -2.309268
     36          6           0        0.657289   -2.212587   -0.291445
     37          1           0       -0.198727   -2.062055    0.375065
     38          6           0        1.720139   -1.123664   -0.047412
     39          6           0        1.267562   -3.610554   -0.094023
     40          1           0        0.476376   -4.363953   -0.149978
     41          1           0        1.731599   -3.665212    0.899451
     42          8           0        2.927399   -1.362311   -0.172774
     43          8           0        2.186761   -3.898437   -1.133696
     44          1           0        2.927564   -3.275784   -0.999899
     45          7           0        1.229147    0.086769    0.286342
     46          1           0        0.224123    0.205112    0.205888
     47          6           0        2.070401    1.288727    0.342436
     48          1           0        2.829043    1.194619   -0.441844
     49          6           0        2.756752    1.398900    1.727070
     50          6           0        1.208322    2.523217    0.103666
     51          1           0        0.440429    2.615562    0.876787
     52          1           0        1.826685    3.421986    0.208614
     53          8           0        2.407555    2.242504    2.548332
     54          6           0        0.580028    2.543853   -1.269674
     55          8           0        1.005024    1.979041   -2.256284
     56          8           0       -0.536048    3.307354   -1.282406
     57          7           0        3.742195    0.497300    1.937874
     58          1           0        3.930743   -0.227858    1.247926
     59          6           0        4.408320    0.405724    3.228447
     60          1           0        4.632838    1.416850    3.580633
     61          6           0        5.705071   -0.358948    3.014093
     62          6           0        3.505324   -0.297343    4.273600
     63          1           0        3.326622   -1.327617    3.937810
     64          1           0        2.545867    0.230592    4.239221
     65          8           0        5.890161   -1.156159    2.120643
     66          6           0        4.040799   -0.280448    5.708594
     67          1           0        4.254293    0.750621    6.016324
     68          1           0        4.989978   -0.827470    5.766241
     69          6           0        3.033563   -0.894143    6.682885
     70          1           0        2.096606   -0.324398    6.644760
     71          1           0        2.793307   -1.925962    6.368429
     72          7           0        3.533726   -0.842378    8.046570
     73          1           0        4.503291   -1.125285    8.144105
     74          7           0        3.433227   -1.318646   10.309195
     75          1           0        2.809990   -1.537388   11.078625
     76          1           0        3.969487   -0.476148   10.490560
     77          7           0        1.502635   -1.663961    9.062568
     78          1           0        1.158298   -1.740457    8.105786
     79          6           0        2.730723   -1.294259    9.099509
     80          8           0        6.619305   -0.075180    3.963616
     81          1           0       -0.873291    3.319734   -2.197321
     82          1           0        7.400624   -0.632758    3.782362
 ---------------------------------------------------------------------

 SCF Done:  E(RB3LYP) =  -2166.36302298     A.U. after    1 cycles

 Alpha  occ. eigenvalues --  -19.29335 -19.27578 -19.26830 -19.26798 -19.23762
 Alpha  occ. eigenvalues --  -19.23262 -19.22690 -19.21970 -19.21099 -19.18576
 Alpha  occ. eigenvalues --  -14.59983 -14.50582 -14.47331 -14.45782 -14.42454
 Alpha  occ. eigenvalues --  -14.38811 -14.37043 -14.31825 -10.44366 -10.41856
 Alpha  occ. eigenvalues --  -10.41563 -10.40554 -10.39082 -10.38592 -10.35944
 Alpha  occ. eigenvalues --  -10.35863 -10.35048 -10.34914 -10.33325 -10.32424
 Alpha  occ. eigenvalues --  -10.32380 -10.32373 -10.31217 -10.31171 -10.30559
 Alpha  occ. eigenvalues --  -10.30408 -10.30134 -10.30019 -10.29929 -10.29181
 Alpha  occ. eigenvalues --  -10.27116 -10.25659 -10.24613  -1.20160  -1.20063
 Alpha  occ. eigenvalues --   -1.17694  -1.15328  -1.14248  -1.13932  -1.13597
 Alpha  occ. eigenvalues --   -1.11213  -1.10575  -1.10131  -1.08746  -1.07109
 Alpha  occ. eigenvalues --   -1.03628  -1.02212  -1.00916  -0.99329  -0.97875
 Alpha  occ. eigenvalues --   -0.93830  -0.92430  -0.90026  -0.88544  -0.87298
 Alpha  occ. eigenvalues --   -0.86746  -0.86124  -0.85849  -0.84768  -0.80947
 Alpha  occ. eigenvalues --   -0.80431  -0.78149  -0.76362  -0.75023  -0.74802
 Alpha  occ. eigenvalues --   -0.73305  -0.73079  -0.72648  -0.71802  -0.70640
 Alpha  occ. eigenvalues --   -0.70398  -0.69992  -0.68095  -0.67612  -0.66062
 Alpha  occ. eigenvalues --   -0.65832  -0.65051  -0.64445  -0.63820  -0.62767
 Alpha  occ. eigenvalues --   -0.61817  -0.61676  -0.61386  -0.60935  -0.60257
 Alpha  occ. eigenvalues --   -0.59596  -0.58900  -0.58644  -0.57792  -0.57628
 Alpha  occ. eigenvalues --   -0.57299  -0.57153  -0.56967  -0.56209  -0.56028
 Alpha  occ. eigenvalues --   -0.55385  -0.54920  -0.54781  -0.54470  -0.54311
 Alpha  occ. eigenvalues --   -0.54065  -0.53298  -0.52904  -0.52760  -0.52476
 Alpha  occ. eigenvalues --   -0.52208  -0.51761  -0.51700  -0.51489  -0.50969
 Alpha  occ. eigenvalues --   -0.50787  -0.49859  -0.49761  -0.49069  -0.48494
 Alpha  occ. eigenvalues --   -0.48289  -0.47757  -0.47624  -0.47601  -0.47127
 Alpha  occ. eigenvalues --   -0.46674  -0.46095  -0.45846  -0.45654  -0.45420
 Alpha  occ. eigenvalues --   -0.45361  -0.44320  -0.44040  -0.42360  -0.41973
 Alpha  occ. eigenvalues --   -0.41889  -0.41624  -0.41163  -0.40856  -0.40474
 Alpha  occ. eigenvalues --   -0.39316  -0.39286  -0.38546  -0.38373  -0.37649
 Alpha  occ. eigenvalues --   -0.37266  -0.36700  -0.36395  -0.36283  -0.36107
 Alpha  occ. eigenvalues --   -0.34828  -0.34139  -0.32178  -0.31712  -0.29598
 Alpha  occ. eigenvalues --   -0.28991  -0.26495
 Alpha virt. eigenvalues --   -0.13781  -0.12772  -0.11971  -0.09870  -0.09453
 Alpha virt. eigenvalues --   -0.09030  -0.07607  -0.06344  -0.05616  -0.04718
 Alpha virt. eigenvalues --   -0.04374  -0.03020  -0.02514  -0.02028  -0.01453

 Mulliken charges:
               1
     1  N   -0.753921
     2  H    0.412047
     3  H    0.434220
     4  H    0.409520
     5  C   -0.118119
     6  H    0.226904
     7  C    0.679559
     8  C   -0.373772
     9  H    0.191364
    10  H    0.188130
    11  O   -0.528516
    12  C    0.099021
    13  C   -0.217878
    14  H    0.145152
    15  C   -0.199531
    16  H    0.176649
    17  C   -0.119866
    18  H    0.166501
    19  C   -0.125457
    20  H    0.169326
    21  C   -0.123621
    22  H    0.168690
    23  N   -0.616971
    24  H    0.369504
    25  C   -0.050683
    26  H    0.192484
    27  C    0.666965
    28  C   -0.092227
    29  H    0.166599
    30  H    0.205469
    31  O   -0.551809
    32  O   -0.635269
    33  H    0.423816
    34  N   -0.599690
    35  H    0.362047
    36  C   -0.087091
    37  H    0.182447
    38  C    0.640502
    39  C   -0.058147
    40  H    0.168194
    41  H    0.165510
    42  O   -0.546903
    43  O   -0.630633
    44  H    0.428156
    45  N   -0.603335
    46  H    0.366220
    47  C   -0.056222
    48  H    0.200184
    49  C    0.640519
    50  C   -0.397089
    51  H    0.203033
    52  H    0.225945
    53  O   -0.530426
    54  C    0.598706
    55  O   -0.470082
    56  O   -0.558490
    57  N   -0.642708
    58  H    0.388678
    59  C   -0.019032
    60  H    0.196282
    61  C    0.576306
    62  C   -0.279950
    63  H    0.143085
    64  H    0.175362
    65  O   -0.458644
    66  C   -0.289444
    67  H    0.163976
    68  H    0.147567
    69  C   -0.118331
    70  H    0.157013
    71  H    0.134083
    72  N   -0.606995
    73  H    0.320963
    74  N   -0.752068
    75  H    0.337332
    76  H    0.320134
    77  N   -0.647153
    78  H    0.273079
    79  C    0.580778
    80  O   -0.558124
    81  H    0.408944
    82  H    0.421232
 Sum of Mulliken charges =   1.00000

 Dipole moment (field-independent basis, Debye):
    X=            -15.5472    Y=              1.5514    Z=            -15.6387  Tot=             22.1064
 Quadrupole moment (field-independent basis, Debye-Ang):
   XX=            -97.7746   YY=           -244.8280   ZZ=           -182.7957
   XY=             -0.8001   XZ=             93.1291   YZ=              3.9722

 Normal termination of Gaussian 16 at Mon May 16 06:35:32 2022.
