 Gaussian 16, Revision C.01,
 Gaussian 16:  ES64L-G16RevC.01  3-Jul-2019

 ----------------------------------------------------------------------
 # B3LYP/6-31G* empiricaldispersion=gd3 guess=read geom=check nosymm in
 tegral(ultrafinegrid)
 ----------------------------------------------------------------------

 ------------------------------------------------------
 Candidate Structure: Conf:564 Charge calc in gas phase
 ------------------------------------------------------
 Structure from the checkpoint file:  "conf-564.chk"
 Charge =  1 Multiplicity = 1

                          Input orientation:
 ---------------------------------------------------------------------
 Center     Atomic      Atomic             Coordinates (Angstroms)
 Number     Number       Type             X           Y           Z
 ---------------------------------------------------------------------
      1          7           0       -5.891781   -0.194853   -1.584653
      2          1           0       -6.743701   -0.092946   -2.141288
      3          1           0       -5.414898   -1.132098   -1.810330
      4          1           0       -6.139814   -0.147759   -0.592539
      5          6           0       -4.788458    0.777165   -1.962477
      6          1           0       -5.174686    1.441139   -2.738879
      7          6           0       -3.710342   -0.170750   -2.561908
      8          6           0       -4.337263    1.599197   -0.731337
      9          1           0       -5.201809    2.180150   -0.382740
     10          1           0       -4.050795    0.903313    0.065992
     11          8           0       -3.928039   -1.390035   -2.512314
     12          6           0       -3.167519    2.504574   -1.057892
     13          6           0       -1.905403    2.240164   -0.512870
     14          1           0       -1.770399    1.426887    0.190130
     15          6           0       -3.308863    3.543033   -1.993627
     16          1           0       -4.288246    3.774739   -2.409258
     17          6           0       -0.794731    2.977664   -0.919601
     18          1           0        0.166959    2.758665   -0.476046
     19          6           0       -2.193609    4.276249   -2.406328
     20          1           0       -2.310732    5.070962   -3.137300
     21          6           0       -0.930473    3.985931   -1.878225
     22          1           0       -0.057268    4.551825   -2.187378
     23          7           0       -2.654412    0.400743   -3.135672
     24          1           0       -2.523222    1.394318   -2.979980
     25          6           0       -1.461853   -0.366910   -3.466995
     26          1           0       -1.734793   -1.163697   -4.165210
     27          6           0       -0.903031   -1.020031   -2.179912
     28          6           0       -0.447255    0.593259   -4.141243
     29          1           0       -0.357031    1.497177   -3.524248
     30          1           0       -0.852072    0.881220   -5.119317
     31          8           0       -1.288646   -0.687329   -1.054475
     32          8           0        0.805361   -0.021415   -4.317625
     33          1           0        1.386989    0.357480   -3.628215
     34          7           0       -0.000703   -1.991429   -2.403305
     35          1           0        0.415036   -2.097726   -3.324884
     36          6           0        0.623674   -2.751373   -1.327314
     37          1           0       -0.095182   -2.811893   -0.503703
     38          6           0        1.895372   -2.025227   -0.850689
     39          6           0        0.975899   -4.147430   -1.860290
     40          1           0        0.053121   -4.670414   -2.127691
     41          1           0        1.485825   -4.717761   -1.072315
     42          8           0        3.023520   -2.462161   -1.094403
     43          8           0        1.753888   -4.050480   -3.040432
     44          1           0        2.617212   -3.704907   -2.747569
     45          7           0        1.702268   -0.861218   -0.183435
     46          1           0        0.769748   -0.475566   -0.054624
     47          6           0        2.842777   -0.067147    0.212034
     48          1           0        3.591657   -0.734484    0.651217
     49          6           0        2.413386    1.021892    1.195636
     50          6           0        3.536163    0.640879   -1.009395
     51          1           0        4.511077    1.022604   -0.695535
     52          1           0        3.673635   -0.107044   -1.791359
     53          8           0        1.263681    1.453856    1.211513
     54          6           0        2.680179    1.784053   -1.507896
     55          8           0        1.777378    1.673096   -2.323731
     56          8           0        2.982922    2.923607   -0.883357
     57          7           0        3.438210    1.558632    1.917345
     58          1           0        4.359865    1.159014    1.766982
     59          6           0        3.477649    2.995962    2.166266
     60          1           0        2.691477    3.437028    1.555607
     61          6           0        4.795062    3.501429    1.591498
     62          6           0        3.273300    3.424845    3.645695
     63          1           0        3.972995    4.227091    3.909728
     64          1           0        3.532305    2.566267    4.272810
     65          8           0        5.712084    2.808899    1.213405
     66          6           0        1.827394    3.879885    3.927913
     67          1           0        1.590039    3.721736    4.986877
     68          1           0        1.131590    3.266623    3.342753
     69          6           0        1.593397    5.376178    3.625070
     70          1           0        0.554209    5.641804    3.844219
     71          1           0        2.206734    5.984787    4.298734
     72          7           0        1.936484    5.815899    2.263776
     73          1           0        2.933548    5.908950    2.110591
     74          7           0       -0.079741    5.134823    1.320980
     75          1           0       -0.599261    5.038305    0.459013
     76          1           0       -0.551851    5.699342    2.014358
     77          7           0        1.802187    5.227926   -0.042771
     78          1           0        2.804213    5.418640    0.016176
     79          6           0        1.259792    5.396784    1.131954
     80          8           0        4.830795    4.857511    1.548531
     81          1           0        2.296963    3.648212   -0.960382
     82          1           0        5.700321    5.113413    1.183946
 ---------------------------------------------------------------------

 SCF Done:  E(RB3LYP) =  -2166.40045005     A.U. after    1 cycles

 Alpha  occ. eigenvalues --  -19.30055 -19.27048 -19.26732 -19.24091 -19.23085
 Alpha  occ. eigenvalues --  -19.22003 -19.21659 -19.21092 -19.20590 -19.20341
 Alpha  occ. eigenvalues --  -14.59694 -14.48892 -14.44788 -14.44659 -14.44288
 Alpha  occ. eigenvalues --  -14.43071 -14.42507 -14.37447 -10.43174 -10.41906
 Alpha  occ. eigenvalues --  -10.40993 -10.40765 -10.38358 -10.37990 -10.37137
 Alpha  occ. eigenvalues --  -10.37132 -10.34059 -10.33290 -10.33170 -10.32497
 Alpha  occ. eigenvalues --  -10.32451 -10.31208 -10.30997 -10.30533 -10.30322
 Alpha  occ. eigenvalues --  -10.29878 -10.29250 -10.28634 -10.28613 -10.28485
 Alpha  occ. eigenvalues --  -10.27964 -10.27568 -10.26421  -1.20601  -1.19219
 Alpha  occ. eigenvalues --   -1.18429  -1.13681  -1.13431  -1.12853  -1.12023
 Alpha  occ. eigenvalues --   -1.11731  -1.10241  -1.09498  -1.08133  -1.06159
 Alpha  occ. eigenvalues --   -1.05898  -1.01966  -1.01491  -1.00586  -0.96922
 Alpha  occ. eigenvalues --   -0.96728  -0.92889  -0.92684  -0.89109  -0.87487
 Alpha  occ. eigenvalues --   -0.86677  -0.85086  -0.84497  -0.82933  -0.82708
 Alpha  occ. eigenvalues --   -0.79580  -0.78020  -0.76089  -0.74485  -0.73825
 Alpha  occ. eigenvalues --   -0.72606  -0.72363  -0.71895  -0.71035  -0.70592
 Alpha  occ. eigenvalues --   -0.69646  -0.69298  -0.68239  -0.67845  -0.67288
 Alpha  occ. eigenvalues --   -0.66971  -0.66345  -0.65280  -0.63518  -0.63376
 Alpha  occ. eigenvalues --   -0.62639  -0.61477  -0.61011  -0.60920  -0.59420
 Alpha  occ. eigenvalues --   -0.59215  -0.58570  -0.58196  -0.57806  -0.57417
 Alpha  occ. eigenvalues --   -0.57269  -0.56709  -0.56184  -0.55858  -0.55713
 Alpha  occ. eigenvalues --   -0.55594  -0.55337  -0.55020  -0.54597  -0.53808
 Alpha  occ. eigenvalues --   -0.53694  -0.53429  -0.52872  -0.52427  -0.52175
 Alpha  occ. eigenvalues --   -0.51986  -0.51658  -0.51394  -0.51097  -0.50664
 Alpha  occ. eigenvalues --   -0.50577  -0.50382  -0.49949  -0.49376  -0.49094
 Alpha  occ. eigenvalues --   -0.48966  -0.48409  -0.48135  -0.47898  -0.47055
 Alpha  occ. eigenvalues --   -0.46918  -0.46225  -0.45994  -0.45719  -0.45410
 Alpha  occ. eigenvalues --   -0.44418  -0.44257  -0.43902  -0.43481  -0.42822
 Alpha  occ. eigenvalues --   -0.42122  -0.41844  -0.41655  -0.41135  -0.40233
 Alpha  occ. eigenvalues --   -0.40145  -0.39467  -0.37618  -0.36956  -0.36736
 Alpha  occ. eigenvalues --   -0.36378  -0.36044  -0.35702  -0.35039  -0.35013
 Alpha  occ. eigenvalues --   -0.34673  -0.34296  -0.34043  -0.33776  -0.33680
 Alpha  occ. eigenvalues --   -0.32053  -0.30755
 Alpha virt. eigenvalues --   -0.12468  -0.11171  -0.10941  -0.10342  -0.08990
 Alpha virt. eigenvalues --   -0.08730  -0.07712  -0.07699  -0.06114  -0.05803
 Alpha virt. eigenvalues --   -0.04052  -0.03139  -0.02441  -0.00953  -0.00488

 Mulliken charges:
               1
     1  N   -0.765096
     2  H    0.414926
     3  H    0.437886
     4  H    0.413532
     5  C   -0.119806
     6  H    0.219571
     7  C    0.674168
     8  C   -0.360234
     9  H    0.180698
    10  H    0.190368
    11  O   -0.538824
    12  C    0.095836
    13  C   -0.157462
    14  H    0.177778
    15  C   -0.206750
    16  H    0.132362
    17  C   -0.148411
    18  H    0.194271
    19  C   -0.133264
    20  H    0.160851
    21  C   -0.156501
    22  H    0.179315
    23  N   -0.595396
    24  H    0.375188
    25  C   -0.082818
    26  H    0.202272
    27  C    0.640875
    28  C   -0.063214
    29  H    0.169334
    30  H    0.162712
    31  O   -0.567010
    32  O   -0.642575
    33  H    0.434811
    34  N   -0.580867
    35  H    0.371059
    36  C   -0.093079
    37  H    0.184021
    38  C    0.633080
    39  C   -0.041170
    40  H    0.159961
    41  H    0.155831
    42  O   -0.540534
    43  O   -0.629416
    44  H    0.420720
    45  N   -0.618257
    46  H    0.375116
    47  C   -0.063022
    48  H    0.198230
    49  C    0.611255
    50  C   -0.353823
    51  H    0.195190
    52  H    0.211082
    53  O   -0.521548
    54  C    0.605511
    55  O   -0.498665
    56  O   -0.598479
    57  N   -0.589490
    58  H    0.354118
    59  C   -0.057456
    60  H    0.213540
    61  C    0.596701
    62  C   -0.283661
    63  H    0.157759
    64  H    0.175118
    65  O   -0.457306
    66  C   -0.284585
    67  H    0.152134
    68  H    0.186487
    69  C   -0.154437
    70  H    0.151630
    71  H    0.166020
    72  N   -0.596993
    73  H    0.348696
    74  N   -0.743969
    75  H    0.355071
    76  H    0.337590
    77  N   -0.733680
    78  H    0.292676
    79  C    0.608289
    80  O   -0.583784
    81  H    0.455135
    82  H    0.432806
 Sum of Mulliken charges =   1.00000

 Dipole moment (field-independent basis, Debye):
    X=            -14.4699    Y=             10.7601    Z=             -0.1509  Tot=             18.0328
 Quadrupole moment (field-independent basis, Debye-Ang):
   XX=           -100.8525   YY=           -200.8205   ZZ=           -224.7133
   XY=             17.0452   XZ=             49.4689   YZ=              7.5421

 Normal termination of Gaussian 16 at Mon May 16 06:35:30 2022.
