 Gaussian 16, Revision C.01,
 Gaussian 16:  ES64L-G16RevC.01  3-Jul-2019

 ----------------------------------------------------------------------
 # B3LYP/6-31G* empiricaldispersion=gd3 guess=read geom=check nosymm in
 tegral(ultrafinegrid)
 ----------------------------------------------------------------------

 ------------------------------------------------------
 Candidate Structure: Conf:472 Charge calc in gas phase
 ------------------------------------------------------
 Structure from the checkpoint file:  "conf-472.chk"
 Charge =  1 Multiplicity = 1

                          Input orientation:
 ---------------------------------------------------------------------
 Center     Atomic      Atomic             Coordinates (Angstroms)
 Number     Number       Type             X           Y           Z
 ---------------------------------------------------------------------
      1          7           0       -3.906724   -3.371870   -4.998294
      2          1           0       -3.239488   -3.462416   -5.769653
      3          1           0       -3.609146   -4.029429   -4.210114
      4          1           0       -4.843603   -3.596411   -5.344463
      5          6           0       -3.833153   -2.029456   -4.294087
      6          1           0       -3.338008   -1.313767   -4.952982
      7          6           0       -2.968861   -2.363712   -3.048439
      8          6           0       -5.255381   -1.546089   -3.931390
      9          1           0       -5.826584   -1.441344   -4.864018
     10          1           0       -5.742713   -2.320002   -3.325493
     11          8           0       -2.852866   -3.566441   -2.750207
     12          6           0       -5.219381   -0.232852   -3.179775
     13          6           0       -5.480707   -0.192603   -1.805450
     14          1           0       -5.763410   -1.103084   -1.282280
     15          6           0       -4.851610    0.946018   -3.842626
     16          1           0       -4.660813    0.931248   -4.914445
     17          6           0       -5.373397    1.007639   -1.103159
     18          1           0       -5.577882    1.027418   -0.036927
     19          6           0       -4.735665    2.144327   -3.137962
     20          1           0       -4.444128    3.051051   -3.659034
     21          6           0       -4.994230    2.174939   -1.766635
     22          1           0       -4.896858    3.106108   -1.217391
     23          7           0       -2.439634   -1.343445   -2.394727
     24          1           0       -2.627097   -0.371617   -2.654723
     25          6           0       -1.698643   -1.462628   -1.144770
     26          1           0       -2.200584   -2.171737   -0.478923
     27          6           0       -1.674045   -0.048741   -0.550236
     28          6           0       -0.247189   -1.973382   -1.402841
     29          1           0        0.242206   -1.281638   -2.100761
     30          1           0       -0.327795   -2.958281   -1.873403
     31          8           0       -1.957277    0.927039   -1.243459
     32          8           0        0.476863   -2.115116   -0.203678
     33          1           0        0.904782   -1.250723   -0.029862
     34          7           0       -1.289037    0.019747    0.746652
     35          1           0       -0.890744   -0.822376    1.157387
     36          6           0       -0.678135    1.233452    1.255408
     37          1           0       -1.338964    2.084677    1.065289
     38          6           0        0.670767    1.461783    0.528221
     39          6           0       -0.450271    1.039994    2.762852
     40          1           0       -1.431056    0.966804    3.257578
     41          1           0        0.069003    1.919925    3.178989
     42          8           0        1.139285    0.619657   -0.250107
     43          8           0        0.305069   -0.137401    2.898646
     44          1           0        0.320211   -0.412120    3.861145
     45          7           0        1.317700    2.607971    0.812279
     46          1           0        0.935139    3.228263    1.514146
     47          6           0        2.656041    2.920464    0.284889
     48          1           0        2.680948    2.520785   -0.732466
     49          6           0        3.733406    2.225546    1.157951
     50          6           0        2.871886    4.426585    0.249804
     51          1           0        2.707086    4.882495    1.231871
     52          1           0        3.923197    4.633627    0.021129
     53          8           0        4.503817    2.861024    1.869862
     54          6           0        2.010224    5.101324   -0.796831
     55          8           0        1.443027    4.542639   -1.709777
     56          8           0        1.965379    6.437954   -0.600084
     57          7           0        3.697417    0.873152    1.072867
     58          1           0        2.972926    0.453061    0.498618
     59          6           0        4.406024    0.007324    2.007726
     60          1           0        5.477420    0.228331    1.971894
     61          6           0        4.225620   -1.453351    1.616974
     62          6           0        3.890862    0.206113    3.459161
     63          1           0        2.846351   -0.121135    3.488187
     64          1           0        3.893938    1.283568    3.645319
     65          8           0        4.943693   -2.352713    1.987066
     66          6           0        4.745621   -0.490731    4.524160
     67          1           0        5.783793   -0.140788    4.442775
     68          1           0        4.775859   -1.572896    4.349696
     69          6           0        4.267188   -0.222204    5.959490
     70          1           0        4.978215   -0.647081    6.675488
     71          1           0        4.234756    0.853559    6.153486
     72          7           0        2.950242   -0.804812    6.265121
     73          1           0        2.947846   -1.816305    6.199064
     74          7           0        1.712830    1.137670    5.833976
     75          1           0        0.758822    1.475721    5.799619
     76          1           0        2.255975    1.603804    6.550278
     77          7           0        0.693576   -0.901412    5.489813
     78          1           0        0.866645   -1.906122    5.450994
     79          6           0        1.756290   -0.248894    5.857321
     80          8           0        3.110057   -1.649407    0.871386
     81          1           0        1.440103    6.814252   -1.331688
     82          1           0        3.000580   -2.604356    0.706491
 ---------------------------------------------------------------------

 SCF Done:  E(RB3LYP) =  -2166.38351429     A.U. after    1 cycles

 Alpha  occ. eigenvalues --  -19.26737 -19.26516 -19.26344 -19.22031 -19.21607
 Alpha  occ. eigenvalues --  -19.21360 -19.20793 -19.20644 -19.20604 -19.18135
 Alpha  occ. eigenvalues --  -14.60067 -14.48952 -14.45839 -14.44265 -14.42707
 Alpha  occ. eigenvalues --  -14.42162 -14.41822 -14.36683 -10.43160 -10.40777
 Alpha  occ. eigenvalues --  -10.39077 -10.38930 -10.38307 -10.38093 -10.36511
 Alpha  occ. eigenvalues --  -10.35263 -10.34153 -10.33279 -10.32325 -10.32212
 Alpha  occ. eigenvalues --  -10.32050 -10.31397 -10.30751 -10.30353 -10.29347
 Alpha  occ. eigenvalues --  -10.29324 -10.29107 -10.28618 -10.28524 -10.28340
 Alpha  occ. eigenvalues --  -10.27643 -10.24886 -10.24781  -1.19009  -1.17386
 Alpha  occ. eigenvalues --   -1.17265  -1.14097  -1.13682  -1.12745  -1.09951
 Alpha  occ. eigenvalues --   -1.09682  -1.08591  -1.08438  -1.08346  -1.05616
 Alpha  occ. eigenvalues --   -1.05563  -1.01925  -1.01263  -0.98949  -0.96645
 Alpha  occ. eigenvalues --   -0.96443  -0.92670  -0.92144  -0.88085  -0.87100
 Alpha  occ. eigenvalues --   -0.85859  -0.84961  -0.84346  -0.83079  -0.81185
 Alpha  occ. eigenvalues --   -0.79481  -0.76783  -0.75260  -0.74432  -0.73834
 Alpha  occ. eigenvalues --   -0.73126  -0.72455  -0.70744  -0.70368  -0.69320
 Alpha  occ. eigenvalues --   -0.68677  -0.68258  -0.67937  -0.67582  -0.66721
 Alpha  occ. eigenvalues --   -0.65838  -0.65615  -0.64521  -0.62983  -0.62912
 Alpha  occ. eigenvalues --   -0.62191  -0.61098  -0.60830  -0.60730  -0.59398
 Alpha  occ. eigenvalues --   -0.58393  -0.57803  -0.57498  -0.56880  -0.56725
 Alpha  occ. eigenvalues --   -0.55887  -0.55717  -0.55561  -0.54990  -0.54924
 Alpha  occ. eigenvalues --   -0.54555  -0.54338  -0.53932  -0.53511  -0.53321
 Alpha  occ. eigenvalues --   -0.53280  -0.52619  -0.52370  -0.51969  -0.51886
 Alpha  occ. eigenvalues --   -0.51510  -0.51449  -0.51396  -0.50530  -0.50298
 Alpha  occ. eigenvalues --   -0.49709  -0.49605  -0.49343  -0.48981  -0.48215
 Alpha  occ. eigenvalues --   -0.47861  -0.46907  -0.46509  -0.46276  -0.45923
 Alpha  occ. eigenvalues --   -0.45772  -0.45342  -0.45184  -0.44602  -0.44446
 Alpha  occ. eigenvalues --   -0.44356  -0.44160  -0.44055  -0.42549  -0.42072
 Alpha  occ. eigenvalues --   -0.41402  -0.41078  -0.40845  -0.40464  -0.39758
 Alpha  occ. eigenvalues --   -0.38677  -0.38469  -0.36529  -0.36317  -0.35668
 Alpha  occ. eigenvalues --   -0.35342  -0.34918  -0.34816  -0.34542  -0.34386
 Alpha  occ. eigenvalues --   -0.34205  -0.33984  -0.33822  -0.33423  -0.31671
 Alpha  occ. eigenvalues --   -0.30962  -0.30073
 Alpha virt. eigenvalues --   -0.12279  -0.11145  -0.10865  -0.10083  -0.07811
 Alpha virt. eigenvalues --   -0.07280  -0.06023  -0.05993  -0.05694  -0.04239
 Alpha virt. eigenvalues --   -0.03403  -0.02714  -0.01588  -0.01483  -0.00835

 Mulliken charges:
               1
     1  N   -0.758283
     2  H    0.416846
     3  H    0.433446
     4  H    0.413514
     5  C   -0.111012
     6  H    0.217506
     7  C    0.653451
     8  C   -0.379078
     9  H    0.183714
    10  H    0.183688
    11  O   -0.549302
    12  C    0.142998
    13  C   -0.178517
    14  H    0.141479
    15  C   -0.198072
    16  H    0.131275
    17  C   -0.119538
    18  H    0.155046
    19  C   -0.112084
    20  H    0.159757
    21  C   -0.101304
    22  H    0.156473
    23  N   -0.605411
    24  H    0.388943
    25  C   -0.077791
    26  H    0.193929
    27  C    0.623776
    28  C   -0.035445
    29  H    0.158380
    30  H    0.166514
    31  O   -0.535876
    32  O   -0.659292
    33  H    0.459849
    34  N   -0.601329
    35  H    0.366690
    36  C   -0.093761
    37  H    0.190503
    38  C    0.681196
    39  C   -0.037265
    40  H    0.152186
    41  H    0.121109
    42  O   -0.571545
    43  O   -0.671750
    44  H    0.459102
    45  N   -0.594633
    46  H    0.340943
    47  C   -0.070004
    48  H    0.212721
    49  C    0.637592
    50  C   -0.386606
    51  H    0.188832
    52  H    0.224160
    53  O   -0.525969
    54  C    0.582313
    55  O   -0.455419
    56  O   -0.561936
    57  N   -0.662002
    58  H    0.404409
    59  C   -0.016272
    60  H    0.193878
    61  C    0.586449
    62  C   -0.302589
    63  H    0.169898
    64  H    0.182493
    65  O   -0.455905
    66  C   -0.275576
    67  H    0.155977
    68  H    0.162431
    69  C   -0.164622
    70  H    0.170941
    71  H    0.157784
    72  N   -0.573184
    73  H    0.325174
    74  N   -0.730766
    75  H    0.342734
    76  H    0.341469
    77  N   -0.726453
    78  H    0.287663
    79  C    0.617883
    80  O   -0.582030
    81  H    0.416363
    82  H    0.427142
 Sum of Mulliken charges =   1.00000

 Dipole moment (field-independent basis, Debye):
    X=            -13.6972    Y=             -4.5257    Z=            -10.2246  Tot=             17.6815
 Quadrupole moment (field-independent basis, Debye-Ang):
   XX=           -181.9552   YY=           -192.5764   ZZ=           -108.1870
   XY=             34.1687   XZ=             86.9521   YZ=             55.2828

 Normal termination of Gaussian 16 at Mon May 16 06:35:37 2022.
