 Gaussian 16, Revision C.01,
 Gaussian 16:  ES64L-G16RevC.01  3-Jul-2019

 ----------------------------------------------------------------------
 # B3LYP/6-31G* empiricaldispersion=gd3 guess=read geom=check nosymm in
 tegral(ultrafinegrid)
 ----------------------------------------------------------------------

 ------------------------------------------------------
 Candidate Structure: Conf:288 Charge calc in gas phase
 ------------------------------------------------------
 Structure from the checkpoint file:  "conf-288.chk"
 Charge =  1 Multiplicity = 1

                          Input orientation:
 ---------------------------------------------------------------------
 Center     Atomic      Atomic             Coordinates (Angstroms)
 Number     Number       Type             X           Y           Z
 ---------------------------------------------------------------------
      1          7           0       -4.043010   -3.553564   -3.398250
      2          1           0       -4.599301   -3.386643   -4.242172
      3          1           0       -3.016310   -3.549598   -3.669708
      4          1           0       -4.319330   -4.453064   -2.994034
      5          6           0       -4.102397   -2.408044   -2.403805
      6          1           0       -5.012294   -1.833048   -2.584494
      7          6           0       -2.825153   -1.603128   -2.746381
      8          6           0       -4.078130   -2.969507   -0.962107
      9          1           0       -4.998263   -3.550098   -0.809755
     10          1           0       -3.227514   -3.657028   -0.875226
     11          8           0       -1.934944   -2.197470   -3.380183
     12          6           0       -3.953700   -1.862999    0.064082
     13          6           0       -2.766393   -1.703732    0.786175
     14          1           0       -1.956557   -2.414931    0.651483
     15          6           0       -4.989311   -0.932625    0.234601
     16          1           0       -5.928314   -1.052818   -0.303345
     17          6           0       -2.597822   -0.629272    1.661616
     18          1           0       -1.660195   -0.527681    2.203863
     19          6           0       -4.822356    0.150604    1.099516
     20          1           0       -5.624801    0.872003    1.220255
     21          6           0       -3.627956    0.302647    1.809423
     22          1           0       -3.503200    1.146453    2.481874
     23          7           0       -2.768649   -0.348118   -2.323071
     24          1           0       -3.485692    0.026295   -1.701459
     25          6           0       -1.554624    0.476190   -2.372759
     26          1           0       -1.027036    0.286371   -3.311078
     27          6           0       -0.644664    0.109469   -1.180588
     28          6           0       -2.004409    1.939217   -2.261168
     29          1           0       -2.565273    2.221620   -3.156689
     30          1           0       -1.115234    2.573396   -2.181898
     31          8           0       -0.501070    0.895522   -0.234052
     32          8           0       -2.883575    2.092196   -1.157343
     33          1           0       -2.329921    1.958023   -0.364745
     34          7           0       -0.081102   -1.110139   -1.230825
     35          1           0       -0.118076   -1.658160   -2.086495
     36          6           0        0.851306   -1.593306   -0.209031
     37          1           0        0.515786   -1.244400    0.776164
     38          6           0        2.239241   -0.999729   -0.506008
     39          6           0        0.901709   -3.120816   -0.261907
     40          1           0       -0.075720   -3.530988    0.018553
     41          1           0        1.641750   -3.473616    0.468325
     42          8           0        3.172742   -1.683168   -0.946954
     43          8           0        1.172314   -3.582041   -1.575665
     44          1           0        2.088226   -3.293981   -1.754893
     45          7           0        2.320966    0.326498   -0.287412
     46          1           0        1.489110    0.798375    0.057849
     47          6           0        3.456537    1.129214   -0.738020
     48          1           0        3.888589    0.627284   -1.609021
     49          6           0        4.437004    1.127326    0.452264
     50          6           0        3.012123    2.544336   -1.086865
     51          1           0        2.632897    3.048275   -0.189524
     52          1           0        3.875142    3.140844   -1.400869
     53          8           0        4.401845    2.001491    1.311596
     54          6           0        1.958985    2.614635   -2.171618
     55          8           0        1.381267    1.679478   -2.692737
     56          8           0        1.709372    3.898551   -2.503963
     57          7           0        5.208950    0.009020    0.525781
     58          1           0        5.029783   -0.737286   -0.142598
     59          6           0        5.688456   -0.426749    1.830108
     60          1           0        6.060934    0.445661    2.371219
     61          6           0        6.809880   -1.428787    1.620144
     62          6           0        4.519295   -1.074911    2.616673
     63          1           0        4.265102   -2.031389    2.140438
     64          1           0        3.657566   -0.416071    2.469820
     65          8           0        6.935519   -2.122534    0.636768
     66          6           0        4.751051   -1.259022    4.117106
     67          1           0        4.947329   -0.279683    4.576246
     68          1           0        5.639586   -1.871516    4.308152
     69          6           0        3.544379   -1.918210    4.805165
     70          1           0        3.422850   -2.936121    4.427449
     71          1           0        3.720654   -1.989251    5.884485
     72          7           0        2.283311   -1.194634    4.583377
     73          1           0        2.345662   -0.200020    4.767557
     74          7           0        1.245566   -2.871348    3.320222
     75          1           0        0.410540   -3.054786    2.777091
     76          1           0        1.304748   -3.484202    4.126229
     77          7           0        0.594240   -0.682714    2.967521
     78          1           0        0.857811    0.286626    3.146649
     79          6           0        1.353827   -1.510145    3.610668
     80          8           0        7.621402   -1.500626    2.698403
     81          1           0        1.047860    3.889157   -3.221023
     82          1           0        8.284514   -2.192296    2.508669
 ---------------------------------------------------------------------

 SCF Done:  E(RB3LYP) =  -2166.38913006     A.U. after    1 cycles

 Alpha  occ. eigenvalues --  -19.27901 -19.27533 -19.26613 -19.23820 -19.22743
 Alpha  occ. eigenvalues --  -19.22481 -19.22046 -19.20781 -19.20717 -19.18496
 Alpha  occ. eigenvalues --  -14.61055 -14.50120 -14.46026 -14.44154 -14.43040
 Alpha  occ. eigenvalues --  -14.42635 -14.42116 -14.36882 -10.44111 -10.41610
 Alpha  occ. eigenvalues --  -10.40923 -10.39350 -10.38790 -10.37211 -10.36631
 Alpha  occ. eigenvalues --  -10.35509 -10.34733 -10.34367 -10.33174 -10.31780
 Alpha  occ. eigenvalues --  -10.31535 -10.31167 -10.31144 -10.30435 -10.29830
 Alpha  occ. eigenvalues --  -10.29674 -10.29125 -10.29063 -10.28475 -10.28396
 Alpha  occ. eigenvalues --  -10.27983 -10.26096 -10.25897  -1.19964  -1.18992
 Alpha  occ. eigenvalues --   -1.17389  -1.14907  -1.14313  -1.12439  -1.11204
 Alpha  occ. eigenvalues --   -1.10405  -1.09949  -1.09376  -1.08476  -1.06627
 Alpha  occ. eigenvalues --   -1.05705  -1.02373  -1.00923  -0.99235  -0.97070
 Alpha  occ. eigenvalues --   -0.96765  -0.93199  -0.92337  -0.88566  -0.87596
 Alpha  occ. eigenvalues --   -0.86453  -0.85429  -0.84481  -0.83864  -0.81651
 Alpha  occ. eigenvalues --   -0.80142  -0.77774  -0.75262  -0.74866  -0.74720
 Alpha  occ. eigenvalues --   -0.73936  -0.73613  -0.71931  -0.70692  -0.69797
 Alpha  occ. eigenvalues --   -0.69331  -0.68631  -0.68480  -0.67814  -0.67002
 Alpha  occ. eigenvalues --   -0.66434  -0.65831  -0.64544  -0.63724  -0.63032
 Alpha  occ. eigenvalues --   -0.62938  -0.61460  -0.61204  -0.60929  -0.59839
 Alpha  occ. eigenvalues --   -0.59084  -0.58353  -0.57892  -0.57335  -0.57182
 Alpha  occ. eigenvalues --   -0.56826  -0.56352  -0.56043  -0.55753  -0.55508
 Alpha  occ. eigenvalues --   -0.55216  -0.55059  -0.54152  -0.53851  -0.53781
 Alpha  occ. eigenvalues --   -0.53672  -0.52938  -0.52556  -0.52314  -0.52012
 Alpha  occ. eigenvalues --   -0.51863  -0.51666  -0.51458  -0.50985  -0.50801
 Alpha  occ. eigenvalues --   -0.50727  -0.50556  -0.49800  -0.49569  -0.48975
 Alpha  occ. eigenvalues --   -0.48288  -0.47868  -0.47489  -0.47227  -0.46725
 Alpha  occ. eigenvalues --   -0.46339  -0.45824  -0.45632  -0.45105  -0.44527
 Alpha  occ. eigenvalues --   -0.44448  -0.44391  -0.44074  -0.43227  -0.42853
 Alpha  occ. eigenvalues --   -0.42313  -0.41841  -0.41683  -0.41137  -0.41100
 Alpha  occ. eigenvalues --   -0.40355  -0.38459  -0.37821  -0.37380  -0.36711
 Alpha  occ. eigenvalues --   -0.35709  -0.35521  -0.35032  -0.34841  -0.34821
 Alpha  occ. eigenvalues --   -0.34635  -0.34444  -0.33940  -0.33011  -0.32222
 Alpha  occ. eigenvalues --   -0.31187  -0.30387
 Alpha virt. eigenvalues --   -0.13547  -0.11812  -0.11344  -0.10437  -0.09205
 Alpha virt. eigenvalues --   -0.07833  -0.06668  -0.05993  -0.05887  -0.04437
 Alpha virt. eigenvalues --   -0.04169  -0.03307  -0.02936  -0.02106  -0.01692

 Mulliken charges:
               1
     1  N   -0.754859
     2  H    0.419489
     3  H    0.437104
     4  H    0.417050
     5  C   -0.113266
     6  H    0.218560
     7  C    0.661573
     8  C   -0.377964
     9  H    0.186811
    10  H    0.183197
    11  O   -0.554382
    12  C    0.146645
    13  C   -0.201305
    14  H    0.137853
    15  C   -0.219073
    16  H    0.131862
    17  C   -0.132812
    18  H    0.218371
    19  C   -0.106797
    20  H    0.162070
    21  C   -0.150805
    22  H    0.160426
    23  N   -0.583498
    24  H    0.382967
    25  C   -0.107507
    26  H    0.211832
    27  C    0.690552
    28  C   -0.051963
    29  H    0.162721
    30  H    0.164583
    31  O   -0.573634
    32  O   -0.636583
    33  H    0.426613
    34  N   -0.609573
    35  H    0.374272
    36  C   -0.135717
    37  H    0.243705
    38  C    0.653753
    39  C   -0.068366
    40  H    0.131602
    41  H    0.173203
    42  O   -0.559661
    43  O   -0.640725
    44  H    0.425238
    45  N   -0.604585
    46  H    0.379845
    47  C   -0.060781
    48  H    0.190258
    49  C    0.637115
    50  C   -0.392896
    51  H    0.218699
    52  H    0.213506
    53  O   -0.530420
    54  C    0.601296
    55  O   -0.489304
    56  O   -0.555996
    57  N   -0.606349
    58  H    0.371619
    59  C   -0.045843
    60  H    0.200716
    61  C    0.586937
    62  C   -0.286119
    63  H    0.159879
    64  H    0.162884
    65  O   -0.454750
    66  C   -0.281215
    67  H    0.150935
    68  H    0.166836
    69  C   -0.155129
    70  H    0.165895
    71  H    0.166994
    72  N   -0.584860
    73  H    0.325836
    74  N   -0.738853
    75  H    0.334473
    76  H    0.336784
    77  N   -0.678143
    78  H    0.281502
    79  C    0.597691
    80  O   -0.563521
    81  H    0.415292
    82  H    0.420216
 Sum of Mulliken charges =   1.00000

 Dipole moment (field-independent basis, Debye):
    X=            -12.8591    Y=            -11.1131    Z=             -5.5550  Tot=             17.8806
 Quadrupole moment (field-independent basis, Debye-Ang):
   XX=           -149.9891   YY=           -197.0343   ZZ=           -178.4708
   XY=             43.6088   XZ=             71.2850   YZ=              7.7261

 Normal termination of Gaussian 16 at Mon May 16 06:35:45 2022.
