 Gaussian 16, Revision C.01,
 Gaussian 16:  ES64L-G16RevC.01  3-Jul-2019

 ----------------------------------------------------------------------
 # B3LYP/6-31G* empiricaldispersion=gd3 guess=read geom=check nosymm in
 tegral(ultrafinegrid)
 ----------------------------------------------------------------------

 -----------------------------------------------------
 Candidate Structure: Conf:34 Charge calc in gas phase
 -----------------------------------------------------
 Structure from the checkpoint file:  "conf-34.chk"
 Charge =  1 Multiplicity = 1

                          Input orientation:
 ---------------------------------------------------------------------
 Center     Atomic      Atomic             Coordinates (Angstroms)
 Number     Number       Type             X           Y           Z
 ---------------------------------------------------------------------
      1          7           0       -2.927718   -3.899454   -1.410579
      2          1           0       -2.081339   -4.353002   -1.751848
      3          1           0       -2.424874   -2.739871   -0.038707
      4          1           0       -3.628604   -4.618832   -1.239039
      5          6           0       -3.439932   -2.986749   -2.447820
      6          1           0       -3.754028   -3.530306   -3.353307
      7          6           0       -2.319078   -2.007996   -2.815913
      8          6           0       -4.666253   -2.204103   -1.902725
      9          1           0       -4.323420   -1.507270   -1.129727
     10          1           0       -5.074696   -1.593138   -2.714865
     11          8           0       -1.272155   -1.948664   -2.166132
     12          6           0       -5.727563   -3.128005   -1.350232
     13          6           0       -6.613289   -3.789335   -2.211865
     14          1           0       -6.566559   -3.594907   -3.281509
     15          6           0       -5.805617   -3.385441    0.025063
     16          1           0       -5.127369   -2.871453    0.702842
     17          6           0       -7.559113   -4.683885   -1.711344
     18          1           0       -8.244595   -5.182102   -2.390979
     19          6           0       -6.752459   -4.279627    0.529284
     20          1           0       -6.810145   -4.459803    1.599288
     21          6           0       -7.630539   -4.931487   -0.338121
     22          1           0       -8.371078   -5.623133    0.052904
     23          7           0       -2.579201   -1.173751   -3.847246
     24          1           0       -3.389316   -1.293274   -4.442358
     25          6           0       -1.682739   -0.079455   -4.193591
     26          1           0       -0.812715   -0.464347   -4.739990
     27          6           0       -1.249667    0.629502   -2.899731
     28          6           0       -2.447047    0.910980   -5.077661
     29          1           0       -1.745627    1.673183   -5.445897
     30          1           0       -3.213835    1.403687   -4.464001
     31          8           0       -2.111672    1.057512   -2.120320
     32          8           0       -3.019950    0.153879   -6.137233
     33          1           0       -3.569966    0.742736   -6.675788
     34          7           0        0.074404    0.774797   -2.714895
     35          1           0        0.721804    0.217959   -3.267900
     36          6           0        0.656582    1.251525   -1.468122
     37          1           0        0.355701    2.288650   -1.279565
     38          6           0        2.183589    1.109081   -1.601965
     39          6           0        0.280565    0.374559   -0.245026
     40          1           0        0.968532    0.604574    0.572474
     41          1           0        0.413214   -0.674284   -0.544643
     42          8           0        2.663083    0.284942   -2.371026
     43          8           0       -1.034020    0.592331    0.267428
     44          1           0       -1.591369    0.909950   -0.487276
     45          7           0        2.914091    1.866559   -0.732453
     46          1           0        2.390637    2.404419   -0.045646
     47          6           0        4.146420    1.325100   -0.159871
     48          1           0        4.386322    0.405994   -0.698316
     49          6           0        3.810333    1.016266    1.321311
     50          6           0        5.324923    2.300334   -0.298974
     51          1           0        5.334065    2.709016   -1.315683
     52          1           0        5.227678    3.156731    0.378474
     53          8           0        2.921256    1.659618    1.889056
     54          6           0        6.653518    1.614355   -0.056974
     55          8           0        6.792656    0.431521    0.189162
     56          8           0        7.680854    2.470458   -0.168677
     57          7           0        4.481562    0.004128    1.908966
     58          1           0        5.323758   -0.353983    1.459906
     59          6           0        4.250180   -0.330373    3.307221
     60          1           0        3.935260    0.579783    3.829395
     61          6           0        5.567791   -0.801597    3.910515
     62          6           0        3.153278   -1.408808    3.515068
     63          1           0        3.011319   -1.528205    4.594963
     64          1           0        3.516189   -2.369264    3.125222
     65          8           0        6.577543   -1.017107    3.281261
     66          6           0        1.832198   -1.042822    2.828858
     67          1           0        1.988395   -1.030113    1.745637
     68          1           0        1.531830   -0.029636    3.116977
     69          6           0        0.699571   -2.027714    3.133403
     70          1           0        1.012881   -3.042360    2.866852
     71          1           0        0.450259   -2.019942    4.201529
     72          7           0       -0.487178   -1.682838    2.336237
     73          1           0       -0.644920   -0.698203    2.137869
     74          7           0       -1.102730   -3.867899    1.775371
     75          1           0       -1.719505   -4.458462    1.234487
     76          1           0       -0.842848   -4.224408    2.683279
     77          7           0       -2.038702   -2.064687    0.658596
     78          1           0       -1.850562   -1.111600    0.328265
     79          6           0       -1.214734   -2.528022    1.589443
     80          8           0        5.452967   -0.973133    5.242466
     81          1           0        8.501654    1.963656   -0.015110
     82          1           0        6.317330   -1.288571    5.569270
 ---------------------------------------------------------------------

 SCF Done:  E(RB3LYP) =  -2166.43060373     A.U. after    1 cycles

 Alpha  occ. eigenvalues --  -19.28613 -19.28050 -19.24602 -19.24261 -19.23069
 Alpha  occ. eigenvalues --  -19.22912 -19.22320 -19.22174 -19.21776 -19.21449
 Alpha  occ. eigenvalues --  -14.49158 -14.48825 -14.45976 -14.45963 -14.45448
 Alpha  occ. eigenvalues --  -14.45288 -14.45231 -14.43970 -10.44456 -10.41135
 Alpha  occ. eigenvalues --  -10.41118 -10.39400 -10.39049 -10.38722 -10.38383
 Alpha  occ. eigenvalues --  -10.34248 -10.33766 -10.33495 -10.33386 -10.33307
 Alpha  occ. eigenvalues --  -10.33208 -10.33202 -10.33055 -10.29428 -10.29269
 Alpha  occ. eigenvalues --  -10.29093 -10.28817 -10.27976 -10.26990 -10.26935
 Alpha  occ. eigenvalues --  -10.26832 -10.26728 -10.26569  -1.19599  -1.19244
 Alpha  occ. eigenvalues --   -1.15002  -1.14173  -1.13350  -1.13211  -1.13107
 Alpha  occ. eigenvalues --   -1.11854  -1.10933  -1.10791  -1.10302  -1.03072
 Alpha  occ. eigenvalues --   -1.02694  -1.02416  -1.02284  -1.01852  -1.00793
 Alpha  occ. eigenvalues --   -1.00119  -0.93468  -0.90632  -0.89064  -0.87896
 Alpha  occ. eigenvalues --   -0.86400  -0.85436  -0.84635  -0.82268  -0.80839
 Alpha  occ. eigenvalues --   -0.79350  -0.77910  -0.76187  -0.75124  -0.74686
 Alpha  occ. eigenvalues --   -0.72334  -0.71488  -0.70952  -0.69579  -0.69364
 Alpha  occ. eigenvalues --   -0.68617  -0.68418  -0.68072  -0.67795  -0.66855
 Alpha  occ. eigenvalues --   -0.66302  -0.65902  -0.64225  -0.62700  -0.62620
 Alpha  occ. eigenvalues --   -0.62094  -0.61271  -0.60442  -0.60299  -0.59758
 Alpha  occ. eigenvalues --   -0.59519  -0.59076  -0.59026  -0.58641  -0.58042
 Alpha  occ. eigenvalues --   -0.57651  -0.57581  -0.57145  -0.56774  -0.56440
 Alpha  occ. eigenvalues --   -0.56081  -0.55134  -0.54442  -0.54307  -0.54112
 Alpha  occ. eigenvalues --   -0.53839  -0.53746  -0.53249  -0.52886  -0.52583
 Alpha  occ. eigenvalues --   -0.52146  -0.51773  -0.51236  -0.51169  -0.50641
 Alpha  occ. eigenvalues --   -0.50097  -0.49820  -0.49766  -0.49498  -0.49394
 Alpha  occ. eigenvalues --   -0.48891  -0.48540  -0.48059  -0.47751  -0.47255
 Alpha  occ. eigenvalues --   -0.46911  -0.46827  -0.46491  -0.46057  -0.45983
 Alpha  occ. eigenvalues --   -0.45623  -0.44796  -0.44490  -0.43805  -0.43736
 Alpha  occ. eigenvalues --   -0.43381  -0.42104  -0.41885  -0.40777  -0.40441
 Alpha  occ. eigenvalues --   -0.40052  -0.38169  -0.37508  -0.37233  -0.37166
 Alpha  occ. eigenvalues --   -0.36972  -0.36871  -0.36640  -0.36187  -0.36050
 Alpha  occ. eigenvalues --   -0.35803  -0.35217  -0.35066  -0.34537  -0.34498
 Alpha  occ. eigenvalues --   -0.32925  -0.32295
 Alpha virt. eigenvalues --   -0.09577  -0.09251  -0.08904  -0.08425  -0.08087
 Alpha virt. eigenvalues --   -0.08050  -0.07767  -0.07252  -0.06880  -0.04983
 Alpha virt. eigenvalues --   -0.02023  -0.01606  -0.01045  -0.00629  -0.00498

 Mulliken charges:
               1
     1  N   -0.779218
     2  H    0.333537
     3  H    0.436619
     4  H    0.336838
     5  C   -0.075821
     6  H    0.161043
     7  C    0.639139
     8  C   -0.356425
     9  H    0.168616
    10  H    0.162666
    11  O   -0.552064
    12  C    0.152206
    13  C   -0.182877
    14  H    0.130486
    15  C   -0.193253
    16  H    0.130001
    17  C   -0.126893
    18  H    0.150696
    19  C   -0.129846
    20  H    0.142563
    21  C   -0.127792
    22  H    0.150686
    23  N   -0.607889
    24  H    0.357426
    25  C   -0.014618
    26  H    0.177133
    27  C    0.649707
    28  C   -0.068229
    29  H    0.160228
    30  H    0.170711
    31  O   -0.576192
    32  O   -0.627347
    33  H    0.417479
    34  N   -0.603537
    35  H    0.368499
    36  C   -0.084857
    37  H    0.191114
    38  C    0.581443
    39  C   -0.048298
    40  H    0.169107
    41  H    0.167699
    42  O   -0.501392
    43  O   -0.685454
    44  H    0.455152
    45  N   -0.588074
    46  H    0.354832
    47  C   -0.078364
    48  H    0.211126
    49  C    0.604547
    50  C   -0.368639
    51  H    0.217790
    52  H    0.203445
    53  O   -0.542807
    54  C    0.601032
    55  O   -0.467689
    56  O   -0.551320
    57  N   -0.617453
    58  H    0.398768
    59  C   -0.042600
    60  H    0.208344
    61  C    0.579679
    62  C   -0.275868
    63  H    0.176027
    64  H    0.155235
    65  O   -0.444681
    66  C   -0.298301
    67  H    0.161617
    68  H    0.186993
    69  C   -0.144698
    70  H    0.168357
    71  H    0.180346
    72  N   -0.613958
    73  H    0.386308
    74  N   -0.755865
    75  H    0.370830
    76  H    0.368771
    77  N   -0.806767
    78  H    0.394266
    79  C    0.756711
    80  O   -0.562957
    81  H    0.427742
    82  H    0.428487
 Sum of Mulliken charges =   1.00000

 Dipole moment (field-independent basis, Debye):
    X=             -2.4110    Y=             -8.6121    Z=              0.3387  Tot=              8.9496
 Quadrupole moment (field-independent basis, Debye-Ang):
   XX=           -160.6345   YY=           -189.8666   ZZ=           -175.9939
   XY=             44.2684   XZ=             48.0672   YZ=            -24.5288

 Normal termination of Gaussian 16 at Mon May 16 06:35:36 2022.
