 Gaussian 16, Revision C.01,
 Gaussian 16:  ES64L-G16RevC.01  3-Jul-2019

 ----------------------------------------------------------------------
 # B3LYP/6-31G* empiricaldispersion=gd3 guess=read geom=check nosymm in
 tegral(ultrafinegrid)
 ----------------------------------------------------------------------

 ------------------------------------------------------
 Candidate Structure: Conf:752 Charge calc in gas phase
 ------------------------------------------------------
 Structure from the checkpoint file:  "conf-752.chk"
 Charge =  1 Multiplicity = 1

                          Input orientation:
 ---------------------------------------------------------------------
 Center     Atomic      Atomic             Coordinates (Angstroms)
 Number     Number       Type             X           Y           Z
 ---------------------------------------------------------------------
      1          7           0       -0.347756   -4.708969    0.236755
      2          1           0       -0.111313   -5.697704    0.312409
      3          1           0        0.725156   -3.982543    0.557190
      4          1           0       -0.955561   -4.490607    1.030340
      5          6           0       -1.093760   -4.445595   -1.023673
      6          1           0       -0.983333   -5.333077   -1.657991
      7          6           0       -0.395617   -3.307456   -1.800694
      8          6           0       -2.600669   -4.222426   -0.713526
      9          1           0       -3.137057   -3.949506   -1.627881
     10          1           0       -3.018579   -5.184548   -0.397368
     11          8           0        0.728772   -2.908992   -1.487563
     12          6           0       -2.815628   -3.177897    0.366129
     13          6           0       -3.083356   -3.570623    1.685735
     14          1           0       -3.218451   -4.625738    1.914203
     15          6           0       -2.674243   -1.809302    0.088555
     16          1           0       -2.476607   -1.483566   -0.928027
     17          6           0       -3.204814   -2.622782    2.705695
     18          1           0       -3.428530   -2.946638    3.718367
     19          6           0       -2.810604   -0.861153    1.101239
     20          1           0       -2.734167    0.195361    0.863751
     21          6           0       -3.069251   -1.265771    2.414699
     22          1           0       -3.186769   -0.523397    3.199274
     23          7           0       -1.042772   -2.866278   -2.900146
     24          1           0       -1.996552   -3.137042   -3.113079
     25          6           0       -0.478597   -1.886534   -3.835547
     26          1           0        0.579955   -2.124776   -3.982827
     27          6           0       -0.600303   -0.456423   -3.255274
     28          6           0       -1.262020   -1.999463   -5.148504
     29          1           0       -1.079022   -2.978436   -5.601404
     30          1           0       -0.920954   -1.222191   -5.842144
     31          8           0       -1.345873    0.395474   -3.736451
     32          8           0       -2.656422   -1.915194   -4.893089
     33          1           0       -2.818944   -0.980777   -4.667012
     34          7           0        0.228613   -0.224545   -2.205286
     35          1           0        0.729323   -1.007681   -1.786085
     36          6           0        0.450153    1.109356   -1.700388
     37          1           0        0.539484    1.796359   -2.549074
     38          6           0        1.690415    1.136858   -0.835071
     39          6           0       -0.700458    1.651992   -0.807637
     40          1           0       -0.798629    0.981642    0.059045
     41          1           0       -1.622174    1.620511   -1.396189
     42          8           0        1.961154    0.230680   -0.035871
     43          8           0       -0.463540    2.990775   -0.436672
     44          1           0        0.185757    3.003160    0.293425
     45          7           0        2.466972    2.241751   -0.966090
     46          1           0        2.057757    3.040595   -1.437525
     47          6           0        3.490400    2.488850    0.031726
     48          1           0        4.190401    1.649828    0.012232
     49          6           0        2.827787    2.549881    1.426145
     50          6           0        4.244305    3.786391   -0.302699
     51          1           0        4.632800    3.705465   -1.326047
     52          1           0        3.581554    4.655561   -0.258528
     53          8           0        1.655142    2.903152    1.570454
     54          6           0        5.428633    4.081258    0.599998
     55          8           0        5.768038    5.179055    0.957607
     56          8           0        6.106997    2.945378    0.937790
     57          7           0        3.620319    2.184873    2.450428
     58          1           0        4.597182    1.983460    2.273664
     59          6           0        3.213690    2.219773    3.848233
     60          1           0        2.441099    2.992379    3.951003
     61          6           0        4.355726    2.660342    4.764700
     62          6           0        2.635332    0.866455    4.304934
     63          1           0        2.703164    0.798871    5.393990
     64          1           0        3.273258    0.074424    3.890070
     65          8           0        4.305493    2.584878    5.967359
     66          6           0        1.177170    0.669558    3.851246
     67          1           0        1.009062    1.137740    2.875739
     68          1           0        0.510693    1.199342    4.540355
     69          6           0        0.764095   -0.803851    3.770734
     70          1           0        1.227439   -1.373448    4.585367
     71          1           0       -0.328405   -0.882171    3.875506
     72          7           0        1.182988   -1.375610    2.481836
     73          1           0        1.494355   -0.757866    1.731952
     74          7           0        0.362515   -3.494790    3.024829
     75          1           0        0.705566   -4.440088    3.116209
     76          1           0       -0.065127   -3.111431    3.851851
     77          7           0        1.533339   -3.261219    1.081315
     78          1           0        2.100793   -2.662946    0.491790
     79          6           0        1.067959   -2.681366    2.174994
     80          8           0        5.422825    3.156387    4.091044
     81          1           0        6.848517    3.226915    1.507267
     82          1           0        6.072647    3.433318    4.765824
 ---------------------------------------------------------------------

 SCF Done:  E(RB3LYP) =  -2166.41525955     A.U. after    1 cycles

 Alpha  occ. eigenvalues --  -19.29979 -19.29603 -19.23713 -19.23534 -19.23484
 Alpha  occ. eigenvalues --  -19.23473 -19.23163 -19.22882 -19.21690 -19.21509
 Alpha  occ. eigenvalues --  -14.48434 -14.48178 -14.47897 -14.47457 -14.47303
 Alpha  occ. eigenvalues --  -14.46985 -14.44944 -14.42804 -10.42670 -10.42159
 Alpha  occ. eigenvalues --  -10.41977 -10.40669 -10.39934 -10.39864 -10.38313
 Alpha  occ. eigenvalues --  -10.36299 -10.34754 -10.34359 -10.34023 -10.33227
 Alpha  occ. eigenvalues --  -10.32393 -10.32375 -10.31693 -10.31687 -10.31212
 Alpha  occ. eigenvalues --  -10.30757 -10.29730 -10.29523 -10.29358 -10.29301
 Alpha  occ. eigenvalues --  -10.29239 -10.29073 -10.29052  -1.20625  -1.20110
 Alpha  occ. eigenvalues --   -1.15724  -1.15553  -1.14197  -1.13227  -1.11661
 Alpha  occ. eigenvalues --   -1.11638  -1.11290  -1.10491  -1.09402  -1.05105
 Alpha  occ. eigenvalues --   -1.03988  -1.03826  -1.03614  -1.01807  -1.01654
 Alpha  occ. eigenvalues --   -0.98398  -0.96124  -0.91283  -0.90123  -0.89508
 Alpha  occ. eigenvalues --   -0.87122  -0.85673  -0.84900  -0.84588  -0.82930
 Alpha  occ. eigenvalues --   -0.79638  -0.78242  -0.77279  -0.74688  -0.74165
 Alpha  occ. eigenvalues --   -0.73186  -0.72174  -0.71810  -0.71096  -0.70846
 Alpha  occ. eigenvalues --   -0.70000  -0.69509  -0.68937  -0.68717  -0.68610
 Alpha  occ. eigenvalues --   -0.67332  -0.66284  -0.65068  -0.64817  -0.63696
 Alpha  occ. eigenvalues --   -0.62462  -0.61840  -0.61341  -0.61203  -0.60632
 Alpha  occ. eigenvalues --   -0.60303  -0.59144  -0.58782  -0.58688  -0.58217
 Alpha  occ. eigenvalues --   -0.58073  -0.57788  -0.57493  -0.57113  -0.56893
 Alpha  occ. eigenvalues --   -0.56740  -0.56310  -0.56125  -0.55781  -0.55489
 Alpha  occ. eigenvalues --   -0.55054  -0.54056  -0.53866  -0.53559  -0.53120
 Alpha  occ. eigenvalues --   -0.52746  -0.52398  -0.52125  -0.51851  -0.51566
 Alpha  occ. eigenvalues --   -0.51144  -0.50900  -0.50569  -0.50284  -0.50195
 Alpha  occ. eigenvalues --   -0.49675  -0.49314  -0.49077  -0.48889  -0.48721
 Alpha  occ. eigenvalues --   -0.48492  -0.47898  -0.47498  -0.46649  -0.46331
 Alpha  occ. eigenvalues --   -0.46025  -0.45256  -0.44831  -0.44621  -0.44493
 Alpha  occ. eigenvalues --   -0.44179  -0.42524  -0.41680  -0.41545  -0.41010
 Alpha  occ. eigenvalues --   -0.40511  -0.39461  -0.38797  -0.38665  -0.38266
 Alpha  occ. eigenvalues --   -0.37756  -0.37501  -0.36963  -0.36661  -0.36385
 Alpha  occ. eigenvalues --   -0.36149  -0.35594  -0.35497  -0.35349  -0.34980
 Alpha  occ. eigenvalues --   -0.33916  -0.33054
 Alpha virt. eigenvalues --   -0.11621  -0.11250  -0.10249  -0.09630  -0.09052
 Alpha virt. eigenvalues --   -0.08851  -0.08795  -0.08465  -0.07388  -0.05463
 Alpha virt. eigenvalues --   -0.03533  -0.03208  -0.01880  -0.01338  -0.00863

 Mulliken charges:
               1
     1  N   -0.822048
     2  H    0.355279
     3  H    0.482703
     4  H    0.372385
     5  C   -0.057486
     6  H    0.198853
     7  C    0.640539
     8  C   -0.403655
     9  H    0.185004
    10  H    0.177153
    11  O   -0.545966
    12  C    0.149252
    13  C   -0.201571
    14  H    0.140484
    15  C   -0.179135
    16  H    0.151001
    17  C   -0.132255
    18  H    0.150441
    19  C   -0.134702
    20  H    0.166672
    21  C   -0.139097
    22  H    0.154221
    23  N   -0.610224
    24  H    0.362825
    25  C   -0.079538
    26  H    0.189472
    27  C    0.624191
    28  C   -0.063634
    29  H    0.166181
    30  H    0.173348
    31  O   -0.530055
    32  O   -0.630908
    33  H    0.423139
    34  N   -0.653180
    35  H    0.390875
    36  C   -0.018721
    37  H    0.181152
    38  C    0.602631
    39  C   -0.055433
    40  H    0.128171
    41  H    0.185240
    42  O   -0.574136
    43  O   -0.647866
    44  H    0.434357
    45  N   -0.590968
    46  H    0.357992
    47  C   -0.044430
    48  H    0.201096
    49  C    0.643485
    50  C   -0.390331
    51  H    0.214663
    52  H    0.208630
    53  O   -0.551383
    54  C    0.587447
    55  O   -0.424089
    56  O   -0.581144
    57  N   -0.606435
    58  H    0.368984
    59  C   -0.061421
    60  H    0.222749
    61  C    0.586107
    62  C   -0.270984
    63  H    0.191986
    64  H    0.149840
    65  O   -0.435599
    66  C   -0.329603
    67  H    0.195297
    68  H    0.171693
    69  C   -0.150552
    70  H    0.169604
    71  H    0.165933
    72  N   -0.630213
    73  H    0.402452
    74  N   -0.768966
    75  H    0.360234
    76  H    0.363323
    77  N   -0.780014
    78  H    0.348400
    79  C    0.724948
    80  O   -0.581860
    81  H    0.426228
    82  H    0.430943
 Sum of Mulliken charges =   1.00000

 Dipole moment (field-independent basis, Debye):
    X=              6.0793    Y=            -11.6431    Z=              6.0192  Tot=             14.4482
 Quadrupole moment (field-independent basis, Debye-Ang):
   XX=           -198.3298   YY=           -184.0610   ZZ=           -205.5748
   XY=             33.0880   XZ=              5.6427   YZ=             -9.7236

 Normal termination of Gaussian 16 at Mon May 16 06:35:28 2022.
