 Gaussian 16, Revision C.01,
 Gaussian 16:  ES64L-G16RevC.01  3-Jul-2019

 ----------------------------------------------------------------------
 # B3LYP/6-31G* empiricaldispersion=gd3 guess=read geom=check nosymm in
 tegral(ultrafinegrid)
 ----------------------------------------------------------------------

 ------------------------------------------------------
 Candidate Structure: Conf:535 Charge calc in gas phase
 ------------------------------------------------------
 Structure from the checkpoint file:  "conf-535.chk"
 Charge =  1 Multiplicity = 1

                          Input orientation:
 ---------------------------------------------------------------------
 Center     Atomic      Atomic             Coordinates (Angstroms)
 Number     Number       Type             X           Y           Z
 ---------------------------------------------------------------------
      1          7           0       -5.045218    0.862395   -4.745768
      2          1           0       -5.045748    1.338059   -5.651869
      3          1           0       -4.743149   -0.154346   -4.886450
      4          1           0       -5.984455    0.920409   -4.342648
      5          6           0       -3.961962    1.362628   -3.805831
      6          1           0       -3.532334    2.269385   -4.235724
      7          6           0       -2.934358    0.199193   -3.848220
      8          6           0       -4.546162    1.647291   -2.408614
      9          1           0       -5.408184    2.317655   -2.535418
     10          1           0       -4.920194    0.708012   -1.983338
     11          8           0       -3.290609   -0.850029   -4.405861
     12          6           0       -3.537381    2.288479   -1.477156
     13          6           0       -3.088774    1.616784   -0.333368
     14          1           0       -3.452425    0.614201   -0.119594
     15          6           0       -3.058578    3.579957   -1.745062
     16          1           0       -3.413313    4.122628   -2.620287
     17          6           0       -2.199979    2.238347    0.544824
     18          1           0       -1.870748    1.738159    1.449993
     19          6           0       -2.158741    4.193979   -0.873561
     20          1           0       -1.804932    5.198948   -1.084406
     21          6           0       -1.736786    3.528449    0.280008
     22          1           0       -1.066473    4.001604    0.990551
     23          7           0       -1.750955    0.412046   -3.281333
     24          1           0       -1.559751    1.266501   -2.763512
     25          6           0       -0.638029   -0.520194   -3.433398
     26          1           0       -1.056694   -1.509562   -3.632286
     27          6           0        0.191928   -0.469015   -2.149899
     28          6           0        0.256895   -0.088972   -4.608756
     29          1           0        1.070064   -0.818940   -4.722866
     30          1           0        0.725018    0.874058   -4.367206
     31          8           0        0.331951    0.600879   -1.552580
     32          8           0       -0.568555   -0.012709   -5.758278
     33          1           0       -0.008083    0.258531   -6.501614
     34          7           0        0.803775   -1.615364   -1.774720
     35          1           0        0.700894   -2.448066   -2.341077
     36          6           0        1.658672   -1.678052   -0.590707
     37          1           0        1.282216   -0.917715    0.098669
     38          6           0        3.130032   -1.318727   -0.892458
     39          6           0        1.555593   -3.041350    0.112669
     40          1           0        1.940455   -3.833278   -0.549138
     41          1           0        0.501646   -3.249705    0.320241
     42          8           0        4.058791   -2.030890   -0.497305
     43          8           0        2.231944   -3.016174    1.350478
     44          1           0        3.178089   -2.958800    1.124983
     45          7           0        3.319074   -0.161740   -1.572037
     46          1           0        2.520848    0.459695   -1.677722
     47          6           0        4.652593    0.439997   -1.719292
     48          1           0        5.362429   -0.380977   -1.845477
     49          6           0        4.940263    1.231097   -0.420452
     50          6           0        4.682297    1.370786   -2.936741
     51          1           0        3.981926    2.194968   -2.788175
     52          1           0        5.688365    1.787652   -3.032159
     53          8           0        4.705157    2.429816   -0.339979
     54          6           0        4.308226    0.612378   -4.187212
     55          8           0        3.211301    0.613890   -4.710203
     56          8           0        5.339064   -0.127588   -4.644924
     57          7           0        5.358122    0.448852    0.610476
     58          1           0        5.434626   -0.549350    0.448467
     59          6           0        5.289170    0.901484    1.990858
     60          1           0        5.277687    1.994915    1.966969
     61          6           0        6.499912    0.484734    2.817696
     62          6           0        4.004388    0.393362    2.691897
     63          1           0        4.036401    0.727766    3.734584
     64          1           0        4.023906   -0.706474    2.702030
     65          8           0        6.664595    0.832448    3.963722
     66          6           0        2.725495    0.871279    1.999796
     67          1           0        2.769319    0.610023    0.938756
     68          1           0        2.665830    1.964845    2.038651
     69          6           0        1.447071    0.252818    2.594719
     70          1           0        0.619731    0.364637    1.882261
     71          1           0        1.584710   -0.824998    2.737819
     72          7           0        1.006247    0.837314    3.851170
     73          1           0        1.582145    0.631850    4.658904
     74          7           0        0.168668    2.555143    5.157067
     75          1           0       -0.360442    3.418870    5.155137
     76          1           0       -0.207052    1.866953    5.799654
     77          7           0        0.086168    2.825159    2.853815
     78          1           0        0.474686    2.453388    1.988763
     79          6           0        0.413319    2.096336    3.867766
     80          8           0        7.336529   -0.348601    2.158987
     81          1           0        5.026707   -0.609964   -5.433754
     82          1           0        8.054925   -0.568948    2.782686
 ---------------------------------------------------------------------

 SCF Done:  E(RB3LYP) =  -2166.35880159     A.U. after    1 cycles

 Alpha  occ. eigenvalues --  -19.28320 -19.27070 -19.26416 -19.25008 -19.24059
 Alpha  occ. eigenvalues --  -19.22891 -19.22675 -19.22600 -19.20222 -19.19240
 Alpha  occ. eigenvalues --  -14.60032 -14.49996 -14.48829 -14.46269 -14.43331
 Alpha  occ. eigenvalues --  -14.41183 -14.39672 -14.34410 -10.43883 -10.41255
 Alpha  occ. eigenvalues --  -10.41020 -10.40951 -10.39387 -10.38593 -10.36493
 Alpha  occ. eigenvalues --  -10.35594 -10.34209 -10.34044 -10.33959 -10.33671
 Alpha  occ. eigenvalues --  -10.32977 -10.32811 -10.30794 -10.30561 -10.29104
 Alpha  occ. eigenvalues --  -10.28756 -10.28703 -10.28601 -10.28139 -10.27546
 Alpha  occ. eigenvalues --  -10.27187 -10.26266 -10.25379  -1.19652  -1.19260
 Alpha  occ. eigenvalues --   -1.17131  -1.16191  -1.14389  -1.13905  -1.12407
 Alpha  occ. eigenvalues --   -1.11212  -1.10233  -1.10126  -1.08083  -1.06568
 Alpha  occ. eigenvalues --   -1.04833  -1.03497  -1.02597  -1.00208  -0.96432
 Alpha  occ. eigenvalues --   -0.94700  -0.92703  -0.89799  -0.89763  -0.88343
 Alpha  occ. eigenvalues --   -0.86475  -0.85558  -0.84440  -0.83812  -0.81722
 Alpha  occ. eigenvalues --   -0.79597  -0.78008  -0.76120  -0.74618  -0.74264
 Alpha  occ. eigenvalues --   -0.73859  -0.73159  -0.72514  -0.70873  -0.70026
 Alpha  occ. eigenvalues --   -0.69780  -0.69020  -0.68472  -0.67799  -0.66994
 Alpha  occ. eigenvalues --   -0.66880  -0.66193  -0.64071  -0.63825  -0.63019
 Alpha  occ. eigenvalues --   -0.62009  -0.61378  -0.61068  -0.60746  -0.60395
 Alpha  occ. eigenvalues --   -0.59777  -0.59289  -0.58651  -0.58149  -0.57809
 Alpha  occ. eigenvalues --   -0.57584  -0.57470  -0.56917  -0.56165  -0.55589
 Alpha  occ. eigenvalues --   -0.55129  -0.54987  -0.54449  -0.54082  -0.53690
 Alpha  occ. eigenvalues --   -0.53250  -0.53076  -0.52558  -0.52191  -0.52136
 Alpha  occ. eigenvalues --   -0.51821  -0.51533  -0.51175  -0.50898  -0.50760
 Alpha  occ. eigenvalues --   -0.50642  -0.50163  -0.49929  -0.49161  -0.49088
 Alpha  occ. eigenvalues --   -0.48569  -0.48060  -0.47683  -0.47633  -0.46737
 Alpha  occ. eigenvalues --   -0.46416  -0.46158  -0.45650  -0.45354  -0.44977
 Alpha  occ. eigenvalues --   -0.44906  -0.43943  -0.43685  -0.43369  -0.42763
 Alpha  occ. eigenvalues --   -0.42000  -0.41882  -0.41372  -0.40949  -0.40646
 Alpha  occ. eigenvalues --   -0.39965  -0.39374  -0.38096  -0.37937  -0.37306
 Alpha  occ. eigenvalues --   -0.37288  -0.36293  -0.36096  -0.35135  -0.34523
 Alpha  occ. eigenvalues --   -0.34358  -0.34161  -0.32654  -0.32345  -0.31783
 Alpha  occ. eigenvalues --   -0.31222  -0.28814
 Alpha virt. eigenvalues --   -0.12645  -0.11310  -0.10811  -0.10541  -0.09643
 Alpha virt. eigenvalues --   -0.09087  -0.08095  -0.06104  -0.05590  -0.05054
 Alpha virt. eigenvalues --   -0.03640  -0.02845  -0.01873  -0.01434  -0.01163

 Mulliken charges:
               1
     1  N   -0.762301
     2  H    0.417398
     3  H    0.436752
     4  H    0.412793
     5  C   -0.111987
     6  H    0.221820
     7  C    0.674425
     8  C   -0.377458
     9  H    0.183932
    10  H    0.183393
    11  O   -0.539251
    12  C    0.129775
    13  C   -0.181161
    14  H    0.134891
    15  C   -0.194258
    16  H    0.124715
    17  C   -0.128119
    18  H    0.168610
    19  C   -0.126035
    20  H    0.157686
    21  C   -0.132597
    22  H    0.202108
    23  N   -0.590275
    24  H    0.383616
    25  C   -0.091854
    26  H    0.197891
    27  C    0.630733
    28  C   -0.014642
    29  H    0.154037
    30  H    0.168420
    31  O   -0.538751
    32  O   -0.627568
    33  H    0.415559
    34  N   -0.602411
    35  H    0.349295
    36  C   -0.114727
    37  H    0.229500
    38  C    0.634510
    39  C   -0.039595
    40  H    0.143468
    41  H    0.161107
    42  O   -0.545995
    43  O   -0.617033
    44  H    0.424141
    45  N   -0.613456
    46  H    0.375045
    47  C   -0.083551
    48  H    0.205441
    49  C    0.633253
    50  C   -0.348567
    51  H    0.200873
    52  H    0.204442
    53  O   -0.517259
    54  C    0.573042
    55  O   -0.478797
    56  O   -0.546662
    57  N   -0.599078
    58  H    0.361379
    59  C   -0.074233
    60  H    0.220150
    61  C    0.594816
    62  C   -0.276892
    63  H    0.176448
    64  H    0.141051
    65  O   -0.451858
    66  C   -0.280510
    67  H    0.127217
    68  H    0.176088
    69  C   -0.187177
    70  H    0.149351
    71  H    0.179970
    72  N   -0.589518
    73  H    0.330546
    74  N   -0.746825
    75  H    0.341432
    76  H    0.326252
    77  N   -0.684491
    78  H    0.283166
    79  C    0.602774
    80  O   -0.566591
    81  H    0.416458
    82  H    0.421714
 Sum of Mulliken charges =   1.00000

 Dipole moment (field-independent basis, Debye):
    X=            -11.4813    Y=              0.5059    Z=            -17.9261  Tot=             21.2937
 Quadrupole moment (field-independent basis, Debye-Ang):
   XX=           -134.7956   YY=           -243.3554   ZZ=           -141.8740
   XY=            -39.0635   XZ=             52.1515   YZ=            -21.0513

 Normal termination of Gaussian 16 at Mon May 16 06:35:29 2022.
