 Gaussian 16, Revision C.01,
 Gaussian 16:  ES64L-G16RevC.01  3-Jul-2019

 ----------------------------------------------------------------------
 # B3LYP/6-31G* empiricaldispersion=gd3 guess=read geom=check nosymm in
 tegral(ultrafinegrid)
 ----------------------------------------------------------------------

 ------------------------------------------------------
 Candidate Structure: Conf:474 Charge calc in gas phase
 ------------------------------------------------------
 Structure from the checkpoint file:  "conf-474.chk"
 Charge =  1 Multiplicity = 1

                          Input orientation:
 ---------------------------------------------------------------------
 Center     Atomic      Atomic             Coordinates (Angstroms)
 Number     Number       Type             X           Y           Z
 ---------------------------------------------------------------------
      1          7           0       -4.747791   -0.543998   -6.748403
      2          1           0       -4.053933   -0.451414   -7.495254
      3          1           0       -4.663952   -1.512646   -6.342078
      4          1           0       -5.683498   -0.352613   -7.138992
      5          6           0       -4.457362    0.346795   -5.563116
      6          1           0       -3.846513    1.184023   -5.906802
      7          6           0       -3.702667   -0.587719   -4.588149
      8          6           0       -5.786050    0.853965   -4.951241
      9          1           0       -6.297073    0.007629   -4.476920
     10          1           0       -5.523086    1.555173   -4.152267
     11          8           0       -3.783797   -1.808596   -4.782586
     12          6           0       -6.669506    1.501419   -5.994319
     13          6           0       -7.727802    0.779560   -6.569616
     14          1           0       -7.982393   -0.207098   -6.184717
     15          6           0       -6.393754    2.794513   -6.461697
     16          1           0       -5.584213    3.368987   -6.016210
     17          6           0       -8.496457    1.341963   -7.594506
     18          1           0       -9.321260    0.779139   -8.021223
     19          6           0       -7.164064    3.356266   -7.478751
     20          1           0       -6.950563    4.363848   -7.822948
     21          6           0       -8.213339    2.629133   -8.050378
     22          1           0       -8.812813    3.070696   -8.840578
     23          7           0       -3.071153    0.006422   -3.582746
     24          1           0       -3.065904    1.019952   -3.453215
     25          6           0       -2.406360   -0.698515   -2.494429
     26          1           0       -3.034770   -1.525693   -2.149161
     27          6           0       -2.205089    0.350247   -1.393160
     28          6           0       -1.034309   -1.285180   -2.948395
     29          1           0       -0.421195   -0.464661   -3.345909
     30          1           0       -1.234374   -1.997046   -3.755504
     31          8           0       -2.365576    1.545658   -1.636512
     32          8           0       -0.396322   -1.964738   -1.894677
     33          1           0        0.198311   -1.316740   -1.452222
     34          7           0       -1.821532   -0.153868   -0.191379
     35          1           0       -1.527794   -1.126901   -0.225490
     36          6           0       -1.120103    0.693371    0.758365
     37          1           0       -1.449905    1.721576    0.579196
     38          6           0        0.403402    0.624464    0.471496
     39          6           0       -1.498604    0.332893    2.202972
     40          1           0       -1.030504   -0.620003    2.492683
     41          1           0       -2.588705    0.211791    2.256572
     42          8           0        0.844185    0.112427   -0.570737
     43          8           0       -1.056038    1.410411    3.022402
     44          1           0       -0.990277    1.113728    3.942721
     45          7           0        1.193347    1.165048    1.405272
     46          1           0        0.786867    1.559025    2.255746
     47          6           0        2.642403    1.149990    1.314665
     48          1           0        2.969836    0.188737    0.907319
     49          6           0        3.170257    1.358716    2.745375
     50          6           0        3.136876    2.280710    0.382338
     51          1           0        2.512893    2.283946   -0.518155
     52          1           0        3.026101    3.257986    0.863318
     53          8           0        2.457067    1.855489    3.613703
     54          6           0        4.571971    2.132647   -0.069041
     55          8           0        5.329760    1.224599    0.225294
     56          8           0        4.926118    3.130733   -0.893449
     57          7           0        4.464946    1.004401    2.940256
     58          1           0        4.995207    0.799630    2.095329
     59          6           0        5.207009    1.612825    4.033252
     60          1           0        4.684688    1.420413    4.974011
     61          6           0        5.246942    3.130780    3.812255
     62          6           0        6.624478    1.011296    4.077373
     63          1           0        7.148697    1.286555    3.149783
     64          1           0        6.507339   -0.078892    4.075554
     65          8           0        5.109737    3.675353    2.737243
     66          6           0        7.466805    1.408930    5.292305
     67          1           0        6.907532    1.184940    6.210776
     68          1           0        7.654386    2.488363    5.299013
     69          6           0        8.814003    0.671599    5.320016
     70          1           0        9.385557    0.893145    4.414398
     71          1           0        9.408834    1.037116    6.168000
     72          7           0        8.659067   -0.783044    5.410393
     73          1           0        8.600811   -1.140584    6.355163
     74          7           0        9.367281   -1.199467    3.216798
     75          1           0        9.715929   -1.933301    2.609725
     76          1           0        8.515119   -0.787284    2.851039
     77          7           0        9.679393   -2.866404    4.794908
     78          1           0        9.684905   -3.042241    5.801697
     79          6           0        9.256343   -1.684795    4.526319
     80          8           0        5.486263    3.797907    4.957500
     81          1           0        5.860768    2.985946   -1.135644
     82          1           0        5.521982    4.747917    4.734270
 ---------------------------------------------------------------------

 SCF Done:  E(RB3LYP) =  -2166.36696451     A.U. after    1 cycles

 Alpha  occ. eigenvalues --  -19.26854 -19.26607 -19.26303 -19.24256 -19.22550
 Alpha  occ. eigenvalues --  -19.22285 -19.21770 -19.20931 -19.20636 -19.19010
 Alpha  occ. eigenvalues --  -14.59885 -14.49606 -14.45680 -14.43772 -14.41988
 Alpha  occ. eigenvalues --  -14.39040 -14.37558 -14.31656 -10.43551 -10.40939
 Alpha  occ. eigenvalues --  -10.39992 -10.39275 -10.38468 -10.37675 -10.35807
 Alpha  occ. eigenvalues --  -10.34405 -10.34033 -10.32966 -10.32807 -10.32581
 Alpha  occ. eigenvalues --  -10.32421 -10.31459 -10.31330 -10.31312 -10.30970
 Alpha  occ. eigenvalues --  -10.30665 -10.30551 -10.30273 -10.30239 -10.27692
 Alpha  occ. eigenvalues --  -10.26783 -10.25627 -10.24117  -1.19105  -1.18102
 Alpha  occ. eigenvalues --   -1.17179  -1.14652  -1.13883  -1.12559  -1.11308
 Alpha  occ. eigenvalues --   -1.10893  -1.09998  -1.09040  -1.08126  -1.06133
 Alpha  occ. eigenvalues --   -1.02550  -1.00934  -1.00679  -0.99455  -0.98054
 Alpha  occ. eigenvalues --   -0.93576  -0.92384  -0.88757  -0.87875  -0.87479
 Alpha  occ. eigenvalues --   -0.86324  -0.86087  -0.85191  -0.83675  -0.79908
 Alpha  occ. eigenvalues --   -0.79730  -0.77263  -0.75753  -0.74084  -0.73554
 Alpha  occ. eigenvalues --   -0.73479  -0.72894  -0.72032  -0.70843  -0.70517
 Alpha  occ. eigenvalues --   -0.69211  -0.68758  -0.67815  -0.66319  -0.65765
 Alpha  occ. eigenvalues --   -0.65076  -0.64139  -0.63842  -0.63287  -0.63038
 Alpha  occ. eigenvalues --   -0.62056  -0.61591  -0.61117  -0.59220  -0.58282
 Alpha  occ. eigenvalues --   -0.58163  -0.57948  -0.57897  -0.57468  -0.57071
 Alpha  occ. eigenvalues --   -0.56822  -0.56676  -0.56138  -0.55286  -0.54970
 Alpha  occ. eigenvalues --   -0.54618  -0.54083  -0.53958  -0.53831  -0.53659
 Alpha  occ. eigenvalues --   -0.53228  -0.53012  -0.52510  -0.52022  -0.51915
 Alpha  occ. eigenvalues --   -0.51560  -0.51161  -0.50865  -0.50684  -0.50573
 Alpha  occ. eigenvalues --   -0.50101  -0.48994  -0.48801  -0.48583  -0.48465
 Alpha  occ. eigenvalues --   -0.47813  -0.47806  -0.46958  -0.46801  -0.46413
 Alpha  occ. eigenvalues --   -0.46228  -0.46097  -0.45811  -0.45286  -0.44302
 Alpha  occ. eigenvalues --   -0.44270  -0.43024  -0.42500  -0.42343  -0.41625
 Alpha  occ. eigenvalues --   -0.41170  -0.40832  -0.40281  -0.40215  -0.39356
 Alpha  occ. eigenvalues --   -0.39047  -0.38080  -0.37059  -0.36971  -0.36701
 Alpha  occ. eigenvalues --   -0.36557  -0.36386  -0.35699  -0.35344  -0.34703
 Alpha  occ. eigenvalues --   -0.34204  -0.34014  -0.32856  -0.32262  -0.29969
 Alpha  occ. eigenvalues --   -0.29130  -0.25944
 Alpha virt. eigenvalues --   -0.13416  -0.12736  -0.11160  -0.10110  -0.08303
 Alpha virt. eigenvalues --   -0.06761  -0.06485  -0.06024  -0.05065  -0.04513
 Alpha virt. eigenvalues --   -0.02968  -0.02124  -0.01630  -0.01292  -0.00640

 Mulliken charges:
               1
     1  N   -0.749165
     2  H    0.416552
     3  H    0.426937
     4  H    0.405653
     5  C   -0.115098
     6  H    0.213554
     7  C    0.658738
     8  C   -0.384369
     9  H    0.195378
    10  H    0.209906
    11  O   -0.537522
    12  C    0.139187
    13  C   -0.232435
    14  H    0.152902
    15  C   -0.181301
    16  H    0.147834
    17  C   -0.119722
    18  H    0.169146
    19  C   -0.122276
    20  H    0.169336
    21  C   -0.123842
    22  H    0.170899
    23  N   -0.616694
    24  H    0.370736
    25  C   -0.077713
    26  H    0.200431
    27  C    0.608227
    28  C   -0.034615
    29  H    0.150936
    30  H    0.174058
    31  O   -0.529958
    32  O   -0.643670
    33  H    0.448811
    34  N   -0.594119
    35  H    0.348947
    36  C   -0.092967
    37  H    0.228224
    38  C    0.621905
    39  C   -0.045909
    40  H    0.146532
    41  H    0.163729
    42  O   -0.576939
    43  O   -0.614138
    44  H    0.422678
    45  N   -0.619004
    46  H    0.396516
    47  C   -0.048470
    48  H    0.194975
    49  C    0.613888
    50  C   -0.368038
    51  H    0.207843
    52  H    0.219718
    53  O   -0.533314
    54  C    0.623843
    55  O   -0.492084
    56  O   -0.552680
    57  N   -0.621935
    58  H    0.378206
    59  C   -0.029076
    60  H    0.195907
    61  C    0.600777
    62  C   -0.314136
    63  H    0.150830
    64  H    0.179054
    65  O   -0.480522
    66  C   -0.254044
    67  H    0.142464
    68  H    0.152271
    69  C   -0.158561
    70  H    0.182358
    71  H    0.152246
    72  N   -0.594854
    73  H    0.315499
    74  N   -0.741568
    75  H    0.339791
    76  H    0.319002
    77  N   -0.633790
    78  H    0.263473
    79  C    0.558468
    80  O   -0.555149
    81  H    0.421999
    82  H    0.419315
 Sum of Mulliken charges =   1.00000

 Dipole moment (field-independent basis, Debye):
    X=            -17.0732    Y=              5.7723    Z=            -20.1352  Tot=             27.0229
 Quadrupole moment (field-independent basis, Debye-Ang):
   XX=           -114.6919   YY=           -246.3846   ZZ=            -28.1721
   XY=             27.4025   XZ=            156.7688   YZ=             -5.9309

 Normal termination of Gaussian 16 at Mon May 16 06:35:23 2022.
