 Gaussian 16, Revision C.01,
 Gaussian 16:  ES64L-G16RevC.01  3-Jul-2019

 ----------------------------------------------------------------------
 # B3LYP/6-31G* empiricaldispersion=gd3 guess=read geom=check nosymm in
 tegral(ultrafinegrid)
 ----------------------------------------------------------------------

 ------------------------------------------------------
 Candidate Structure: Conf:684 Charge calc in gas phase
 ------------------------------------------------------
 Structure from the checkpoint file:  "conf-684.chk"
 Charge =  1 Multiplicity = 1

                          Input orientation:
 ---------------------------------------------------------------------
 Center     Atomic      Atomic             Coordinates (Angstroms)
 Number     Number       Type             X           Y           Z
 ---------------------------------------------------------------------
      1          7           0       -0.775860   -1.821528   -4.625128
      2          1           0        0.849762   -1.976682   -4.022363
      3          1           0       -1.205408   -2.694731   -4.305200
      4          1           0       -0.921604   -1.786741   -5.635561
      5          6           0       -1.519479   -0.709723   -3.991540
      6          1           0       -1.053357    0.222226   -4.330113
      7          6           0       -1.343523   -0.871755   -2.478355
      8          6           0       -3.028137   -0.674458   -4.352438
      9          1           0       -3.490198   -1.594598   -3.974551
     10          1           0       -3.490615    0.162727   -3.815632
     11          8           0       -1.400488   -2.004030   -1.974917
     12          6           0       -3.236895   -0.535238   -5.842882
     13          6           0       -3.144926    0.721697   -6.457166
     14          1           0       -2.983458    1.607309   -5.845574
     15          6           0       -3.455101   -1.663308   -6.645683
     16          1           0       -3.548950   -2.643025   -6.181218
     17          6           0       -3.272465    0.849128   -7.840003
     18          1           0       -3.209699    1.831213   -8.300118
     19          6           0       -3.581499   -1.539006   -8.031525
     20          1           0       -3.761291   -2.421683   -8.638760
     21          6           0       -3.489169   -0.282340   -8.631116
     22          1           0       -3.593612   -0.182677   -9.707569
     23          7           0       -1.139561    0.262656   -1.785236
     24          1           0       -1.011810    1.149115   -2.270883
     25          6           0       -0.747434    0.325179   -0.382695
     26          1           0       -1.562369   -0.004438    0.271366
     27          6           0       -0.356781    1.782323   -0.088871
     28          6           0        0.505072   -0.596850   -0.162266
     29          1           0        1.161806   -0.432482   -1.027450
     30          1           0        0.147668   -1.621071   -0.166135
     31          8           0       -0.201949    2.606933   -0.980507
     32          8           0        1.212662   -0.408800    1.046009
     33          1           0        1.754329    0.397877    0.894253
     34          7           0       -0.158348    2.017985    1.242342
     35          1           0       -0.158758    1.176768    1.810366
     36          6           0        0.815809    3.011572    1.678366
     37          1           0        0.392549    4.019617    1.660086
     38          6           0        2.076083    2.951673    0.810815
     39          6           0        1.235820    2.643368    3.140082
     40          1           0        1.515135    1.577327    3.152989
     41          1           0        0.359137    2.772464    3.782915
     42          8           0        2.384178    1.928363    0.175828
     43          8           0        2.259792    3.459664    3.639097
     44          1           0        3.118274    3.112949    3.330509
     45          7           0        2.901341    4.017149    0.880134
     46          1           0        2.754093    4.693564    1.629106
     47          6           0        4.274997    3.845245    0.424955
     48          1           0        4.267987    3.795821   -0.669864
     49          6           0        4.835579    2.511122    0.972409
     50          6           0        5.162844    5.039157    0.831271
     51          1           0        6.177081    4.873881    0.461865
     52          1           0        4.763635    5.945737    0.364090
     53          8           0        4.638286    2.157622    2.133768
     54          6           0        5.165426    5.271280    2.330098
     55          8           0        4.171228    5.579276    2.956338
     56          8           0        6.375381    5.097247    2.883042
     57          7           0        5.558623    1.813940    0.067027
     58          1           0        5.537361    2.110201   -0.901118
     59          6           0        5.902574    0.414475    0.268997
     60          1           0        6.269067    0.287463    1.289269
     61          6           0        6.979025    0.060127   -0.744681
     62          6           0        4.650349   -0.471001    0.013369
     63          1           0        4.260027   -0.173074   -0.967625
     64          1           0        3.889521   -0.183391    0.742539
     65          8           0        6.984442    0.483583   -1.881733
     66          6           0        4.857258   -1.990061    0.067563
     67          1           0        5.115370   -2.302208    1.085445
     68          1           0        5.697925   -2.304611   -0.566014
     69          6           0        3.598760   -2.761231   -0.359734
     70          1           0        3.755998   -3.839670   -0.235446
     71          1           0        2.754590   -2.448502    0.267013
     72          7           0        3.280386   -2.457598   -1.768014
     73          1           0        4.033516   -2.068103   -2.317877
     74          7           0        1.126058   -3.319337   -1.805263
     75          1           0        0.154739   -3.063932   -1.985795
     76          1           0        1.317896   -3.795649   -0.936700
     77          7           0        1.828118   -1.920862   -3.507562
     78          1           0        2.520854   -1.280796   -3.870276
     79          6           0        2.081871   -2.559669   -2.362221
     80          8           0        7.867185   -0.824342   -0.261860
     81          1           0        6.282274    5.255694    3.843065
     82          1           0        8.503567   -1.024831   -0.976431
 ---------------------------------------------------------------------

 SCF Done:  E(RB3LYP) =  -2166.42636116     A.U. after    1 cycles

 Alpha  occ. eigenvalues --  -19.30675 -19.28444 -19.24992 -19.24347 -19.23245
 Alpha  occ. eigenvalues --  -19.23040 -19.22756 -19.22367 -19.22195 -19.22121
 Alpha  occ. eigenvalues --  -14.50404 -14.48661 -14.48241 -14.47297 -14.46658
 Alpha  occ. eigenvalues --  -14.46038 -14.45448 -14.45351 -10.45720 -10.42965
 Alpha  occ. eigenvalues --  -10.41199 -10.40207 -10.39343 -10.39224 -10.38873
 Alpha  occ. eigenvalues --  -10.35228 -10.34568 -10.34546 -10.33844 -10.33748
 Alpha  occ. eigenvalues --  -10.33537 -10.32805 -10.32744 -10.30910 -10.30479
 Alpha  occ. eigenvalues --  -10.30023 -10.28916 -10.28103 -10.27090 -10.26970
 Alpha  occ. eigenvalues --  -10.26799 -10.26755 -10.26548  -1.21575  -1.19410
 Alpha  occ. eigenvalues --   -1.15618  -1.15055  -1.14276  -1.14030  -1.13169
 Alpha  occ. eigenvalues --   -1.12638  -1.11772  -1.10498  -1.10040  -1.03975
 Alpha  occ. eigenvalues --   -1.03628  -1.03561  -1.02943  -1.02531  -1.01960
 Alpha  occ. eigenvalues --   -1.01116  -0.93538  -0.91779  -0.89681  -0.88126
 Alpha  occ. eigenvalues --   -0.86646  -0.86295  -0.83984  -0.82288  -0.80856
 Alpha  occ. eigenvalues --   -0.80349  -0.78522  -0.76547  -0.76285  -0.74530
 Alpha  occ. eigenvalues --   -0.74028  -0.73014  -0.71962  -0.71299  -0.69708
 Alpha  occ. eigenvalues --   -0.69277  -0.68808  -0.68484  -0.68363  -0.67267
 Alpha  occ. eigenvalues --   -0.66865  -0.66384  -0.64634  -0.63919  -0.63181
 Alpha  occ. eigenvalues --   -0.62630  -0.62238  -0.61274  -0.60926  -0.60523
 Alpha  occ. eigenvalues --   -0.60011  -0.60004  -0.59524  -0.59132  -0.58845
 Alpha  occ. eigenvalues --   -0.58269  -0.57573  -0.57268  -0.57098  -0.56458
 Alpha  occ. eigenvalues --   -0.56216  -0.55810  -0.55458  -0.55225  -0.54677
 Alpha  occ. eigenvalues --   -0.54236  -0.53793  -0.53516  -0.53222  -0.53070
 Alpha  occ. eigenvalues --   -0.52787  -0.52653  -0.51972  -0.51640  -0.51297
 Alpha  occ. eigenvalues --   -0.50977  -0.50471  -0.50327  -0.50026  -0.49787
 Alpha  occ. eigenvalues --   -0.49589  -0.49402  -0.49250  -0.48695  -0.48202
 Alpha  occ. eigenvalues --   -0.47800  -0.47518  -0.47252  -0.46543  -0.46158
 Alpha  occ. eigenvalues --   -0.46104  -0.45329  -0.44558  -0.43829  -0.43703
 Alpha  occ. eigenvalues --   -0.42567  -0.42120  -0.41899  -0.41291  -0.40491
 Alpha  occ. eigenvalues --   -0.40257  -0.39425  -0.38954  -0.38886  -0.38718
 Alpha  occ. eigenvalues --   -0.37908  -0.37655  -0.37085  -0.36728  -0.36247
 Alpha  occ. eigenvalues --   -0.35887  -0.35862  -0.35286  -0.35043  -0.34434
 Alpha  occ. eigenvalues --   -0.32944  -0.32380
 Alpha virt. eigenvalues --   -0.10422  -0.10257  -0.09921  -0.09741  -0.08501
 Alpha virt. eigenvalues --   -0.08184  -0.08095  -0.07760  -0.07203  -0.06343
 Alpha virt. eigenvalues --   -0.03531  -0.02386  -0.02069  -0.01345  -0.00979

 Mulliken charges:
               1
     1  N   -0.776503
     2  H    0.441266
     3  H    0.337907
     4  H    0.347227
     5  C   -0.069729
     6  H    0.162075
     7  C    0.650927
     8  C   -0.366616
     9  H    0.172587
    10  H    0.172119
    11  O   -0.574343
    12  C    0.161309
    13  C   -0.182346
    14  H    0.131940
    15  C   -0.204268
    16  H    0.131002
    17  C   -0.126328
    18  H    0.150329
    19  C   -0.126012
    20  H    0.149962
    21  C   -0.127618
    22  H    0.152184
    23  N   -0.621886
    24  H    0.366269
    25  C   -0.058473
    26  H    0.195620
    27  C    0.612571
    28  C   -0.060572
    29  H    0.136514
    30  H    0.167348
    31  O   -0.521264
    32  O   -0.670327
    33  H    0.454933
    34  N   -0.607775
    35  H    0.351729
    36  C   -0.071525
    37  H    0.198961
    38  C    0.655168
    39  C   -0.065703
    40  H    0.147439
    41  H    0.181795
    42  O   -0.585726
    43  O   -0.622763
    44  H    0.428501
    45  N   -0.607203
    46  H    0.391856
    47  C   -0.063109
    48  H    0.172256
    49  C    0.677254
    50  C   -0.373491
    51  H    0.197876
    52  H    0.211330
    53  O   -0.551008
    54  C    0.588564
    55  O   -0.450727
    56  O   -0.545825
    57  N   -0.606907
    58  H    0.352474
    59  C   -0.032924
    60  H    0.209226
    61  C    0.577177
    62  C   -0.276306
    63  H    0.138872
    64  H    0.195149
    65  O   -0.467169
    66  C   -0.322101
    67  H    0.188214
    68  H    0.159365
    69  C   -0.155773
    70  H    0.182140
    71  H    0.204333
    72  N   -0.611565
    73  H    0.351456
    74  N   -0.770227
    75  H    0.412802
    76  H    0.370676
    77  N   -0.809795
    78  H    0.350528
    79  C    0.790947
    80  O   -0.551511
    81  H    0.427939
    82  H    0.427300
 Sum of Mulliken charges =   1.00000

 Dipole moment (field-independent basis, Debye):
    X=             11.8807    Y=             -3.4805    Z=            -10.9112  Tot=             16.5021
 Quadrupole moment (field-independent basis, Debye-Ang):
   XX=           -155.8770   YY=           -205.3929   ZZ=           -182.6918
   XY=              4.9276   XZ=              9.0729   YZ=             17.9511

 Normal termination of Gaussian 16 at Mon May 16 06:35:24 2022.
