 Gaussian 16, Revision C.01,
 Gaussian 16:  ES64L-G16RevC.01  3-Jul-2019

 ----------------------------------------------------------------------
 # B3LYP/6-31G* empiricaldispersion=gd3 guess=read geom=check nosymm in
 tegral(ultrafinegrid)
 ----------------------------------------------------------------------

 ------------------------------------------------------
 Candidate Structure: Conf:497 Charge calc in gas phase
 ------------------------------------------------------
 Structure from the checkpoint file:  "conf-497.chk"
 Charge =  1 Multiplicity = 1

                          Input orientation:
 ---------------------------------------------------------------------
 Center     Atomic      Atomic             Coordinates (Angstroms)
 Number     Number       Type             X           Y           Z
 ---------------------------------------------------------------------
      1          7           0       -4.878321   -2.759964   -5.330508
      2          1           0       -4.665449   -2.451804   -6.284632
      3          1           0       -4.154947   -3.479422   -5.046807
      4          1           0       -5.825490   -3.148561   -5.310230
      5          6           0       -4.650194   -1.678734   -4.290163
      6          1           0       -4.803284   -0.702930   -4.754693
      7          6           0       -3.177687   -1.920510   -3.881647
      8          6           0       -5.617993   -1.892662   -3.096896
      9          1           0       -6.631431   -1.623912   -3.421297
     10          1           0       -5.615157   -2.959419   -2.839146
     11          8           0       -2.737965   -3.075626   -4.016821
     12          6           0       -5.167595   -1.073872   -1.908169
     13          6           0       -4.416875   -1.679270   -0.892824
     14          1           0       -4.280314   -2.758941   -0.896320
     15          6           0       -5.338337    0.316239   -1.898568
     16          1           0       -5.932559    0.797266   -2.673866
     17          6           0       -3.812738   -0.906684    0.099041
     18          1           0       -3.211363   -1.388191    0.865222
     19          6           0       -4.730089    1.090703   -0.908190
     20          1           0       -4.849194    2.169804   -0.919835
     21          6           0       -3.954420    0.483881    0.082346
     22          1           0       -3.435501    1.081357    0.824351
     23          7           0       -2.528205   -0.886314   -3.376983
     24          1           0       -2.965044    0.029826   -3.302446
     25          6           0       -1.206722   -0.962332   -2.770278
     26          1           0       -1.119885   -1.899405   -2.213380
     27          6           0       -1.077202    0.275457   -1.876540
     28          6           0       -0.093419   -0.887297   -3.851465
     29          1           0       -0.111391   -1.811747   -4.435754
     30          1           0        0.877557   -0.814038   -3.336533
     31          8           0       -1.552357    1.343778   -2.278347
     32          8           0       -0.317667    0.167408   -4.758873
     33          1           0       -0.373823    0.996454   -4.252570
     34          7           0       -0.374265    0.112418   -0.744269
     35          1           0        0.082571   -0.784516   -0.576506
     36          6           0        0.199251    1.238711   -0.028394
     37          1           0       -0.343157    2.137056   -0.331166
     38          6           0        1.686396    1.303311   -0.399403
     39          6           0        0.051674    1.031143    1.506360
     40          1           0        0.365377    1.943962    2.022411
     41          1           0        0.741697    0.237622    1.826273
     42          8           0        2.239696    0.331677   -0.911398
     43          8           0       -1.275078    0.745229    1.867749
     44          1           0       -1.384742   -0.227507    1.769314
     45          7           0        2.381486    2.436080   -0.062171
     46          1           0        1.939509    3.052519    0.610543
     47          6           0        3.816203    2.236481    0.113959
     48          1           0        4.200053    1.801408   -0.809799
     49          6           0        4.010889    1.251653    1.286120
     50          6           0        4.595172    3.535545    0.395505
     51          1           0        4.444024    4.238400   -0.428560
     52          1           0        4.280787    3.991030    1.338474
     53          8           0        3.253003    1.270325    2.253343
     54          6           0        6.059578    3.122460    0.444775
     55          8           0        6.645290    2.653839   -0.509043
     56          8           0        6.580419    3.195490    1.681128
     57          7           0        5.047504    0.390728    1.161048
     58          1           0        5.692819    0.494314    0.386737
     59          6           0        5.397927   -0.527586    2.226258
     60          1           0        5.007339   -0.097333    3.158447
     61          6           0        6.916185   -0.536689    2.373030
     62          6           0        4.748635   -1.917723    2.037069
     63          1           0        5.090810   -2.570959    2.847700
     64          1           0        5.101561   -2.357764    1.095186
     65          8           0        7.662086    0.278159    1.871027
     66          6           0        3.214532   -1.814597    2.048930
     67          1           0        2.865167   -1.232552    1.189540
     68          1           0        2.906841   -1.256854    2.941642
     69          6           0        2.502076   -3.173868    2.056397
     70          1           0        2.580949   -3.669284    1.082574
     71          1           0        2.968758   -3.854193    2.777641
     72          7           0        1.087727   -3.069111    2.446625
     73          1           0        0.971948   -2.826819    3.423688
     74          7           0        0.191550   -2.756657    0.278950
     75          1           0       -0.726660   -2.890743   -0.132441
     76          1           0        0.824592   -3.493596   -0.011029
     77          7           0       -1.049924   -2.078701    2.098757
     78          1           0       -1.049446   -1.983066    3.114602
     79          6           0        0.050655   -2.609602    1.668229
     80          8           0        7.336717   -1.539443    3.165052
     81          1           0        7.431824    2.712308    1.658819
     82          1           0        8.306375   -1.455650    3.246285
 ---------------------------------------------------------------------

 SCF Done:  E(RB3LYP) =  -2166.37619783     A.U. after    2 cycles

 Alpha  occ. eigenvalues --  -19.28238 -19.26152 -19.26085 -19.22712 -19.22571
 Alpha  occ. eigenvalues --  -19.21350 -19.20546 -19.20505 -19.20286 -19.19462
 Alpha  occ. eigenvalues --  -14.60457 -14.48850 -14.45053 -14.45018 -14.44713
 Alpha  occ. eigenvalues --  -14.44340 -14.44085 -14.38583 -10.42792 -10.40817
 Alpha  occ. eigenvalues --  -10.40555 -10.39064 -10.38707 -10.38394 -10.37205
 Alpha  occ. eigenvalues --  -10.36445 -10.33885 -10.33722 -10.32512 -10.32214
 Alpha  occ. eigenvalues --  -10.31612 -10.31587 -10.31065 -10.30690 -10.29953
 Alpha  occ. eigenvalues --  -10.28521 -10.28303 -10.28100 -10.27767 -10.27415
 Alpha  occ. eigenvalues --  -10.27270 -10.26959 -10.26457  -1.19233  -1.18657
 Alpha  occ. eigenvalues --   -1.17181  -1.14107  -1.13474  -1.12650  -1.11288
 Alpha  occ. eigenvalues --   -1.10197  -1.10121  -1.08258  -1.08169  -1.07636
 Alpha  occ. eigenvalues --   -1.05478  -1.01543  -1.00987  -1.00687  -0.98838
 Alpha  occ. eigenvalues --   -0.96049  -0.94268  -0.92149  -0.88723  -0.87686
 Alpha  occ. eigenvalues --   -0.86665  -0.84569  -0.83496  -0.82940  -0.82709
 Alpha  occ. eigenvalues --   -0.79055  -0.76636  -0.75693  -0.75458  -0.73901
 Alpha  occ. eigenvalues --   -0.73187  -0.72298  -0.71051  -0.70453  -0.69884
 Alpha  occ. eigenvalues --   -0.69498  -0.68663  -0.68148  -0.67467  -0.67235
 Alpha  occ. eigenvalues --   -0.66646  -0.66404  -0.65643  -0.65176  -0.62917
 Alpha  occ. eigenvalues --   -0.62383  -0.61050  -0.60119  -0.59718  -0.59188
 Alpha  occ. eigenvalues --   -0.58720  -0.58361  -0.57618  -0.57388  -0.57128
 Alpha  occ. eigenvalues --   -0.56941  -0.56647  -0.56212  -0.56076  -0.55784
 Alpha  occ. eigenvalues --   -0.54959  -0.54805  -0.54448  -0.54385  -0.54140
 Alpha  occ. eigenvalues --   -0.53792  -0.53198  -0.52531  -0.52172  -0.51863
 Alpha  occ. eigenvalues --   -0.51552  -0.51066  -0.51007  -0.50698  -0.50371
 Alpha  occ. eigenvalues --   -0.50105  -0.49766  -0.49493  -0.49174  -0.48974
 Alpha  occ. eigenvalues --   -0.48724  -0.48623  -0.47793  -0.46923  -0.46455
 Alpha  occ. eigenvalues --   -0.46138  -0.45531  -0.45363  -0.45050  -0.44907
 Alpha  occ. eigenvalues --   -0.44502  -0.43527  -0.43422  -0.43111  -0.42956
 Alpha  occ. eigenvalues --   -0.42558  -0.41856  -0.40726  -0.40395  -0.40137
 Alpha  occ. eigenvalues --   -0.38650  -0.38340  -0.37085  -0.36431  -0.36099
 Alpha  occ. eigenvalues --   -0.35854  -0.35694  -0.35170  -0.34897  -0.34612
 Alpha  occ. eigenvalues --   -0.34229  -0.33992  -0.33638  -0.33538  -0.32899
 Alpha  occ. eigenvalues --   -0.32494  -0.31846
 Alpha virt. eigenvalues --   -0.12203  -0.10978  -0.10220  -0.09411  -0.07789
 Alpha virt. eigenvalues --   -0.07510  -0.07218  -0.06341  -0.05838  -0.05490
 Alpha virt. eigenvalues --   -0.05251  -0.03915  -0.02844  -0.01842  -0.00817

 Mulliken charges:
               1
     1  N   -0.750729
     2  H    0.420238
     3  H    0.428174
     4  H    0.415437
     5  C   -0.112747
     6  H    0.215639
     7  C    0.656176
     8  C   -0.378199
     9  H    0.185151
    10  H    0.176615
    11  O   -0.559246
    12  C    0.153020
    13  C   -0.189559
    14  H    0.132458
    15  C   -0.210486
    16  H    0.131605
    17  C   -0.160973
    18  H    0.186975
    19  C   -0.112762
    20  H    0.158636
    21  C   -0.134090
    22  H    0.190368
    23  N   -0.560236
    24  H    0.377826
    25  C   -0.080816
    26  H    0.160296
    27  C    0.620705
    28  C   -0.039457
    29  H    0.171496
    30  H    0.171417
    31  O   -0.552299
    32  O   -0.615799
    33  H    0.410030
    34  N   -0.607388
    35  H    0.392875
    36  C   -0.116373
    37  H    0.198060
    38  C    0.628643
    39  C   -0.055635
    40  H    0.158094
    41  H    0.148818
    42  O   -0.531172
    43  O   -0.646689
    44  H    0.453501
    45  N   -0.586689
    46  H    0.342552
    47  C   -0.068506
    48  H    0.208614
    49  C    0.624909
    50  C   -0.346595
    51  H    0.200427
    52  H    0.185968
    53  O   -0.551921
    54  C    0.564822
    55  O   -0.460828
    56  O   -0.551538
    57  N   -0.589588
    58  H    0.360275
    59  C   -0.059594
    60  H    0.215770
    61  C    0.588940
    62  C   -0.264932
    63  H    0.168145
    64  H    0.150908
    65  O   -0.470154
    66  C   -0.284366
    67  H    0.183877
    68  H    0.160646
    69  C   -0.165120
    70  H    0.153338
    71  H    0.170928
    72  N   -0.584034
    73  H    0.333228
    74  N   -0.773862
    75  H    0.353282
    76  H    0.342641
    77  N   -0.702808
    78  H    0.298317
    79  C    0.620645
    80  O   -0.557430
    81  H    0.433927
    82  H    0.428209
 Sum of Mulliken charges =   1.00000

 Dipole moment (field-independent basis, Debye):
    X=             -9.7342    Y=            -11.2694    Z=            -10.6621  Tot=             18.3149
 Quadrupole moment (field-independent basis, Debye-Ang):
   XX=           -117.3865   YY=           -200.3836   ZZ=           -154.8254
   XY=             27.1909   XZ=            122.9423   YZ=             32.4414

 Normal termination of Gaussian 16 at Mon May 16 06:36:14 2022.
