 Gaussian 16, Revision C.01,
 Gaussian 16:  ES64L-G16RevC.01  3-Jul-2019

 ----------------------------------------------------------------------
 # B3LYP/6-31G* empiricaldispersion=gd3 guess=read geom=check nosymm in
 tegral(ultrafinegrid)
 ----------------------------------------------------------------------

 ------------------------------------------------------
 Candidate Structure: Conf:879 Charge calc in gas phase
 ------------------------------------------------------
 Structure from the checkpoint file:  "conf-879.chk"
 Charge =  1 Multiplicity = 1

                          Input orientation:
 ---------------------------------------------------------------------
 Center     Atomic      Atomic             Coordinates (Angstroms)
 Number     Number       Type             X           Y           Z
 ---------------------------------------------------------------------
      1          7           0       -5.729535    0.761860   -5.741847
      2          1           0       -6.179445    1.349094   -6.446726
      3          1           0       -5.163276   -0.023258   -6.168029
      4          1           0       -6.446695    0.325996   -5.137522
      5          6           0       -4.714751    1.482605   -4.882754
      6          1           0       -4.370766    2.355058   -5.446504
      7          6           0       -3.560427    0.440782   -4.795989
      8          6           0       -5.345514    1.913219   -3.535684
      9          1           0       -4.571722    2.417468   -2.947726
     10          1           0       -6.109000    2.671897   -3.746989
     11          8           0       -3.632889   -0.558356   -5.523043
     12          6           0       -5.934489    0.743770   -2.774432
     13          6           0       -7.262157    0.341753   -3.003330
     14          1           0       -7.923035    0.959643   -3.612912
     15          6           0       -5.143873    0.001079   -1.886754
     16          1           0       -4.136283    0.327076   -1.653693
     17          6           0       -7.772646   -0.804725   -2.385201
     18          1           0       -8.803211   -1.098924   -2.560874
     19          6           0       -5.654028   -1.140033   -1.268971
     20          1           0       -5.013526   -1.693445   -0.587713
     21          6           0       -6.964446   -1.552556   -1.527552
     22          1           0       -7.362290   -2.441760   -1.047587
     23          7           0       -2.564640    0.703483   -3.951255
     24          1           0       -2.647880    1.451067   -3.262610
     25          6           0       -1.631713   -0.330447   -3.509209
     26          1           0       -2.066489   -1.308869   -3.733182
     27          6           0       -1.512154   -0.142469   -1.986974
     28          6           0       -0.261122   -0.256425   -4.218435
     29          1           0        0.232852    0.692367   -3.973832
     30          1           0       -0.439738   -0.287207   -5.300521
     31          8           0       -1.957970    0.879535   -1.448508
     32          8           0        0.516208   -1.371073   -3.824103
     33          1           0        1.287488   -1.025183   -3.331463
     34          7           0       -0.933155   -1.162874   -1.336244
     35          1           0       -0.429595   -1.849651   -1.892777
     36          6           0       -0.700038   -1.151800    0.102451
     37          1           0       -1.182005   -0.255021    0.497167
     38          6           0        0.821038   -1.137888    0.295058
     39          6           0       -1.310051   -2.389255    0.760582
     40          1           0       -1.065441   -2.368906    1.834126
     41          1           0       -0.847280   -3.286311    0.325047
     42          8           0        1.503620   -2.061891   -0.146225
     43          8           0       -2.715162   -2.348149    0.540310
     44          1           0       -3.100211   -3.135272    0.954130
     45          7           0        1.340247   -0.048253    0.903285
     46          1           0        0.760070    0.711429    1.244055
     47          6           0        2.768916    0.159815    1.025401
     48          1           0        3.249625   -0.808107    1.195689
     49          6           0        2.994743    1.132891    2.192271
     50          6           0        3.370094    0.815985   -0.254441
     51          1           0        2.852385    1.758646   -0.443662
     52          1           0        4.433306    1.017500   -0.093462
     53          8           0        2.131185    1.949244    2.494231
     54          6           0        3.186846   -0.083724   -1.450980
     55          8           0        2.290668    0.045858   -2.269037
     56          8           0        4.105401   -1.055941   -1.492451
     57          7           0        4.205289    1.038442    2.799883
     58          1           0        4.895648    0.420870    2.390756
     59          6           0        4.715003    2.105911    3.650652
     60          1           0        3.852908    2.556191    4.150402
     61          6           0        5.372238    3.234970    2.852863
     62          6           0        5.702078    1.566806    4.699870
     63          1           0        6.173049    2.425930    5.185461
     64          1           0        6.513441    1.021419    4.198714
     65          8           0        5.708343    4.285586    3.340067
     66          6           0        5.020594    0.669074    5.739565
     67          1           0        4.438743   -0.115319    5.236307
     68          1           0        4.299071    1.268144    6.314154
     69          6           0        6.009208   -0.006168    6.705799
     70          1           0        5.453946   -0.637970    7.408880
     71          1           0        6.675904   -0.665667    6.144649
     72          7           0        6.831739    0.918821    7.488678
     73          1           0        6.286587    1.533855    8.082404
     74          7           0        8.721978    0.742751    6.115280
     75          1           0        9.581382    1.223745    5.870218
     76          1           0        8.916703   -0.171936    6.511959
     77          7           0        8.326777    2.773452    7.156935
     78          1           0        7.617872    3.304432    7.666831
     79          6           0        7.954371    1.562534    6.954672
     80          8           0        5.567624    2.920853    1.543904
     81          1           0        3.868765   -1.675528   -2.208012
     82          1           0        6.011310    3.693981    1.145259
 ---------------------------------------------------------------------

 SCF Done:  E(RB3LYP) =  -2166.36257316     A.U. after    1 cycles

 Alpha  occ. eigenvalues --  -19.28836 -19.27171 -19.26396 -19.23871 -19.23539
 Alpha  occ. eigenvalues --  -19.22434 -19.22025 -19.20782 -19.20668 -19.20390
 Alpha  occ. eigenvalues --  -14.58880 -14.48851 -14.45563 -14.45209 -14.44912
 Alpha  occ. eigenvalues --  -14.39656 -14.38366 -14.32696 -10.43183 -10.41940
 Alpha  occ. eigenvalues --  -10.40481 -10.38949 -10.38874 -10.37812 -10.37804
 Alpha  occ. eigenvalues --  -10.33766 -10.33499 -10.33402 -10.32556 -10.32296
 Alpha  occ. eigenvalues --  -10.32221 -10.32218 -10.31379 -10.31251 -10.30388
 Alpha  occ. eigenvalues --  -10.29627 -10.29387 -10.29084 -10.28905 -10.28846
 Alpha  occ. eigenvalues --  -10.27757 -10.25627 -10.25032  -1.19992  -1.18857
 Alpha  occ. eigenvalues --   -1.17626  -1.14077  -1.13103  -1.12960  -1.12196
 Alpha  occ. eigenvalues --   -1.11220  -1.10660  -1.09933  -1.08661  -1.05589
 Alpha  occ. eigenvalues --   -1.02191  -1.01813  -1.01759  -1.01537  -0.96799
 Alpha  occ. eigenvalues --   -0.93205  -0.92592  -0.89183  -0.88471  -0.87691
 Alpha  occ. eigenvalues --   -0.86266  -0.85703  -0.84889  -0.83826  -0.81036
 Alpha  occ. eigenvalues --   -0.79224  -0.78371  -0.75056  -0.74036  -0.73672
 Alpha  occ. eigenvalues --   -0.73343  -0.72335  -0.71016  -0.70286  -0.69981
 Alpha  occ. eigenvalues --   -0.69356  -0.68615  -0.68011  -0.67702  -0.67337
 Alpha  occ. eigenvalues --   -0.66622  -0.65742  -0.64477  -0.63443  -0.62946
 Alpha  occ. eigenvalues --   -0.62175  -0.60856  -0.60657  -0.59431  -0.59150
 Alpha  occ. eigenvalues --   -0.58749  -0.58128  -0.57874  -0.57483  -0.57037
 Alpha  occ. eigenvalues --   -0.56767  -0.56526  -0.56333  -0.55960  -0.55488
 Alpha  occ. eigenvalues --   -0.55090  -0.54638  -0.54497  -0.53998  -0.53350
 Alpha  occ. eigenvalues --   -0.52899  -0.52778  -0.52325  -0.52239  -0.51798
 Alpha  occ. eigenvalues --   -0.51379  -0.51189  -0.50945  -0.50765  -0.50333
 Alpha  occ. eigenvalues --   -0.50006  -0.49827  -0.49382  -0.48905  -0.48674
 Alpha  occ. eigenvalues --   -0.47948  -0.47649  -0.47554  -0.47177  -0.46818
 Alpha  occ. eigenvalues --   -0.46656  -0.46611  -0.46392  -0.45131  -0.44641
 Alpha  occ. eigenvalues --   -0.44211  -0.43949  -0.43094  -0.42685  -0.42227
 Alpha  occ. eigenvalues --   -0.42072  -0.41128  -0.40926  -0.40771  -0.40095
 Alpha  occ. eigenvalues --   -0.39756  -0.38566  -0.37620  -0.36969  -0.36786
 Alpha  occ. eigenvalues --   -0.36346  -0.35968  -0.35731  -0.35378  -0.35315
 Alpha  occ. eigenvalues --   -0.34839  -0.33801  -0.33291  -0.32614  -0.30792
 Alpha  occ. eigenvalues --   -0.29928  -0.26945
 Alpha virt. eigenvalues --   -0.12447  -0.11677  -0.11528  -0.09621  -0.08336
 Alpha virt. eigenvalues --   -0.08165  -0.06496  -0.06015  -0.05598  -0.03931
 Alpha virt. eigenvalues --   -0.02752  -0.01785  -0.01277  -0.01219  -0.00547

 Mulliken charges:
               1
     1  N   -0.755471
     2  H    0.408951
     3  H    0.432713
     4  H    0.402470
     5  C   -0.115721
     6  H    0.225793
     7  C    0.651335
     8  C   -0.395226
     9  H    0.208723
    10  H    0.186915
    11  O   -0.530089
    12  C    0.146834
    13  C   -0.246687
    14  H    0.139513
    15  C   -0.200988
    16  H    0.189349
    17  C   -0.118925
    18  H    0.161079
    19  C   -0.135757
    20  H    0.177371
    21  C   -0.125127
    22  H    0.160670
    23  N   -0.601869
    24  H    0.369637
    25  C   -0.087493
    26  H    0.209400
    27  C    0.624954
    28  C   -0.031570
    29  H    0.160382
    30  H    0.162237
    31  O   -0.550478
    32  O   -0.650965
    33  H    0.437608
    34  N   -0.577203
    35  H    0.367927
    36  C   -0.085141
    37  H    0.194377
    38  C    0.638324
    39  C   -0.026297
    40  H    0.147762
    41  H    0.157867
    42  O   -0.550040
    43  O   -0.622313
    44  H    0.407960
    45  N   -0.609091
    46  H    0.362741
    47  C   -0.078610
    48  H    0.200926
    49  C    0.627883
    50  C   -0.331575
    51  H    0.194072
    52  H    0.197374
    53  O   -0.518151
    54  C    0.610982
    55  O   -0.496425
    56  O   -0.536652
    57  N   -0.594903
    58  H    0.340435
    59  C   -0.060548
    60  H    0.214583
    61  C    0.599371
    62  C   -0.296607
    63  H    0.199920
    64  H    0.156495
    65  O   -0.439187
    66  C   -0.265417
    67  H    0.140713
    68  H    0.141156
    69  C   -0.149960
    70  H    0.155524
    71  H    0.160388
    72  N   -0.578499
    73  H    0.312306
    74  N   -0.741732
    75  H    0.340911
    76  H    0.324349
    77  N   -0.624826
    78  H    0.267125
    79  C    0.547196
    80  O   -0.584290
    81  H    0.427523
    82  H    0.421712
 Sum of Mulliken charges =   1.00000

 Dipole moment (field-independent basis, Debye):
    X=            -14.7913    Y=             -0.2323    Z=            -13.9976  Tot=             20.3658
 Quadrupole moment (field-independent basis, Debye-Ang):
   XX=            -92.4736   YY=           -244.4546   ZZ=           -133.8951
   XY=            -31.3963   XZ=            101.7748   YZ=            -51.5740

 Normal termination of Gaussian 16 at Mon May 16 06:35:19 2022.
