 Gaussian 16, Revision C.01,
 Gaussian 16:  ES64L-G16RevC.01  3-Jul-2019

 ----------------------------------------------------------------------
 # B3LYP/6-31G* empiricaldispersion=gd3 guess=read geom=check nosymm in
 tegral(ultrafinegrid)
 ----------------------------------------------------------------------

 ------------------------------------------------------
 Candidate Structure: Conf:549 Charge calc in gas phase
 ------------------------------------------------------
 Structure from the checkpoint file:  "conf-549.chk"
 Charge =  1 Multiplicity = 1

                          Input orientation:
 ---------------------------------------------------------------------
 Center     Atomic      Atomic             Coordinates (Angstroms)
 Number     Number       Type             X           Y           Z
 ---------------------------------------------------------------------
      1          7           0       -3.449237   -0.983099   -3.721088
      2          1           0       -2.489441   -0.631747   -3.955202
      3          1           0       -3.492650   -1.962364   -4.048410
      4          1           0       -4.187903   -0.416513   -4.158478
      5          6           0       -3.611652   -1.021669   -2.228890
      6          1           0       -3.192735   -0.088268   -1.843020
      7          6           0       -2.796566   -2.253190   -1.785263
      8          6           0       -5.105440   -1.136399   -1.855833
      9          1           0       -5.474018   -2.114435   -2.187163
     10          1           0       -5.169161   -1.124240   -0.762272
     11          8           0       -2.719808   -3.199732   -2.578129
     12          6           0       -5.909634   -0.009789   -2.468569
     13          6           0       -5.858832    1.279001   -1.917457
     14          1           0       -5.294867    1.454507   -1.003486
     15          6           0       -6.650473   -0.220113   -3.641721
     16          1           0       -6.725155   -1.221801   -4.061821
     17          6           0       -6.540770    2.333799   -2.522258
     18          1           0       -6.503315    3.324640   -2.079511
     19          6           0       -7.332099    0.838757   -4.249838
     20          1           0       -7.913534    0.660077   -5.149430
     21          6           0       -7.276170    2.115855   -3.691423
     22          1           0       -7.809480    2.937961   -4.158951
     23          7           0       -2.273682   -2.162353   -0.558751
     24          1           0       -2.402065   -1.290467   -0.050758
     25          6           0       -1.272157   -3.014944    0.119808
     26          1           0       -1.750447   -3.447372    1.007216
     27          6           0       -0.236534   -1.979203    0.613065
     28          6           0       -0.730501   -4.182993   -0.721847
     29          1           0        0.059313   -4.660861   -0.130864
     30          1           0       -0.280128   -3.800806   -1.650158
     31          8           0       -0.669871   -0.925235    1.121298
     32          8           0       -1.701573   -5.166504   -0.955374
     33          1           0       -2.248608   -4.833613   -1.690538
     34          7           0        1.059582   -2.203629    0.397140
     35          1           0        1.380085   -3.018441   -0.115723
     36          6           0        2.125881   -1.252145    0.726202
     37          1           0        1.912991   -0.822989    1.713642
     38          6           0        2.254149   -0.087055   -0.279861
     39          6           0        3.428125   -2.037723    0.833647
     40          1           0        3.403156   -2.633519    1.756290
     41          1           0        4.260852   -1.329001    0.878759
     42          8           0        3.333110    0.456536   -0.478925
     43          8           0        3.492243   -2.869935   -0.326717
     44          1           0        4.311683   -3.385736   -0.298061
     45          7           0        1.089501    0.323164   -0.880958
     46          1           0        0.235142    0.127376   -0.364670
     47          6           0        1.077905    1.530042   -1.712221
     48          1           0        2.064182    1.599038   -2.175145
     49          6           0        0.805847    2.763685   -0.821717
     50          6           0       -0.009781    1.419526   -2.784704
     51          1           0       -1.000688    1.415673   -2.324646
     52          1           0        0.031925    2.308528   -3.425732
     53          8           0       -0.291470    3.317607   -0.821301
     54          6           0        0.137209    0.200027   -3.654867
     55          8           0       -0.779144   -0.547140   -3.988489
     56          8           0        1.384675    0.001204   -4.071722
     57          7           0        1.841344    3.084365   -0.013891
     58          1           0        2.700638    2.547612   -0.086429
     59          6           0        1.719046    4.042084    1.076371
     60          1           0        0.921664    4.741772    0.808963
     61          6           0        2.986077    4.868517    1.268550
     62          6           0        1.361168    3.346028    2.411877
     63          1           0        1.489267    4.077466    3.218218
     64          1           0        2.086621    2.542069    2.584961
     65          8           0        3.051297    5.803175    2.030723
     66          6           0       -0.070420    2.796541    2.433965
     67          1           0       -0.257929    2.180526    1.547111
     68          1           0       -0.778020    3.634251    2.377789
     69          6           0       -0.390614    1.946568    3.675157
     70          1           0       -0.094638    2.464988    4.593974
     71          1           0       -1.475823    1.803723    3.741179
     72          7           0        0.224846    0.628569    3.668338
     73          1           0       -0.082377    0.016271    2.919399
     74          7           0        1.835307   -1.005897    3.967329
     75          1           0        2.682646   -1.202141    4.493600
     76          1           0        1.103063   -1.657897    4.239605
     77          7           0        2.281695    1.088904    4.856950
     78          1           0        1.977592    2.061069    4.890465
     79          6           0        1.463521    0.342783    4.210824
     80          8           0        4.032300    4.417897    0.539029
     81          1           0        1.403088   -0.793062   -4.640606
     82          1           0        4.796307    4.983171    0.762928
 ---------------------------------------------------------------------

 SCF Done:  E(RB3LYP) =  -2166.38021779     A.U. after    1 cycles

 Alpha  occ. eigenvalues --  -19.32875 -19.28468 -19.27286 -19.27242 -19.25177
 Alpha  occ. eigenvalues --  -19.25120 -19.23471 -19.22621 -19.21013 -19.20669
 Alpha  occ. eigenvalues --  -14.58032 -14.51031 -14.49178 -14.46609 -14.44545
 Alpha  occ. eigenvalues --  -14.41456 -14.41307 -14.34796 -10.46264 -10.44505
 Alpha  occ. eigenvalues --  -10.42263 -10.40455 -10.39628 -10.39456 -10.37908
 Alpha  occ. eigenvalues --  -10.36441 -10.34902 -10.34573 -10.34264 -10.34000
 Alpha  occ. eigenvalues --  -10.33687 -10.33279 -10.32193 -10.32136 -10.31687
 Alpha  occ. eigenvalues --  -10.30883 -10.30598 -10.30227 -10.30119 -10.29875
 Alpha  occ. eigenvalues --  -10.29280 -10.26466 -10.25951  -1.24403  -1.19411
 Alpha  occ. eigenvalues --   -1.17969  -1.17030  -1.15241  -1.14604  -1.13069
 Alpha  occ. eigenvalues --   -1.12509  -1.12214  -1.11577  -1.08942  -1.07260
 Alpha  occ. eigenvalues --   -1.05239  -1.04068  -1.03241  -1.01267  -0.97619
 Alpha  occ. eigenvalues --   -0.95492  -0.93273  -0.91171  -0.90496  -0.89838
 Alpha  occ. eigenvalues --   -0.87433  -0.86948  -0.85842  -0.85190  -0.82683
 Alpha  occ. eigenvalues --   -0.79897  -0.79831  -0.77637  -0.75349  -0.74893
 Alpha  occ. eigenvalues --   -0.73823  -0.73363  -0.72918  -0.72535  -0.71570
 Alpha  occ. eigenvalues --   -0.70060  -0.69948  -0.69381  -0.69146  -0.67709
 Alpha  occ. eigenvalues --   -0.67465  -0.66900  -0.65314  -0.64607  -0.63692
 Alpha  occ. eigenvalues --   -0.63320  -0.62969  -0.62457  -0.62187  -0.61548
 Alpha  occ. eigenvalues --   -0.61241  -0.60637  -0.60427  -0.60090  -0.58894
 Alpha  occ. eigenvalues --   -0.58582  -0.58023  -0.57412  -0.57225  -0.56920
 Alpha  occ. eigenvalues --   -0.56667  -0.56333  -0.55300  -0.55116  -0.54729
 Alpha  occ. eigenvalues --   -0.54489  -0.54101  -0.53615  -0.53348  -0.53054
 Alpha  occ. eigenvalues --   -0.53006  -0.52876  -0.52614  -0.52200  -0.51985
 Alpha  occ. eigenvalues --   -0.51731  -0.51362  -0.50943  -0.50819  -0.50290
 Alpha  occ. eigenvalues --   -0.49877  -0.49597  -0.49382  -0.48408  -0.48187
 Alpha  occ. eigenvalues --   -0.47363  -0.47251  -0.47049  -0.46665  -0.45939
 Alpha  occ. eigenvalues --   -0.45753  -0.45517  -0.45422  -0.44756  -0.44341
 Alpha  occ. eigenvalues --   -0.44069  -0.42899  -0.42144  -0.41760  -0.41435
 Alpha  occ. eigenvalues --   -0.41159  -0.41015  -0.40244  -0.39031  -0.38887
 Alpha  occ. eigenvalues --   -0.38216  -0.37495  -0.36580  -0.36494  -0.36156
 Alpha  occ. eigenvalues --   -0.35978  -0.35410  -0.33812  -0.33419  -0.32860
 Alpha  occ. eigenvalues --   -0.32492  -0.28898
 Alpha virt. eigenvalues --   -0.13889  -0.12925  -0.12073  -0.11919  -0.10926
 Alpha virt. eigenvalues --   -0.09060  -0.07840  -0.06565  -0.06152  -0.06086
 Alpha virt. eigenvalues --   -0.03955  -0.02949  -0.02721  -0.01606  -0.01211

 Mulliken charges:
               1
     1  N   -0.759698
     2  H    0.444645
     3  H    0.413471
     4  H    0.400940
     5  C   -0.129414
     6  H    0.203865
     7  C    0.679988
     8  C   -0.368837
     9  H    0.193438
    10  H    0.198966
    11  O   -0.559498
    12  C    0.136421
    13  C   -0.180856
    14  H    0.143744
    15  C   -0.223569
    16  H    0.147240
    17  C   -0.122725
    18  H    0.168013
    19  C   -0.120689
    20  H    0.166469
    21  C   -0.124224
    22  H    0.168709
    23  N   -0.621839
    24  H    0.363575
    25  C   -0.052311
    26  H    0.215554
    27  C    0.620862
    28  C   -0.049456
    29  H    0.166159
    30  H    0.149040
    31  O   -0.576037
    32  O   -0.623891
    33  H    0.428611
    34  N   -0.608515
    35  H    0.382791
    36  C   -0.109852
    37  H    0.261066
    38  C    0.638993
    39  C   -0.061032
    40  H    0.154100
    41  H    0.191578
    42  O   -0.507211
    43  O   -0.639992
    44  H    0.420827
    45  N   -0.640094
    46  H    0.362344
    47  C   -0.082312
    48  H    0.219121
    49  C    0.640960
    50  C   -0.369370
    51  H    0.172921
    52  H    0.221707
    53  O   -0.540739
    54  C    0.622265
    55  O   -0.530055
    56  O   -0.516917
    57  N   -0.612627
    58  H    0.375913
    59  C   -0.067182
    60  H    0.210177
    61  C    0.593467
    62  C   -0.284865
    63  H    0.177789
    64  H    0.162342
    65  O   -0.446927
    66  C   -0.259416
    67  H    0.135612
    68  H    0.152195
    69  C   -0.158843
    70  H    0.164029
    71  H    0.152183
    72  N   -0.619156
    73  H    0.356314
    74  N   -0.773558
    75  H    0.343040
    76  H    0.321647
    77  N   -0.637306
    78  H    0.283145
    79  C    0.562611
    80  O   -0.570592
    81  H    0.435280
    82  H    0.425479
 Sum of Mulliken charges =   1.00000

 Dipole moment (field-independent basis, Debye):
    X=            -10.1856    Y=             -4.3829    Z=            -12.1696  Tot=             16.4637
 Quadrupole moment (field-independent basis, Debye-Ang):
   XX=           -158.2924   YY=           -242.1815   ZZ=           -195.5699
   XY=            -15.0993   XZ=             39.2954   YZ=             -9.2456

 Normal termination of Gaussian 16 at Mon May 16 06:35:25 2022.
