 Gaussian 16, Revision C.01,
 Gaussian 16:  ES64L-G16RevC.01  3-Jul-2019

 ----------------------------------------------------------------------
 # B3LYP/6-31G* empiricaldispersion=gd3 guess=read geom=check nosymm in
 tegral(ultrafinegrid)
 ----------------------------------------------------------------------

 ------------------------------------------------------
 Candidate Structure: Conf:876 Charge calc in gas phase
 ------------------------------------------------------
 Structure from the checkpoint file:  "conf-876.chk"
 Charge =  1 Multiplicity = 1

                          Input orientation:
 ---------------------------------------------------------------------
 Center     Atomic      Atomic             Coordinates (Angstroms)
 Number     Number       Type             X           Y           Z
 ---------------------------------------------------------------------
      1          7           0       -3.848012   -0.153567   -6.474470
      2          1           0       -2.947029    0.099290   -6.890965
      3          1           0       -3.882270   -1.196711   -6.389146
      4          1           0       -4.607696    0.216829   -7.068582
      5          6           0       -3.992168    0.334859   -5.051041
      6          1           0       -3.368412    1.223888   -4.935930
      7          6           0       -3.500428   -0.852731   -4.195771
      8          6           0       -5.477393    0.668881   -4.767505
      9          1           0       -6.048338   -0.267068   -4.747140
     10          1           0       -5.520848    1.091756   -3.758515
     11          8           0       -3.487244   -1.973826   -4.733919
     12          6           0       -6.037262    1.623090   -5.799093
     13          6           0       -5.722568    2.989007   -5.752985
     14          1           0       -5.134668    3.381061   -4.925639
     15          6           0       -6.808833    1.135897   -6.866857
     16          1           0       -7.099429    0.086418   -6.890600
     17          6           0       -6.176215    3.851138   -6.750100
     18          1           0       -5.938569    4.909368   -6.696859
     19          6           0       -7.258548    2.001357   -7.870066
     20          1           0       -7.867081    1.615549   -8.682420
     21          6           0       -6.940616    3.358010   -7.812655
     22          1           0       -7.294355    4.032827   -8.586083
     23          7           0       -3.188600   -0.565488   -2.941051
     24          1           0       -3.128819    0.402895   -2.614310
     25          6           0       -2.702520   -1.502478   -1.925172
     26          1           0       -3.504757   -2.195714   -1.644393
     27          6           0       -2.344840   -0.606824   -0.724836
     28          6           0       -1.501235   -2.372022   -2.416418
     29          1           0       -0.859642   -2.618529   -1.568862
     30          1           0       -0.889657   -1.755590   -3.092362
     31          8           0       -2.386293    0.621793   -0.843429
     32          8           0       -1.925598   -3.584173   -2.984117
     33          1           0       -2.446643   -3.367823   -3.777289
     34          7           0       -2.034938   -1.249890    0.427698
     35          1           0       -1.890782   -2.250062    0.340586
     36          6           0       -1.163271   -0.581096    1.386148
     37          1           0       -1.558781    0.424676    1.553664
     38          6           0        0.233612   -0.407933    0.731349
     39          6           0       -1.153282   -1.310211    2.733300
     40          1           0       -0.596447   -2.256733    2.649699
     41          1           0       -2.188546   -1.543821    3.020680
     42          8           0        0.419272   -0.747214   -0.438278
     43          8           0       -0.544289   -0.418097    3.657202
     44          1           0       -0.279500   -0.906248    4.451156
     45          7           0        1.164648    0.206395    1.486742
     46          1           0        0.959003    0.440351    2.454784
     47          6           0        2.331998    0.810767    0.876939
     48          1           0        2.648989    0.175032    0.045721
     49          6           0        3.421720    0.930033    1.949218
     50          6           0        2.030889    2.245838    0.332426
     51          1           0        1.811645    2.897979    1.183484
     52          1           0        2.910751    2.623760   -0.194362
     53          8           0        3.132371    1.005620    3.138307
     54          6           0        0.849947    2.240440   -0.621440
     55          8           0        0.916026    2.158099   -1.826881
     56          8           0       -0.313647    2.298783    0.068367
     57          7           0        4.690647    0.998883    1.468577
     58          1           0        4.836742    0.985607    0.468330
     59          6           0        5.822692    1.354761    2.311106
     60          1           0        5.400252    1.710606    3.257743
     61          6           0        6.633905    2.512578    1.733587
     62          6           0        6.749012    0.158238    2.609816
     63          1           0        7.606053    0.553591    3.165128
     64          1           0        7.136889   -0.240792    1.661666
     65          8           0        7.650467    2.928110    2.235514
     66          6           0        6.035541   -0.949253    3.393239
     67          1           0        5.135755   -1.252953    2.845166
     68          1           0        5.700508   -0.560336    4.362380
     69          6           0        6.897839   -2.194381    3.615669
     70          1           0        6.287371   -2.963105    4.103096
     71          1           0        7.211689   -2.606583    2.639351
     72          7           0        8.032390   -1.920443    4.483441
     73          1           0        8.570926   -1.100367    4.227831
     74          7           0        9.969519   -2.501731    5.606140
     75          1           0       10.494537   -3.273371    6.002710
     76          1           0        9.753036   -1.798018    6.304852
     77          7           0        8.689601   -4.233790    4.734588
     78          1           0        7.927819   -4.434674    4.087327
     79          6           0        8.851110   -2.973829    4.910460
     80          8           0        6.104573    3.021299    0.591945
     81          1           0       -1.048295    2.040893   -0.526494
     82          1           0        6.700514    3.741997    0.310626
 ---------------------------------------------------------------------

 SCF Done:  E(RB3LYP) =  -2166.34546834     A.U. after    2 cycles

 Alpha  occ. eigenvalues --  -19.28128 -19.27397 -19.25431 -19.24799 -19.24732
 Alpha  occ. eigenvalues --  -19.22685 -19.21093 -19.20335 -19.20263 -19.19674
 Alpha  occ. eigenvalues --  -14.60913 -14.50714 -14.47525 -14.44345 -14.43603
 Alpha  occ. eigenvalues --  -14.38639 -14.36843 -14.31627 -10.44895 -10.41830
 Alpha  occ. eigenvalues --  -10.41472 -10.39420 -10.38674 -10.37335 -10.36936
 Alpha  occ. eigenvalues --  -10.35517 -10.35071 -10.33871 -10.33342 -10.33121
 Alpha  occ. eigenvalues --  -10.33058 -10.32216 -10.31848 -10.31462 -10.31311
 Alpha  occ. eigenvalues --  -10.31132 -10.31002 -10.30978 -10.30728 -10.27832
 Alpha  occ. eigenvalues --  -10.26997 -10.25849 -10.24577  -1.20290  -1.17970
 Alpha  occ. eigenvalues --   -1.16768  -1.16223  -1.15039  -1.12633  -1.11870
 Alpha  occ. eigenvalues --   -1.11503  -1.10687  -1.08958  -1.07760  -1.07291
 Alpha  occ. eigenvalues --   -1.04180  -1.00958  -1.00721  -1.00687  -0.98605
 Alpha  occ. eigenvalues --   -0.94325  -0.92290  -0.89744  -0.88086  -0.87199
 Alpha  occ. eigenvalues --   -0.86906  -0.86681  -0.85543  -0.84198  -0.80820
 Alpha  occ. eigenvalues --   -0.80473  -0.77250  -0.76879  -0.75089  -0.74420
 Alpha  occ. eigenvalues --   -0.74233  -0.73692  -0.72607  -0.72118  -0.71055
 Alpha  occ. eigenvalues --   -0.69978  -0.68414  -0.68066  -0.67428  -0.66906
 Alpha  occ. eigenvalues --   -0.66184  -0.66060  -0.64450  -0.63765  -0.62980
 Alpha  occ. eigenvalues --   -0.62372  -0.61749  -0.61405  -0.60532  -0.59986
 Alpha  occ. eigenvalues --   -0.59242  -0.58602  -0.57966  -0.57783  -0.57473
 Alpha  occ. eigenvalues --   -0.57364  -0.56543  -0.56100  -0.55477  -0.55353
 Alpha  occ. eigenvalues --   -0.55195  -0.54792  -0.54621  -0.54305  -0.54019
 Alpha  occ. eigenvalues --   -0.53682  -0.53606  -0.53450  -0.52896  -0.52234
 Alpha  occ. eigenvalues --   -0.51906  -0.51745  -0.51439  -0.51331  -0.50961
 Alpha  occ. eigenvalues --   -0.50325  -0.49684  -0.49354  -0.48968  -0.48681
 Alpha  occ. eigenvalues --   -0.48352  -0.47853  -0.47349  -0.47296  -0.46644
 Alpha  occ. eigenvalues --   -0.46452  -0.46290  -0.46021  -0.45602  -0.45145
 Alpha  occ. eigenvalues --   -0.44546  -0.44112  -0.43802  -0.42869  -0.42100
 Alpha  occ. eigenvalues --   -0.41706  -0.40952  -0.40418  -0.39736  -0.39420
 Alpha  occ. eigenvalues --   -0.39318  -0.38887  -0.38445  -0.37640  -0.37538
 Alpha  occ. eigenvalues --   -0.37264  -0.37079  -0.36031  -0.35635  -0.34781
 Alpha  occ. eigenvalues --   -0.34172  -0.33617  -0.32945  -0.32362  -0.29415
 Alpha  occ. eigenvalues --   -0.28786  -0.26331
 Alpha virt. eigenvalues --   -0.14367  -0.13244  -0.12122  -0.10795  -0.10399
 Alpha virt. eigenvalues --   -0.07392  -0.06438  -0.06294  -0.05917  -0.04228
 Alpha virt. eigenvalues --   -0.03693  -0.03002  -0.02826  -0.02304  -0.01367

 Mulliken charges:
               1
     1  N   -0.746299
     2  H    0.420666
     3  H    0.427677
     4  H    0.407829
     5  C   -0.120579
     6  H    0.220354
     7  C    0.672746
     8  C   -0.380362
     9  H    0.196760
    10  H    0.209406
    11  O   -0.564561
    12  C    0.135453
    13  C   -0.180694
    14  H    0.149330
    15  C   -0.233194
    16  H    0.153532
    17  C   -0.121785
    18  H    0.171555
    19  C   -0.118976
    20  H    0.170856
    21  C   -0.123347
    22  H    0.172887
    23  N   -0.624330
    24  H    0.376447
    25  C   -0.073293
    26  H    0.206266
    27  C    0.647769
    28  C   -0.037656
    29  H    0.185826
    30  H    0.151265
    31  O   -0.559109
    32  O   -0.620662
    33  H    0.422929
    34  N   -0.585786
    35  H    0.347397
    36  C   -0.098043
    37  H    0.226750
    38  C    0.622897
    39  C   -0.047470
    40  H    0.146522
    41  H    0.162778
    42  O   -0.542396
    43  O   -0.614096
    44  H    0.422281
    45  N   -0.595851
    46  H    0.380548
    47  C   -0.077990
    48  H    0.193211
    49  C    0.628429
    50  C   -0.326487
    51  H    0.188401
    52  H    0.181329
    53  O   -0.521863
    54  C    0.569883
    55  O   -0.467321
    56  O   -0.585584
    57  N   -0.601361
    58  H    0.344795
    59  C   -0.069068
    60  H    0.221286
    61  C    0.593505
    62  C   -0.274810
    63  H    0.176338
    64  H    0.141988
    65  O   -0.443350
    66  C   -0.277359
    67  H    0.143942
    68  H    0.164721
    69  C   -0.129348
    70  H    0.158902
    71  H    0.134659
    72  N   -0.607736
    73  H    0.326654
    74  N   -0.751906
    75  H    0.337876
    76  H    0.320014
    77  N   -0.644184
    78  H    0.275602
    79  C    0.578504
    80  O   -0.580928
    81  H    0.435085
    82  H    0.423930
 Sum of Mulliken charges =   1.00000

 Dipole moment (field-independent basis, Debye):
    X=            -17.6050    Y=              4.2207    Z=            -21.6389  Tot=             28.2133
 Quadrupole moment (field-independent basis, Debye-Ang):
   XX=           -158.2866   YY=           -250.6968   ZZ=            -71.9865
   XY=             12.3451   XZ=            107.6405   YZ=            -26.3134

 Normal termination of Gaussian 16 at Mon May 16 06:35:30 2022.
