 Gaussian 16, Revision C.01,
 Gaussian 16:  ES64L-G16RevC.01  3-Jul-2019

 -------------------------------------------------------------------
 # B3LYP/6-31G* guess=read geom=check nosymm integral(ultrafinegrid)
 -------------------------------------------------------------------

 ------------------------------------------------------
 Candidate Structure: Conf:123 Charge calc in gas phase
 ------------------------------------------------------
 Structure from the checkpoint file:  "conf-123.chk"
 Charge =  1 Multiplicity = 1

                          Input orientation:
 ---------------------------------------------------------------------
 Center     Atomic      Atomic             Coordinates (Angstroms)
 Number     Number       Type             X           Y           Z
 ---------------------------------------------------------------------
      1          7           0       -8.350612   -4.280724    6.156974
      2          1           0       -9.172559   -4.577493    5.623127
      3          1           0       -7.497080   -4.793648    5.778856
      4          1           0       -8.513104   -4.484180    7.146271
      5          6           0       -7.961895   -2.833997    5.901430
      6          1           0       -8.842961   -2.301753    5.532487
      7          6           0       -6.879211   -3.004241    4.795671
      8          6           0       -7.446724   -2.187882    7.214045
      9          1           0       -6.607038   -2.805010    7.566346
     10          8           0       -6.322497   -4.113975    4.725143
     11          6           0       -6.923196   -0.762251    6.969861
     12          1           0       -7.701179   -0.117413    6.542292
     13          1           0       -6.623368   -0.320550    7.924315
     14          1           0       -6.050719   -0.735307    6.314212
     15          6           0       -8.545478   -2.166080    8.293057
     16          1           0       -9.405015   -1.566946    7.970231
     17          1           0       -8.917843   -3.159264    8.580613
     18          1           0       -8.151649   -1.715430    9.208474
     19          7           0       -6.641684   -1.964004    4.011994
     20          1           0       -7.093509   -1.057702    4.149538
     21          6           0       -5.578013   -1.898985    3.001261
     22          1           0       -4.719803   -2.461653    3.377904
     23          6           0       -5.254303   -0.391280    2.922151
     24          6           0       -6.047631   -2.519389    1.646929
     25          1           0       -6.455921   -3.501376    1.925170
     26          8           0       -6.113755    0.428558    3.262992
     27          6           0       -4.887530   -2.775112    0.661461
     28          1           0       -4.393666   -1.828812    0.406667
     29          1           0       -5.340578   -3.129762   -0.273128
     30          6           0       -7.166137   -1.696924    0.990092
     31          1           0       -6.799547   -0.727325    0.635735
     32          1           0       -7.998401   -1.505472    1.676445
     33          1           0       -7.565540   -2.236282    0.125111
     34          6           0       -3.852675   -3.807379    1.125521
     35          1           0       -3.121128   -3.995829    0.333849
     36          1           0       -3.282999   -3.475654    2.000272
     37          1           0       -4.331046   -4.761749    1.376493
     38          7           0       -4.029014   -0.067250    2.470464
     39          1           0       -3.349587   -0.798619    2.274030
     40          6           0       -3.581254    1.311503    2.342415
     41          1           0       -4.425351    1.936020    2.646058
     42          6           0       -3.200177    1.606308    0.879552
     43          6           0       -2.357758    1.595037    3.264454
     44          1           0       -2.055544    2.638835    3.117020
     45          1           0       -1.526340    0.968775    2.923917
     46          8           0       -2.788917    0.717414    0.120149
     47          6           0       -2.642705    1.329864    4.726609
     48          6           0       -3.294307    2.285304    5.517897
     49          1           0       -3.581491    3.239894    5.081893
     50          6           0       -2.266965    0.114687    5.314799
     51          1           0       -1.743895   -0.627090    4.715620
     52          6           0       -3.563097    2.035886    6.863742
     53          1           0       -4.054112    2.795865    7.465566
     54          6           0       -2.533902   -0.139445    6.661698
     55          1           0       -2.216056   -1.079055    7.106376
     56          6           0       -3.182913    0.821285    7.440042
     57          1           0       -3.371888    0.634613    8.494039
     58          7           0       -3.299327    2.896116    0.495860
     59          1           0       -3.536513    3.591587    1.193048
     60          6           0       -2.692936    3.399966   -0.750298
     61          1           0       -2.838817    2.619758   -1.499494
     62          6           0       -1.184765    3.602343   -0.465855
     63          6           0       -3.348969    4.713752   -1.185820
     64          1           0       -2.836602    5.046027   -2.098935
     65          1           0       -3.119848    5.471774   -0.425752
     66          8           0       -0.793271    4.549348    0.213256
     67          6           0       -4.866816    4.656601   -1.448075
     68          1           0       -5.361354    4.302629   -0.530890
     69          6           0       -5.393788    6.068198   -1.747953
     70          1           0       -4.939065    6.470928   -2.661868
     71          1           0       -5.168616    6.763498   -0.930767
     72          1           0       -6.479848    6.059982   -1.893733
     73          6           0       -5.232064    3.686462   -2.581818
     74          1           0       -4.736421    3.973880   -3.518150
     75          1           0       -6.312558    3.693747   -2.764770
     76          1           0       -4.946172    2.653228   -2.354224
     77          7           0       -0.383490    2.636037   -0.967891
     78          1           0       -0.775194    1.824232   -1.436597
     79          6           0        1.031740    2.501503   -0.647191
     80          1           0        1.535976    3.453608   -0.836883
     81          6           0        1.562147    1.407968   -1.595802
     82          6           0        1.188278    2.112754    0.851304
     83          1           0        0.695501    1.144408    0.997231
     84          1           0        0.630078    2.864624    1.417441
     85          8           0        0.784230    0.603857   -2.109393
     86          6           0        2.616219    2.005615    1.434118
     87          1           0        2.525597    1.746365    2.492384
     88          1           0        3.180758    1.211394    0.935561
     89          6           0        3.386148    3.302708    1.376556
     90          8           0        3.520591    4.111436    2.261959
     91          8           0        3.948004    3.504199    0.137042
     92          7           0        2.902562    1.394062   -1.817899
     93          1           0        3.480764    2.002338   -1.246128
     94          6           0        3.528568    0.232222   -2.432714
     95          1           0        2.806744   -0.181357   -3.138343
     96          6           0        3.829378   -0.832878   -1.342144
     97          6           0        4.788830    0.650204   -3.209616
     98          1           0        4.596309    1.621030   -3.684773
     99          1           0        5.643283    0.792035   -2.534656
    100          8           0        3.952028   -0.508898   -0.161164
    101          6           0        5.152277   -0.352770   -4.308579
    102          7           0        6.288794   -0.064982   -4.997098
    103          1           0        6.539583   -0.661180   -5.773821
    104          1           0        6.813781    0.784296   -4.851455
    105          8           0        4.466675   -1.337739   -4.563727
    106          7           0        3.927759   -2.107735   -1.787414
    107          1           0        3.971042   -2.278739   -2.791310
    108          6           0        4.147700   -3.225992   -0.888199
    109          1           0        4.393505   -2.802800    0.089198
    110          6           0        5.300135   -4.088821   -1.418981
    111          6           0        2.878631   -4.127638   -0.755438
    112          1           0        2.646954   -4.518727   -1.753592
    113          1           0        3.144574   -4.989101   -0.130474
    114          8           0        5.498205   -4.219992   -2.626586
    115          6           0        1.680230   -3.414967   -0.172311
    116          6           0        1.405381   -3.460360    1.202075
    117          1           0        2.042887   -4.050485    1.856991
    118          6           0        0.829746   -2.655302   -0.984845
    119          1           0        1.009298   -2.601688   -2.054368
    120          6           0        0.336048   -2.757287    1.754906
    121          1           0        0.139482   -2.787948    2.822729
    122          6           0       -0.241910   -1.944185   -0.449529
    123          1           0       -0.866318   -1.335132   -1.096098
    124          8           0       -1.508945   -1.260512    1.492984
    125          1           0       -1.878681   -0.638517    0.822499
    126          6           0       -0.479995   -1.983842    0.926205
    127          7           0        6.031189   -4.719364   -0.464324
    128          1           0        5.747814   -4.682592    0.510601
    129          6           0        6.926897   -5.824319   -0.769550
    130          1           0        6.610433   -6.246596   -1.725058
    131          6           0        6.748489   -6.886436    0.333447
    132          6           0        8.410212   -5.383061   -0.856210
    133          1           0        8.608349   -4.726189   -0.000983
    134          1           0        9.052214   -6.260375   -0.719901
    135          8           0        7.184687   -8.109267    0.059288
    136          6           0        8.795634   -4.654764   -2.155439
    137          1           0        8.146183   -3.784234   -2.302171
    138          1           0        9.820540   -4.273837   -2.043831
    139          6           0        8.718572   -5.507933   -3.436711
    140          1           0        7.681635   -5.785527   -3.641901
    141          1           0        9.038449   -4.906905   -4.293870
    142          7           0        9.551932   -6.711786   -3.418072
    143          1           0       10.539256   -6.582949   -3.597168
    144          7           0        7.991645   -8.295558   -2.547905
    145          1           0        7.468405   -8.230344   -0.907819
    146          1           0        7.322164   -7.803572   -3.138289
    147          7           0       10.267281   -8.612123   -2.298561
    148          1           0        9.991941   -9.461861   -1.822455
    149          1           0       11.046577   -8.126173   -1.873127
    150          6           0        9.203155   -7.860595   -2.751240
    151          8           0        6.262568   -6.591285    1.409424
    152          1           0        4.397700    4.369977    0.178301
 ---------------------------------------------------------------------

 SCF Done:  E(RB3LYP) =  -3586.63714007     A.U. after    3 cycles

 Alpha  occ. eigenvalues --  -19.26142 -19.25199 -19.22397 -19.21241 -19.20975
 Alpha  occ. eigenvalues --  -19.20356 -19.18852 -19.17646 -19.17459 -19.16642
 Alpha  occ. eigenvalues --  -19.16253 -19.16085 -19.16036 -14.59563 -14.48783
 Alpha  occ. eigenvalues --  -14.45084 -14.44846 -14.41858 -14.41189 -14.41087
 Alpha  occ. eigenvalues --  -14.41072 -14.40289 -14.40229 -14.39814 -14.34535
 Alpha  occ. eigenvalues --  -10.42933 -10.40278 -10.38390 -10.37727 -10.36895
 Alpha  occ. eigenvalues --  -10.35453 -10.34716 -10.34661 -10.34393 -10.34311
 Alpha  occ. eigenvalues --  -10.33977 -10.33435 -10.33193 -10.33132 -10.32171
 Alpha  occ. eigenvalues --  -10.31096 -10.29757 -10.29378 -10.29143 -10.28936
 Alpha  occ. eigenvalues --  -10.28603 -10.28246 -10.27755 -10.27656 -10.27449
 Alpha  occ. eigenvalues --  -10.27197 -10.26753 -10.26416 -10.25954 -10.25900
 Alpha  occ. eigenvalues --  -10.25854 -10.25794 -10.25757 -10.25413 -10.25392
 Alpha  occ. eigenvalues --  -10.24868 -10.24735 -10.24438 -10.24038 -10.23998
 Alpha  occ. eigenvalues --  -10.23832 -10.23799 -10.23662 -10.23241 -10.23187
 Alpha  occ. eigenvalues --  -10.22977 -10.22851 -10.22701 -10.22692 -10.22434
 Alpha  occ. eigenvalues --   -1.18661  -1.15359  -1.13617  -1.13122  -1.12440
 Alpha  occ. eigenvalues --   -1.11871  -1.09853  -1.09643  -1.09405  -1.08430
 Alpha  occ. eigenvalues --   -1.08104  -1.07444  -1.06436  -1.05357  -1.03986
 Alpha  occ. eigenvalues --   -1.03597  -1.01744  -1.00800  -0.97930  -0.97563
 Alpha  occ. eigenvalues --   -0.96821  -0.96706  -0.96398  -0.94887  -0.94538
 Alpha  occ. eigenvalues --   -0.92492  -0.90170  -0.89883  -0.89381  -0.87598
 Alpha  occ. eigenvalues --   -0.86248  -0.86122  -0.85627  -0.84659  -0.83812
 Alpha  occ. eigenvalues --   -0.82556  -0.82337  -0.81736  -0.81201  -0.81124
 Alpha  occ. eigenvalues --   -0.80160  -0.79057  -0.79027  -0.78716  -0.77957
 Alpha  occ. eigenvalues --   -0.76926  -0.74727  -0.73759  -0.73597  -0.73512
 Alpha  occ. eigenvalues --   -0.73441  -0.72603  -0.72246  -0.71415  -0.70246
 Alpha  occ. eigenvalues --   -0.70085  -0.69796  -0.69220  -0.68118  -0.67541
 Alpha  occ. eigenvalues --   -0.66817  -0.66353  -0.66053  -0.65918  -0.65325
 Alpha  occ. eigenvalues --   -0.65221  -0.64846  -0.64671  -0.64385  -0.63963
 Alpha  occ. eigenvalues --   -0.63116  -0.63063  -0.63033  -0.62557  -0.62506
 Alpha  occ. eigenvalues --   -0.62217  -0.62132  -0.61021  -0.60746  -0.60229
 Alpha  occ. eigenvalues --   -0.59882  -0.58719  -0.58600  -0.58515  -0.58214
 Alpha  occ. eigenvalues --   -0.57671  -0.57051  -0.56884  -0.56631  -0.56159
 Alpha  occ. eigenvalues --   -0.56076  -0.55590  -0.55294  -0.54653  -0.54577
 Alpha  occ. eigenvalues --   -0.53851  -0.53728  -0.53348  -0.53238  -0.53052
 Alpha  occ. eigenvalues --   -0.52930  -0.52669  -0.52537  -0.52240  -0.52109
 Alpha  occ. eigenvalues --   -0.51999  -0.51807  -0.51575  -0.51521  -0.51144
 Alpha  occ. eigenvalues --   -0.50944  -0.50804  -0.50613  -0.50566  -0.50145
 Alpha  occ. eigenvalues --   -0.50084  -0.49974  -0.49898  -0.49451  -0.48945
 Alpha  occ. eigenvalues --   -0.48897  -0.48766  -0.48599  -0.48343  -0.48149
 Alpha  occ. eigenvalues --   -0.48041  -0.47880  -0.47692  -0.47433  -0.47319
 Alpha  occ. eigenvalues --   -0.47304  -0.47095  -0.46921  -0.46777  -0.46763
 Alpha  occ. eigenvalues --   -0.46693  -0.46434  -0.46353  -0.46115  -0.45960
 Alpha  occ. eigenvalues --   -0.45531  -0.45373  -0.45111  -0.44978  -0.44845
 Alpha  occ. eigenvalues --   -0.44561  -0.44399  -0.44254  -0.44234  -0.43922
 Alpha  occ. eigenvalues --   -0.43798  -0.43658  -0.43557  -0.43358  -0.43214
 Alpha  occ. eigenvalues --   -0.43120  -0.42385  -0.41981  -0.41824  -0.41681
 Alpha  occ. eigenvalues --   -0.41602  -0.41563  -0.41167  -0.41006  -0.40900
 Alpha  occ. eigenvalues --   -0.40851  -0.40620  -0.40530  -0.40354  -0.40200
 Alpha  occ. eigenvalues --   -0.40152  -0.39689  -0.39517  -0.39266  -0.38633
 Alpha  occ. eigenvalues --   -0.38451  -0.38177  -0.38092  -0.37972  -0.37804
 Alpha  occ. eigenvalues --   -0.37650  -0.36982  -0.36789  -0.35945  -0.35183
 Alpha  occ. eigenvalues --   -0.34773  -0.34057  -0.33533  -0.33189  -0.33016
 Alpha  occ. eigenvalues --   -0.32355  -0.32204  -0.31794  -0.31730  -0.31453
 Alpha  occ. eigenvalues --   -0.31312  -0.31238  -0.31017  -0.30502  -0.30414
 Alpha  occ. eigenvalues --   -0.29763  -0.29526  -0.29328  -0.29166  -0.28774
 Alpha  occ. eigenvalues --   -0.28365  -0.26094
 Alpha virt. eigenvalues --   -0.12062  -0.10707  -0.08126  -0.07176  -0.06801
 Alpha virt. eigenvalues --   -0.06254  -0.06128  -0.04412  -0.04355  -0.04136
 Alpha virt. eigenvalues --   -0.03994  -0.03755  -0.03266  -0.02712  -0.02251

 Mulliken charges:
               1
     1  N   -0.759072
     2  H    0.414885
     3  H    0.432697
     4  H    0.408366
     5  C   -0.103824
     6  H    0.203364
     7  C    0.651846
     8  C   -0.109060
     9  H    0.168708
    10  O   -0.548135
    11  C   -0.475119
    12  H    0.165670
    13  H    0.184886
    14  H    0.194910
    15  C   -0.471939
    16  H    0.177006
    17  H    0.136735
    18  H    0.200340
    19  N   -0.604588
    20  H    0.377095
    21  C   -0.076882
    22  H    0.192387
    23  C    0.643116
    24  C   -0.074633
    25  H    0.144797
    26  O   -0.554762
    27  C   -0.280622
    28  H    0.154978
    29  H    0.152193
    30  C   -0.461791
    31  H    0.168811
    32  H    0.133712
    33  H    0.163095
    34  C   -0.460114
    35  H    0.174654
    36  H    0.150419
    37  H    0.146317
    38  N   -0.624388
    39  H    0.390978
    40  C   -0.097159
    41  H    0.195343
    42  C    0.659033
    43  C   -0.394578
    44  H    0.173926
    45  H    0.190368
    46  O   -0.562607
    47  C    0.186147
    48  C   -0.171901
    49  H    0.130003
    50  C   -0.198047
    51  H    0.145248
    52  C   -0.130772
    53  H    0.140748
    54  C   -0.137164
    55  H    0.135856
    56  C   -0.137205
    57  H    0.133116
    58  N   -0.583522
    59  H    0.345800
    60  C   -0.067056
    61  H    0.178329
    62  C    0.629120
    63  C   -0.288432
    64  H    0.156282
    65  H    0.162540
    66  O   -0.541316
    67  C   -0.072390
    68  H    0.117761
    69  C   -0.443316
    70  H    0.149450
    71  H    0.145143
    72  H    0.148028
    73  C   -0.452480
    74  H    0.148304
    75  H    0.149847
    76  H    0.146628
    77  N   -0.617512
    78  H    0.364436
    79  C   -0.048385
    80  H    0.181436
    81  C    0.623163
    82  C   -0.298323
    83  H    0.166369
    84  H    0.186406
    85  O   -0.538847
    86  C   -0.389708
    87  H    0.176700
    88  H    0.234551
    89  C    0.577473
    90  O   -0.442636
    91  O   -0.587469
    92  N   -0.630838
    93  H    0.373939
    94  C   -0.056218
    95  H    0.211209
    96  C    0.612385
    97  C   -0.403615
    98  H    0.187055
    99  H    0.180663
   100  O   -0.528350
   101  C    0.622619
   102  N   -0.746599
   103  H    0.354718
   104  H    0.344796
   105  O   -0.507121
   106  N   -0.614494
   107  H    0.386707
   108  C   -0.058769
   109  H    0.183781
   110  C    0.618095
   111  C   -0.368385
   112  H    0.164738
   113  H    0.157808
   114  O   -0.541696
   115  C    0.182998
   116  C   -0.188620
   117  H    0.131491
   118  C   -0.185083
   119  H    0.142131
   120  C   -0.166184
   121  H    0.124071
   122  C   -0.193140
   123  H    0.154286
   124  O   -0.751189
   125  H    0.465588
   126  C    0.356950
   127  N   -0.602668
   128  H    0.351037
   129  C   -0.069969
   130  H    0.164526
   131  C    0.594021
   132  C   -0.266853
   133  H    0.158174
   134  H    0.143436
   135  O   -0.604749
   136  C   -0.259098
   137  H    0.169582
   138  H    0.129594
   139  C   -0.166651
   140  H    0.184856
   141  H    0.158890
   142  N   -0.581422
   143  H    0.326354
   144  N   -0.736285
   145  H    0.462942
   146  H    0.300899
   147  N   -0.741471
   148  H    0.355200
   149  H    0.329432
   150  C    0.647363
   151  O   -0.481758
   152  H    0.415124
 Sum of Mulliken charges =   1.00000

 Dipole moment (field-independent basis, Debye):
    X=            -21.3458    Y=             -9.1600    Z=             16.3987  Tot=             28.4336
 Quadrupole moment (field-independent basis, Debye-Ang):
   XX=            -16.3238   YY=           -399.6869   ZZ=           -262.4653
   XY=             74.4492   XZ=           -264.3095   YZ=            -79.4535

 Normal termination of Gaussian 16 at Fri Aug 12 04:47:56 2022.
