 Gaussian 16, Revision C.01,
 Gaussian 16:  ES64L-G16RevC.01  3-Jul-2019

 -------------------------------------------------------------------
 # B3LYP/6-31G* guess=read geom=check nosymm integral(ultrafinegrid)
 -------------------------------------------------------------------

 ------------------------------------------------------
 Candidate Structure: Conf:869 Charge calc in gas phase
 ------------------------------------------------------
 Structure from the checkpoint file:  "conf-869.chk"
 Charge =  1 Multiplicity = 1

                          Input orientation:
 ---------------------------------------------------------------------
 Center     Atomic      Atomic             Coordinates (Angstroms)
 Number     Number       Type             X           Y           Z
 ---------------------------------------------------------------------
      1          7           0       -6.116968    2.141043    7.821943
      2          1           0       -5.602878    1.257719    7.596043
      3          1           0       -5.527317    2.897865    7.438601
      4          1           0       -6.231151    2.276773    8.828956
      5          6           0       -7.429091    1.993804    7.074278
      6          1           0       -8.054349    1.361697    7.715757
      7          6           0       -7.000158    1.124882    5.858580
      8          6           0       -8.136007    3.341773    6.839671
      9          1           0       -9.049867    3.084885    6.284932
     10          8           0       -5.991163    0.425960    6.000722
     11          6           0       -8.589696    3.960845    8.173982
     12          1           0       -7.736814    4.287944    8.783635
     13          1           0       -9.198620    4.849829    7.986671
     14          1           0       -9.192890    3.264738    8.768234
     15          6           0       -7.317316    4.335526    5.998664
     16          1           0       -6.436061    4.700257    6.542730
     17          1           0       -6.980114    3.913853    5.046341
     18          1           0       -7.929893    5.216316    5.782655
     19          7           0       -7.753697    1.141257    4.749943
     20          1           0       -8.428205    1.886647    4.639530
     21          6           0       -7.210585    0.573565    3.506016
     22          1           0       -6.779150   -0.392135    3.774999
     23          6           0       -6.089548    1.530656    3.035030
     24          6           0       -8.338869    0.357432    2.461724
     25          1           0       -9.100517   -0.239872    2.983804
     26          8           0       -6.207275    2.749336    3.166301
     27          6           0       -7.852239   -0.472103    1.252229
     28          1           0       -7.039698    0.059135    0.738711
     29          1           0       -8.681183   -0.510798    0.535279
     30          6           0       -8.993462    1.668058    1.992666
     31          1           0       -8.283138    2.311119    1.464546
     32          1           0       -9.416897    2.257497    2.816089
     33          1           0       -9.821204    1.442170    1.313160
     34          6           0       -7.417772   -1.908122    1.571269
     35          1           0       -7.183868   -2.449029    0.649201
     36          1           0       -6.521120   -1.957315    2.201306
     37          1           0       -8.213319   -2.458787    2.087075
     38          7           0       -4.991886    0.941219    2.510565
     39          1           0       -4.972834   -0.053883    2.310512
     40          6           0       -3.882426    1.695805    1.954164
     41          1           0       -4.245633    2.704523    1.737446
     42          6           0       -3.455919    0.969666    0.664526
     43          6           0       -2.665305    1.762202    2.921246
     44          1           0       -1.862737    2.311981    2.411024
     45          1           0       -2.295562    0.740603    3.064636
     46          8           0       -3.692594   -0.234882    0.527856
     47          6           0       -2.921022    2.399795    4.274839
     48          6           0       -3.293454    3.747724    4.389529
     49          1           0       -3.462940    4.340761    3.495126
     50          6           0       -2.714889    1.664026    5.448857
     51          1           0       -2.423278    0.619401    5.381398
     52          6           0       -3.433813    4.349540    5.639430
     53          1           0       -3.691885    5.403109    5.702792
     54          6           0       -2.840616    2.262552    6.705589
     55          1           0       -2.618266    1.683741    7.599339
     56          6           0       -3.198750    3.611280    6.807085
     57          1           0       -3.228198    4.102336    7.778308
     58          7           0       -2.794417    1.704021   -0.256004
     59          1           0       -2.598438    2.680156   -0.074425
     60          6           0       -2.279712    1.122689   -1.507848
     61          1           0       -3.004932    0.359896   -1.803402
     62          6           0       -0.918586    0.437403   -1.219428
     63          6           0       -2.153627    2.198844   -2.588267
     64          1           0       -1.311700    2.848655   -2.320721
     65          1           0       -3.065724    2.811041   -2.580983
     66          8           0        0.155690    1.008163   -1.426704
     67          6           0       -1.934178    1.637588   -4.010607
     68          1           0       -1.137261    0.882219   -3.955484
     69          6           0       -3.194292    0.959213   -4.570144
     70          1           0       -4.018808    1.678432   -4.658023
     71          1           0       -3.538657    0.128319   -3.943797
     72          1           0       -3.002537    0.551335   -5.568461
     73          6           0       -1.460728    2.758191   -4.948573
     74          1           0       -2.209695    3.557534   -5.016426
     75          1           0       -1.295133    2.377924   -5.962942
     76          1           0       -0.524548    3.207875   -4.596806
     77          7           0       -1.024764   -0.800485   -0.694444
     78          1           0       -1.955842   -1.134601   -0.464838
     79          6           0        0.117169   -1.610889   -0.282726
     80          1           0        0.565658   -1.171020    0.620140
     81          6           0        1.172997   -1.644709   -1.409408
     82          6           0       -0.389035   -3.028662    0.029786
     83          1           0       -0.814384   -3.449165   -0.888458
     84          1           0       -1.200964   -2.967031    0.763616
     85          8           0        0.870171   -1.894143   -2.570149
     86          6           0        0.692965   -3.962676    0.575933
     87          1           0        1.435099   -4.225366   -0.184122
     88          1           0        1.254267   -3.486617    1.393118
     89          6           0        0.095732   -5.238768    1.138145
     90          8           0       -1.064927   -5.393713    1.450906
     91          8           0        1.033845   -6.199364    1.278820
     92          7           0        2.439951   -1.425844   -0.982876
     93          1           0        2.658637   -1.234957   -0.009456
     94          6           0        3.604673   -1.430093   -1.840998
     95          1           0        3.460610   -2.173583   -2.631491
     96          6           0        4.804765   -1.801079   -0.938722
     97          6           0        3.869637   -0.028845   -2.479088
     98          1           0        3.590064    0.739339   -1.752411
     99          1           0        4.939169    0.075821   -2.684418
    100          8           0        4.776909   -1.537078    0.263629
    101          6           0        3.158125    0.174648   -3.808755
    102          7           0        2.001138    0.859905   -3.788886
    103          1           0        1.466068    0.864984   -4.648431
    104          1           0        1.477217    0.987497   -2.924305
    105          8           0        3.658145   -0.249808   -4.867159
    106          7           0        5.839294   -2.353900   -1.593889
    107          1           0        5.765542   -2.599047   -2.575421
    108          6           0        7.140860   -2.689183   -1.020558
    109          1           0        7.355997   -1.979432   -0.217958
    110          6           0        8.145387   -2.508775   -2.184906
    111          6           0        7.126844   -4.131282   -0.419199
    112          1           0        6.327195   -4.141222    0.331511
    113          1           0        6.849130   -4.833464   -1.214420
    114          8           0        7.721132   -2.725378   -3.351040
    115          6           0        8.472015   -4.469360    0.167716
    116          6           0        9.415058   -5.178951   -0.587370
    117          1           0        9.102803   -5.680091   -1.502063
    118          6           0        8.889707   -3.867655    1.364099
    119          1           0        8.162334   -3.347227    1.986294
    120          6           0       10.762054   -5.158900   -0.241753
    121          1           0       11.510431   -5.624288   -0.875679
    122          6           0       10.237921   -3.839568    1.714967
    123          1           0       10.582154   -3.294365    2.588681
    124          8           0       12.511900   -4.098940    1.010324
    125          1           0       12.664377   -3.439208    0.277742
    126          6           0       11.189339   -4.396157    0.852534
    127          7           0        9.385977   -2.117930   -1.915055
    128          1           0        9.759847   -2.110351   -0.958872
    129          6           0       10.489822   -2.095169   -2.889584
    130          1           0       10.280587   -2.834568   -3.665620
    131          6           0       11.827292   -2.502166   -2.152961
    132          6           0       10.726696   -0.700970   -3.500238
    133          1           0       11.000379   -0.020731   -2.684073
    134          1           0       11.615117   -0.796469   -4.135970
    135          8           0       12.729710   -2.902880   -2.895123
    136          6           0        9.572423   -0.064420   -4.287438
    137          1           0        8.682759    0.007661   -3.648980
    138          1           0        9.849175    0.966435   -4.551035
    139          6           0        9.209491   -0.814737   -5.575436
    140          1           0       10.067877   -0.873087   -6.250945
    141          1           0        8.898553   -1.839187   -5.361291
    142          7           0        8.127386   -0.149522   -6.332127
    143          1           0        8.401201    0.663453   -6.868822
    144          7           0        6.374013   -1.054133   -5.081184
    145          1           0        5.366356   -1.031714   -4.899437
    146          1           0        6.984564   -1.638589   -4.489014
    147          7           0        5.948177    0.638053   -6.585698
    148          1           0        4.965377    0.518095   -6.355110
    149          1           0        6.167666    1.028075   -7.490413
    150          6           0        6.829557   -0.205375   -5.989860
    151          8           0       11.805422   -2.305478   -0.898316
    152          1           0        0.586914   -6.975360    1.667518
 ---------------------------------------------------------------------

 SCF Done:  E(RB3LYP) =  -3586.60986495     A.U. after    1 cycles

 Alpha  occ. eigenvalues --  -19.27234 -19.25549 -19.23205 -19.22655 -19.20813
 Alpha  occ. eigenvalues --  -19.20078 -19.20070 -19.17980 -19.17731 -19.16300
 Alpha  occ. eigenvalues --  -19.12111 -19.07115 -19.05730 -14.60129 -14.50316
 Alpha  occ. eigenvalues --  -14.47651 -14.47103 -14.45165 -14.44638 -14.44623
 Alpha  occ. eigenvalues --  -14.42701 -14.42651 -14.42595 -14.41622 -14.38675
 Alpha  occ. eigenvalues --  -10.44187 -10.41070 -10.40771 -10.40183 -10.39917
 Alpha  occ. eigenvalues --  -10.38357 -10.37664 -10.37226 -10.35586 -10.35085
 Alpha  occ. eigenvalues --  -10.35031 -10.34995 -10.34871 -10.32944 -10.32775
 Alpha  occ. eigenvalues --  -10.31511 -10.31467 -10.31009 -10.30826 -10.30639
 Alpha  occ. eigenvalues --  -10.30506 -10.30416 -10.30302 -10.30297 -10.30138
 Alpha  occ. eigenvalues --  -10.29762 -10.29722 -10.28233 -10.27940 -10.27770
 Alpha  occ. eigenvalues --  -10.27700 -10.27232 -10.27157 -10.27124 -10.26939
 Alpha  occ. eigenvalues --  -10.26913 -10.26545 -10.24796 -10.24610 -10.24595
 Alpha  occ. eigenvalues --  -10.23109 -10.22994 -10.22317 -10.22276 -10.20700
 Alpha  occ. eigenvalues --  -10.19697 -10.19385 -10.19079 -10.18176 -10.17761
 Alpha  occ. eigenvalues --   -1.19823  -1.16527  -1.15319  -1.14548  -1.14046
 Alpha  occ. eigenvalues --   -1.12441  -1.11159  -1.10232  -1.09383  -1.09319
 Alpha  occ. eigenvalues --   -1.07559  -1.07265  -1.06780  -1.03715  -1.03485
 Alpha  occ. eigenvalues --   -1.01081  -1.01061  -0.99770  -0.99398  -0.99011
 Alpha  occ. eigenvalues --   -0.98125  -0.97769  -0.96814  -0.96503  -0.95815
 Alpha  occ. eigenvalues --   -0.94651  -0.92157  -0.91221  -0.90383  -0.89198
 Alpha  occ. eigenvalues --   -0.88151  -0.87211  -0.86004  -0.85635  -0.85265
 Alpha  occ. eigenvalues --   -0.85095  -0.83720  -0.83589  -0.82857  -0.82128
 Alpha  occ. eigenvalues --   -0.81125  -0.80938  -0.80491  -0.77134  -0.77060
 Alpha  occ. eigenvalues --   -0.76243  -0.75519  -0.75118  -0.74480  -0.74101
 Alpha  occ. eigenvalues --   -0.73998  -0.73619  -0.73580  -0.72733  -0.72161
 Alpha  occ. eigenvalues --   -0.71659  -0.71399  -0.70686  -0.70315  -0.69543
 Alpha  occ. eigenvalues --   -0.69445  -0.69024  -0.68178  -0.67975  -0.67392
 Alpha  occ. eigenvalues --   -0.67058  -0.66546  -0.66084  -0.65398  -0.64845
 Alpha  occ. eigenvalues --   -0.64658  -0.63861  -0.63480  -0.63190  -0.62639
 Alpha  occ. eigenvalues --   -0.62410  -0.61992  -0.61220  -0.60959  -0.60665
 Alpha  occ. eigenvalues --   -0.60236  -0.60003  -0.59849  -0.59721  -0.58868
 Alpha  occ. eigenvalues --   -0.58640  -0.58320  -0.58289  -0.58247  -0.57762
 Alpha  occ. eigenvalues --   -0.57484  -0.57225  -0.56999  -0.56740  -0.56531
 Alpha  occ. eigenvalues --   -0.56338  -0.55557  -0.55414  -0.55332  -0.54202
 Alpha  occ. eigenvalues --   -0.53983  -0.53721  -0.53572  -0.53486  -0.53423
 Alpha  occ. eigenvalues --   -0.53187  -0.52981  -0.52815  -0.52778  -0.52510
 Alpha  occ. eigenvalues --   -0.52399  -0.52043  -0.52015  -0.51841  -0.51418
 Alpha  occ. eigenvalues --   -0.51386  -0.51179  -0.50940  -0.50828  -0.50694
 Alpha  occ. eigenvalues --   -0.50482  -0.50172  -0.49987  -0.49826  -0.49378
 Alpha  occ. eigenvalues --   -0.49172  -0.49096  -0.48889  -0.48415  -0.48324
 Alpha  occ. eigenvalues --   -0.48261  -0.48150  -0.48064  -0.47581  -0.47522
 Alpha  occ. eigenvalues --   -0.47237  -0.47045  -0.46859  -0.46659  -0.46429
 Alpha  occ. eigenvalues --   -0.46369  -0.46187  -0.46162  -0.45684  -0.45531
 Alpha  occ. eigenvalues --   -0.45473  -0.45287  -0.45005  -0.44956  -0.44931
 Alpha  occ. eigenvalues --   -0.44613  -0.44548  -0.44345  -0.44165  -0.43841
 Alpha  occ. eigenvalues --   -0.43616  -0.43273  -0.43243  -0.42699  -0.42509
 Alpha  occ. eigenvalues --   -0.42484  -0.42054  -0.41931  -0.41825  -0.41608
 Alpha  occ. eigenvalues --   -0.41574  -0.40978  -0.40760  -0.40292  -0.40272
 Alpha  occ. eigenvalues --   -0.40151  -0.39768  -0.39493  -0.38402  -0.38325
 Alpha  occ. eigenvalues --   -0.37834  -0.37701  -0.37591  -0.37393  -0.37179
 Alpha  occ. eigenvalues --   -0.36920  -0.36279  -0.36190  -0.35776  -0.35394
 Alpha  occ. eigenvalues --   -0.35345  -0.35063  -0.34769  -0.34709  -0.33978
 Alpha  occ. eigenvalues --   -0.33845  -0.33823  -0.33612  -0.33187  -0.33109
 Alpha  occ. eigenvalues --   -0.32762  -0.31799  -0.31630  -0.30871  -0.30296
 Alpha  occ. eigenvalues --   -0.29228  -0.26356  -0.24975  -0.22900  -0.22097
 Alpha  occ. eigenvalues --   -0.21100  -0.19933
 Alpha virt. eigenvalues --   -0.14130  -0.12410  -0.11129  -0.10016  -0.09215
 Alpha virt. eigenvalues --   -0.08797  -0.07071  -0.06773  -0.06206  -0.05129
 Alpha virt. eigenvalues --   -0.05127  -0.05094  -0.04262  -0.03497  -0.03046

 Mulliken charges:
               1
     1  N   -0.761224
     2  H    0.431259
     3  H    0.417949
     4  H    0.410191
     5  C   -0.121341
     6  H    0.224934
     7  C    0.673713
     8  C   -0.119899
     9  H    0.169046
    10  O   -0.536864
    11  C   -0.467639
    12  H    0.142540
    13  H    0.197965
    14  H    0.169262
    15  C   -0.506790
    16  H    0.141264
    17  H    0.222078
    18  H    0.187045
    19  N   -0.604447
    20  H    0.361595
    21  C   -0.074407
    22  H    0.191884
    23  C    0.647559
    24  C   -0.101488
    25  H    0.152300
    26  O   -0.545283
    27  C   -0.273275
    28  H    0.146652
    29  H    0.160366
    30  C   -0.467203
    31  H    0.175632
    32  H    0.129564
    33  H    0.172794
    34  C   -0.460277
    35  H    0.175433
    36  H    0.139892
    37  H    0.158755
    38  N   -0.602158
    39  H    0.366942
    40  C   -0.070770
    41  H    0.187467
    42  C    0.640309
    43  C   -0.363983
    44  H    0.171669
    45  H    0.170542
    46  O   -0.548451
    47  C    0.186624
    48  C   -0.150942
    49  H    0.144929
    50  C   -0.169561
    51  H    0.151392
    52  C   -0.131168
    53  H    0.154760
    54  C   -0.154544
    55  H    0.147010
    56  C   -0.204240
    57  H    0.145983
    58  N   -0.609932
    59  H    0.343414
    60  C   -0.064005
    61  H    0.186328
    62  C    0.654163
    63  C   -0.285558
    64  H    0.159854
    65  H    0.139650
    66  O   -0.558238
    67  C   -0.088525
    68  H    0.142655
    69  C   -0.451421
    70  H    0.146043
    71  H    0.146802
    72  H    0.161222
    73  C   -0.454086
    74  H    0.149584
    75  H    0.153133
    76  H    0.148333
    77  N   -0.624810
    78  H    0.370038
    79  C   -0.004136
    80  H    0.146366
    81  C    0.632376
    82  C   -0.307298
    83  H    0.186250
    84  H    0.170970
    85  O   -0.539176
    86  C   -0.371424
    87  H    0.198907
    88  H    0.184265
    89  C    0.585912
    90  O   -0.462938
    91  O   -0.558011
    92  N   -0.612821
    93  H    0.352117
    94  C   -0.059544
    95  H    0.191537
    96  C    0.615601
    97  C   -0.359819
    98  H    0.181903
    99  H    0.182258
   100  O   -0.540477
   101  C    0.608933
   102  N   -0.752180
   103  H    0.345647
   104  H    0.413146
   105  O   -0.561473
   106  N   -0.613914
   107  H    0.342481
   108  C   -0.044124
   109  H    0.184861
   110  C    0.627314
   111  C   -0.345887
   112  H    0.158400
   113  H    0.146212
   114  O   -0.616366
   115  C    0.144445
   116  C   -0.192639
   117  H    0.118650
   118  C   -0.211649
   119  H    0.113735
   120  C   -0.159727
   121  H    0.148555
   122  C   -0.155571
   123  H    0.130385
   124  O   -0.699960
   125  H    0.439492
   126  C    0.369663
   127  N   -0.579375
   128  H    0.374060
   129  C   -0.071003
   130  H    0.156624
   131  C    0.593771
   132  C   -0.270191
   133  H    0.155005
   134  H    0.170380
   135  O   -0.563976
   136  C   -0.263191
   137  H    0.137216
   138  H    0.130638
   139  C   -0.183061
   140  H    0.177911
   141  H    0.210333
   142  N   -0.593546
   143  H    0.344266
   144  N   -0.842838
   145  H    0.393913
   146  H    0.447492
   147  N   -0.790946
   148  H    0.393529
   149  H    0.353798
   150  C    0.785984
   151  O   -0.631528
   152  H    0.417499
 Sum of Mulliken charges =   1.00000

 Dipole moment (field-independent basis, Debye):
    X=            -47.8530    Y=             20.7518    Z=             17.6465  Tot=             55.0631
 Quadrupole moment (field-independent basis, Debye-Ang):
   XX=           -510.0692   YY=           -422.5496   ZZ=           -135.6582
   XY=             38.8212   XZ=           -248.7183   YZ=             47.5222

 Normal termination of Gaussian 16 at Fri Aug 12 04:46:14 2022.
