 Gaussian 16, Revision C.01,
 Gaussian 16:  ES64L-G16RevC.01  3-Jul-2019

 -------------------------------------------------------------------
 # B3LYP/6-31G* guess=read geom=check nosymm integral(ultrafinegrid)
 -------------------------------------------------------------------

 ------------------------------------------------------
 Candidate Structure: Conf:446 Charge calc in gas phase
 ------------------------------------------------------
 Structure from the checkpoint file:  "conf-446.chk"
 Charge =  1 Multiplicity = 1

                          Input orientation:
 ---------------------------------------------------------------------
 Center     Atomic      Atomic             Coordinates (Angstroms)
 Number     Number       Type             X           Y           Z
 ---------------------------------------------------------------------
      1          7           0      -11.729492   -1.322342    6.370984
      2          1           0      -12.584614   -1.005523    6.833912
      3          1           0      -11.845359   -1.259662    5.307934
      4          1           0      -11.541262   -2.287010    6.656190
      5          6           0      -10.544550   -0.399971    6.589881
      6          1           0      -10.858217    0.378343    7.290534
      7          6           0      -10.328964    0.202895    5.170885
      8          6           0       -9.316826   -1.155408    7.150954
      9          1           0       -8.518471   -0.402862    7.186820
     10          8           0      -11.003063   -0.271541    4.241084
     11          6           0       -9.566306   -1.640301    8.588056
     12          1           0      -10.340185   -2.418844    8.638555
     13          1           0       -8.652839   -2.080772    8.998009
     14          1           0       -9.867034   -0.819921    9.249027
     15          6           0       -8.843345   -2.292247    6.229777
     16          1           0       -9.563676   -3.120522    6.174879
     17          1           0       -8.647464   -1.947609    5.209697
     18          1           0       -7.915246   -2.717917    6.621392
     19          7           0       -9.439244    1.180809    5.079244
     20          1           0       -8.832310    1.421218    5.866167
     21          6           0       -8.915520    1.751989    3.829527
     22          1           0       -9.164816    1.068575    3.011950
     23          6           0       -7.388525    1.791883    4.091246
     24          6           0       -9.510428    3.163420    3.537354
     25          1           0       -9.196569    3.813610    4.367491
     26          8           0       -6.988975    1.928814    5.256030
     27          6           0      -11.053524    3.118543    3.516303
     28          1           0      -11.409008    2.645644    4.439747
     29          1           0      -11.383681    2.471021    2.692309
     30          6           0       -8.941878    3.734614    2.228189
     31          1           0       -9.217083    3.106626    1.370654
     32          1           0       -7.852785    3.821737    2.248724
     33          1           0       -9.341293    4.734906    2.043276
     34          6           0      -11.721222    4.494157    3.395808
     35          1           0      -12.808420    4.399504    3.488480
     36          1           0      -11.378371    5.173831    4.185520
     37          1           0      -11.519092    4.971691    2.432326
     38          7           0       -6.586260    1.661540    3.029312
     39          1           0       -6.938357    1.568590    2.077351
     40          6           0       -5.130102    1.734740    3.095741
     41          1           0       -4.849258    2.536009    3.786184
     42          6           0       -4.689497    2.069974    1.655168
     43          6           0       -4.534512    0.390820    3.607395
     44          1           0       -4.713237   -0.377114    2.846021
     45          1           0       -5.121214    0.118666    4.492283
     46          8           0       -5.451422    1.823935    0.712927
     47          6           0       -3.066813    0.446575    3.975218
     48          6           0       -2.648409    1.189271    5.090354
     49          1           0       -3.385647    1.723959    5.686774
     50          6           0       -2.105172   -0.254002    3.236469
     51          1           0       -2.414807   -0.837640    2.372282
     52          6           0       -1.302244    1.233078    5.452570
     53          1           0       -0.994563    1.812794    6.318611
     54          6           0       -0.757144   -0.222267    3.602109
     55          1           0       -0.021117   -0.773374    3.023256
     56          6           0       -0.354424    0.525446    4.709974
     57          1           0        0.693439    0.553181    4.995324
     58          7           0       -3.469712    2.610794    1.514036
     59          1           0       -2.872361    2.803150    2.312883
     60          6           0       -2.884474    2.932070    0.211022
     61          1           0       -3.183010    2.148400   -0.490574
     62          6           0       -1.364890    2.931548    0.442893
     63          6           0       -3.380238    4.309830   -0.287952
     64          1           0       -3.055023    5.057606    0.446493
     65          1           0       -4.477114    4.284156   -0.265288
     66          8           0       -0.903209    3.409362    1.481402
     67          6           0       -2.913449    4.730713   -1.695854
     68          1           0       -1.814831    4.699313   -1.720055
     69          6           0       -3.442562    3.797188   -2.796489
     70          1           0       -4.539466    3.762941   -2.786576
     71          1           0       -3.079266    2.768585   -2.690260
     72          1           0       -3.128071    4.147977   -3.785828
     73          6           0       -3.343124    6.180697   -1.968393
     74          1           0       -4.436725    6.275545   -1.954873
     75          1           0       -2.993688    6.515957   -2.951525
     76          1           0       -2.938265    6.866916   -1.215429
     77          7           0       -0.610586    2.397414   -0.538337
     78          1           0       -1.017970    1.946141   -1.352785
     79          6           0        0.836785    2.261889   -0.450475
     80          1           0        1.270907    3.229727   -0.173358
     81          6           0        1.291781    1.825678   -1.856552
     82          6           0        1.222332    1.190032    0.606858
     83          1           0        1.017731    0.196198    0.195469
     84          1           0        0.556662    1.329879    1.462063
     85          8           0        0.497236    1.278184   -2.624091
     86          6           0        2.669959    1.263940    1.096072
     87          1           0        3.394514    1.297369    0.270916
     88          1           0        2.851486    2.165206    1.693345
     89          6           0        3.082652    0.053222    1.902017
     90          8           0        2.464083   -1.003951    1.944237
     91          8           0        4.253955    0.240685    2.518289
     92          7           0        2.592008    2.029550   -2.157679
     93          1           0        3.244170    2.415428   -1.479396
     94          6           0        3.257506    1.333618   -3.249570
     95          1           0        2.766595    0.369020   -3.406698
     96          6           0        4.714184    1.107992   -2.768846
     97          6           0        3.161327    2.119406   -4.575015
     98          1           0        2.139361    2.509090   -4.654084
     99          1           0        3.837731    2.983486   -4.569446
    100          8           0        5.124516    1.690001   -1.758474
    101          6           0        3.420762    1.240333   -5.800046
    102          7           0        3.426736    1.891248   -6.993473
    103          1           0        3.697546    1.360737   -7.810756
    104          1           0        3.455090    2.898432   -7.051160
    105          8           0        3.559931    0.022216   -5.721580
    106          7           0        5.441957    0.256064   -3.513607
    107          1           0        5.040648   -0.081959   -4.388375
    108          6           0        6.850559   -0.011092   -3.281945
    109          1           0        7.172501    0.642597   -2.466740
    110          6           0        7.631975    0.319806   -4.572932
    111          6           0        7.090410   -1.496279   -2.872340
    112          1           0        6.673549   -2.134615   -3.661375
    113          1           0        8.171719   -1.673866   -2.862543
    114          8           0        7.064368    0.392203   -5.664144
    115          6           0        6.497925   -1.847509   -1.526831
    116          6           0        7.262932   -1.733327   -0.356905
    117          1           0        8.309407   -1.444953   -0.427897
    118          6           0        5.161956   -2.245852   -1.398737
    119          1           0        4.551007   -2.369012   -2.289175
    120          6           0        6.711437   -1.966316    0.900227
    121          1           0        7.306561   -1.861754    1.802349
    122          6           0        4.590901   -2.478500   -0.147135
    123          1           0        3.546845   -2.768915   -0.064953
    124          8           0        4.831886   -2.466899    2.272879
    125          1           0        3.855490   -2.469780    2.196381
    126          6           0        5.364112   -2.316510    1.004958
    127          7           0        8.959718    0.481434   -4.398725
    128          1           0        9.413169    0.386649   -3.491814
    129          6           0        9.924442    0.607067   -5.483720
    130          1           0        9.645090   -0.077347   -6.291855
    131          6           0       11.296365    0.176915   -4.883430
    132          6           0        9.898253    2.066370   -6.036318
    133          1           0        8.837755    2.331192   -6.071866
    134          1           0       10.361604    2.733077   -5.295907
    135          8           0       12.195702   -0.167352   -5.734362
    136          6           0       10.483119    2.326811   -7.448436
    137          1           0       10.477007    1.401910   -8.039867
    138          1           0        9.823151    3.022771   -7.980071
    139          6           0       11.889965    2.944993   -7.509920
    140          1           0       12.125519    3.209296   -8.549920
    141          1           0       11.920971    3.867628   -6.915131
    142          7           0       12.874652    1.992400   -6.997339
    143          1           0       12.502051    1.033313   -6.782894
    144          7           0       14.464727    3.531880   -6.241435
    145          1           0       15.318465    3.702632   -5.730338
    146          1           0       14.317365    4.115237   -7.052161
    147          7           0       14.424279    1.320381   -5.454065
    148          1           0       15.209472    1.495826   -4.845609
    149          1           0       13.782175    0.514974   -5.279123
    150          6           0       13.924772    2.284730   -6.234313
    151          8           0       11.427428    0.226770   -3.652218
    152          1           0        4.581949   -0.643521    2.811511
 ---------------------------------------------------------------------

 SCF Done:  E(RB3LYP) =  -3586.64310902     A.U. after    3 cycles

 Alpha  occ. eigenvalues --  -19.26638 -19.22777 -19.21251 -19.21021 -19.18646
 Alpha  occ. eigenvalues --  -19.18360 -19.16653 -19.16610 -19.16071 -19.15565
 Alpha  occ. eigenvalues --  -19.13396 -19.12040 -19.11181 -14.59484 -14.48985
 Alpha  occ. eigenvalues --  -14.44690 -14.44621 -14.42277 -14.41692 -14.41061
 Alpha  occ. eigenvalues --  -14.40995 -14.40416 -14.40217 -14.38809 -14.37104
 Alpha  occ. eigenvalues --  -10.43221 -10.40322 -10.39136 -10.38123 -10.36655
 Alpha  occ. eigenvalues --  -10.35511 -10.34437 -10.33856 -10.33826 -10.33715
 Alpha  occ. eigenvalues --  -10.33695 -10.32631 -10.31021 -10.30788 -10.30650
 Alpha  occ. eigenvalues --  -10.30564 -10.29380 -10.28708 -10.28587 -10.28551
 Alpha  occ. eigenvalues --  -10.28313 -10.27802 -10.27675 -10.26455 -10.26168
 Alpha  occ. eigenvalues --  -10.26004 -10.25417 -10.25215 -10.24835 -10.24656
 Alpha  occ. eigenvalues --  -10.24318 -10.24183 -10.24166 -10.24024 -10.24013
 Alpha  occ. eigenvalues --  -10.23732 -10.23640 -10.23595 -10.23592 -10.23465
 Alpha  occ. eigenvalues --  -10.23388 -10.22234 -10.21999 -10.21855 -10.21769
 Alpha  occ. eigenvalues --  -10.21753 -10.21700 -10.21696 -10.21659 -10.21405
 Alpha  occ. eigenvalues --   -1.18986  -1.14486  -1.13503  -1.12858  -1.10300
 Alpha  occ. eigenvalues --   -1.09021  -1.08702  -1.08265  -1.07940  -1.07884
 Alpha  occ. eigenvalues --   -1.07141  -1.05646  -1.05387  -1.05357  -1.04593
 Alpha  occ. eigenvalues --   -1.01107  -0.98643  -0.97667  -0.97519  -0.97021
 Alpha  occ. eigenvalues --   -0.96044  -0.95727  -0.95681  -0.95153  -0.94950
 Alpha  occ. eigenvalues --   -0.93582  -0.90902  -0.90353  -0.88052  -0.86551
 Alpha  occ. eigenvalues --   -0.86389  -0.85277  -0.84785  -0.83472  -0.82837
 Alpha  occ. eigenvalues --   -0.82606  -0.81811  -0.81013  -0.80772  -0.79395
 Alpha  occ. eigenvalues --   -0.79302  -0.78578  -0.77765  -0.77440  -0.77237
 Alpha  occ. eigenvalues --   -0.75621  -0.74046  -0.73646  -0.73126  -0.72685
 Alpha  occ. eigenvalues --   -0.72653  -0.72552  -0.71425  -0.71172  -0.70920
 Alpha  occ. eigenvalues --   -0.70075  -0.69475  -0.69152  -0.67861  -0.66874
 Alpha  occ. eigenvalues --   -0.66415  -0.65539  -0.65160  -0.64953  -0.64752
 Alpha  occ. eigenvalues --   -0.64374  -0.64140  -0.63919  -0.63427  -0.63352
 Alpha  occ. eigenvalues --   -0.62756  -0.62392  -0.62276  -0.61550  -0.61541
 Alpha  occ. eigenvalues --   -0.61393  -0.60754  -0.60568  -0.59925  -0.59303
 Alpha  occ. eigenvalues --   -0.58858  -0.58394  -0.58189  -0.57668  -0.57236
 Alpha  occ. eigenvalues --   -0.57057  -0.56801  -0.56453  -0.55931  -0.55531
 Alpha  occ. eigenvalues --   -0.55242  -0.55148  -0.54675  -0.54435  -0.53796
 Alpha  occ. eigenvalues --   -0.53529  -0.53282  -0.53093  -0.52734  -0.52442
 Alpha  occ. eigenvalues --   -0.52252  -0.52054  -0.51951  -0.51659  -0.51549
 Alpha  occ. eigenvalues --   -0.51324  -0.51063  -0.50771  -0.50738  -0.50604
 Alpha  occ. eigenvalues --   -0.50467  -0.50376  -0.50041  -0.49855  -0.49759
 Alpha  occ. eigenvalues --   -0.49414  -0.48886  -0.48762  -0.48513  -0.48391
 Alpha  occ. eigenvalues --   -0.48216  -0.48048  -0.47727  -0.47712  -0.47404
 Alpha  occ. eigenvalues --   -0.47339  -0.47273  -0.47180  -0.46997  -0.46847
 Alpha  occ. eigenvalues --   -0.46682  -0.46502  -0.46453  -0.46170  -0.45935
 Alpha  occ. eigenvalues --   -0.45872  -0.45559  -0.45413  -0.45211  -0.45007
 Alpha  occ. eigenvalues --   -0.44893  -0.44526  -0.44153  -0.43980  -0.43939
 Alpha  occ. eigenvalues --   -0.43720  -0.43521  -0.43304  -0.43211  -0.42890
 Alpha  occ. eigenvalues --   -0.42644  -0.42485  -0.42433  -0.42152  -0.42007
 Alpha  occ. eigenvalues --   -0.41817  -0.41558  -0.41357  -0.41038  -0.40876
 Alpha  occ. eigenvalues --   -0.40713  -0.40641  -0.40547  -0.40416  -0.40269
 Alpha  occ. eigenvalues --   -0.39837  -0.39559  -0.39429  -0.39180  -0.39058
 Alpha  occ. eigenvalues --   -0.38855  -0.38773  -0.38410  -0.38293  -0.38063
 Alpha  occ. eigenvalues --   -0.37971  -0.37453  -0.37168  -0.37015  -0.36600
 Alpha  occ. eigenvalues --   -0.36392  -0.35717  -0.35394  -0.35167  -0.35076
 Alpha  occ. eigenvalues --   -0.34434  -0.32653  -0.32270  -0.31790  -0.31618
 Alpha  occ. eigenvalues --   -0.31584  -0.31464  -0.31154  -0.30216  -0.30083
 Alpha  occ. eigenvalues --   -0.29852  -0.29524  -0.29472  -0.29346  -0.28969
 Alpha  occ. eigenvalues --   -0.28261  -0.27812  -0.27438  -0.27138  -0.25918
 Alpha  occ. eigenvalues --   -0.25318  -0.24708
 Alpha virt. eigenvalues --   -0.12029  -0.11121  -0.07249  -0.06639  -0.05502
 Alpha virt. eigenvalues --   -0.05186  -0.04423  -0.03881  -0.03845  -0.03673
 Alpha virt. eigenvalues --   -0.03061  -0.02953  -0.02270  -0.02196  -0.02115

 Mulliken charges:
               1
     1  N   -0.763832
     2  H    0.415230
     3  H    0.436106
     4  H    0.409188
     5  C   -0.102142
     6  H    0.213366
     7  C    0.650524
     8  C   -0.127684
     9  H    0.194730
    10  O   -0.547083
    11  C   -0.461812
    12  H    0.138886
    13  H    0.199764
    14  H    0.172522
    15  C   -0.477716
    16  H    0.141975
    17  H    0.187559
    18  H    0.200907
    19  N   -0.596546
    20  H    0.372446
    21  C   -0.077341
    22  H    0.184054
    23  C    0.630971
    24  C   -0.072353
    25  H    0.143142
    26  O   -0.561756
    27  C   -0.250986
    28  H    0.117597
    29  H    0.149280
    30  C   -0.478529
    31  H    0.155443
    32  H    0.167444
    33  H    0.173889
    34  C   -0.453749
    35  H    0.155234
    36  H    0.150560
    37  H    0.163365
    38  N   -0.613676
    39  H    0.366516
    40  C   -0.049989
    41  H    0.183950
    42  C    0.627202
    43  C   -0.351002
    44  H    0.157719
    45  H    0.166852
    46  O   -0.555267
    47  C    0.153839
    48  C   -0.197743
    49  H    0.134427
    50  C   -0.189305
    51  H    0.131644
    52  C   -0.121708
    53  H    0.138823
    54  C   -0.141448
    55  H    0.171448
    56  C   -0.131008
    57  H    0.142636
    58  N   -0.619603
    59  H    0.363444
    60  C   -0.037732
    61  H    0.171123
    62  C    0.621177
    63  C   -0.256272
    64  H    0.148861
    65  H    0.152626
    66  O   -0.550451
    67  C   -0.084320
    68  H    0.134773
    69  C   -0.448751
    70  H    0.147980
    71  H    0.141959
    72  H    0.150665
    73  C   -0.443841
    74  H    0.140775
    75  H    0.147314
    76  H    0.146140
    77  N   -0.630473
    78  H    0.361685
    79  C   -0.032613
    80  H    0.171048
    81  C    0.606450
    82  C   -0.281857
    83  H    0.169827
    84  H    0.190915
    85  O   -0.542306
    86  C   -0.385344
    87  H    0.206763
    88  H    0.186080
    89  C    0.608103
    90  O   -0.514191
    91  O   -0.575436
    92  N   -0.623320
    93  H    0.360120
    94  C   -0.053151
    95  H    0.206933
    96  C    0.603297
    97  C   -0.376208
    98  H    0.201344
    99  H    0.169784
   100  O   -0.548049
   101  C    0.629874
   102  N   -0.742607
   103  H    0.355272
   104  H    0.340674
   105  O   -0.516873
   106  N   -0.608094
   107  H    0.390414
   108  C   -0.074623
   109  H    0.187325
   110  C    0.622163
   111  C   -0.370872
   112  H    0.161357
   113  H    0.166135
   114  O   -0.552202
   115  C    0.186083
   116  C   -0.188498
   117  H    0.136338
   118  C   -0.189846
   119  H    0.134895
   120  C   -0.153001
   121  H    0.139844
   122  C   -0.186731
   123  H    0.137907
   124  O   -0.692110
   125  H    0.430621
   126  C    0.331682
   127  N   -0.615559
   128  H    0.351097
   129  C   -0.033968
   130  H    0.164055
   131  C    0.587509
   132  C   -0.272620
   133  H    0.172250
   134  H    0.137829
   135  O   -0.646929
   136  C   -0.303124
   137  H    0.169250
   138  H    0.151739
   139  C   -0.145161
   140  H    0.157238
   141  H    0.157396
   142  N   -0.609511
   143  H    0.410981
   144  N   -0.754023
   145  H    0.358188
   146  H    0.366042
   147  N   -0.770116
   148  H    0.344175
   149  H    0.418414
   150  C    0.762182
   151  O   -0.549815
   152  H    0.435522
 Sum of Mulliken charges =   1.00000

 Dipole moment (field-independent basis, Debye):
    X=            -27.8401    Y=              8.6177    Z=             15.8126  Tot=             33.1568
 Quadrupole moment (field-independent basis, Debye-Ang):
   XX=            297.9307   YY=           -389.7546   ZZ=           -185.6035
   XY=            150.8331   XZ=           -414.1340   YZ=           -103.0052

 Normal termination of Gaussian 16 at Fri Aug 12 04:47:39 2022.
