 Gaussian 16, Revision C.01,
 Gaussian 16:  ES64L-G16RevC.01  3-Jul-2019

 -------------------------------------------------------------------
 # B3LYP/6-31G* guess=read geom=check nosymm integral(ultrafinegrid)
 -------------------------------------------------------------------

 ------------------------------------------------------
 Candidate Structure: Conf:831 Charge calc in gas phase
 ------------------------------------------------------
 Structure from the checkpoint file:  "conf-831.chk"
 Charge =  1 Multiplicity = 1

                          Input orientation:
 ---------------------------------------------------------------------
 Center     Atomic      Atomic             Coordinates (Angstroms)
 Number     Number       Type             X           Y           Z
 ---------------------------------------------------------------------
      1          7           0       -9.088187    1.583319    7.622460
      2          1           0       -9.865551    1.030865    7.993488
      3          1           0       -8.296480    0.930393    7.336292
      4          1           0       -8.773139    2.238591    8.343146
      5          6           0       -9.412160    2.273747    6.307942
      6          1           0      -10.489772    2.186482    6.144764
      7          6           0       -8.627646    1.403143    5.286610
      8          6           0       -9.006858    3.771609    6.381461
      9          1           0       -9.555639    4.164175    7.252026
     10          8           0       -7.806710    0.591428    5.735504
     11          6           0       -7.498562    3.976106    6.597803
     12          1           0       -6.926937    3.666657    5.717776
     13          1           0       -7.300542    5.038589    6.768662
     14          1           0       -7.096828    3.436468    7.464681
     15          6           0       -9.492986    4.552141    5.148440
     16          1           0       -8.872247    4.332201    4.273966
     17          1           0      -10.548309    4.354874    4.920621
     18          1           0       -9.401280    5.624543    5.344401
     19          7           0       -8.912185    1.564951    3.992143
     20          1           0       -9.485638    2.358792    3.734498
     21          6           0       -8.030612    1.051668    2.931878
     22          1           0       -7.770897    0.022137    3.196564
     23          6           0       -6.760282    1.942423    2.946785
     24          6           0       -8.788025    1.075323    1.575644
     25          1           0       -9.069235    2.124776    1.390079
     26          8           0       -6.844481    3.129218    3.264380
     27          6           0      -10.078029    0.226684    1.657374
     28          1           0      -10.634382    0.491022    2.565543
     29          1           0       -9.795434   -0.829352    1.773591
     30          6           0       -7.887175    0.613939    0.419548
     31          1           0       -7.570622   -0.428051    0.557184
     32          1           0       -6.987463    1.223275    0.309495
     33          1           0       -8.431150    0.665979   -0.526878
     34          6           0      -11.013109    0.381158    0.451874
     35          1           0      -11.936025   -0.186234    0.610588
     36          1           0      -11.291341    1.430567    0.294968
     37          1           0      -10.561090    0.013289   -0.474084
     38          7           0       -5.604459    1.320141    2.627280
     39          1           0       -5.634480    0.408158    2.180363
     40          6           0       -4.349735    2.027647    2.417572
     41          1           0       -4.558905    3.097762    2.494881
     42          6           0       -3.848959    1.654217    1.006733
     43          6           0       -3.268477    1.618319    3.458817
     44          1           0       -2.330626    2.112633    3.177472
     45          1           0       -3.096443    0.540254    3.353510
     46          8           0       -4.232654    0.613501    0.470623
     47          6           0       -3.607032    1.949100    4.896276
     48          6           0       -3.320071    3.216420    5.423556
     49          1           0       -2.863282    3.971531    4.787402
     50          6           0       -4.178333    0.988219    5.740198
     51          1           0       -4.399755   -0.002301    5.351619
     52          6           0       -3.583436    3.512871    6.760765
     53          1           0       -3.332912    4.493824    7.155390
     54          6           0       -4.439581    1.278409    7.080865
     55          1           0       -4.851631    0.506016    7.725882
     56          6           0       -4.138238    2.540184    7.597051
     57          1           0       -4.309470    2.759371    8.648180
     58          7           0       -2.965751    2.519188    0.459864
     59          1           0       -2.570175    3.257028    1.037140
     60          6           0       -2.127892    2.194991   -0.689996
     61          1           0       -2.228713    1.122786   -0.880977
     62          6           0       -0.682693    2.528130   -0.266891
     63          6           0       -2.511964    3.001690   -1.952439
     64          1           0       -1.778750    2.776638   -2.739652
     65          1           0       -2.394925    4.067918   -1.715400
     66          8           0       -0.460030    3.303621    0.665683
     67          6           0       -3.930092    2.749082   -2.499927
     68          1           0       -4.641993    2.937107   -1.683482
     69          6           0       -4.231188    3.748931   -3.627365
     70          1           0       -3.545849    3.607774   -4.472976
     71          1           0       -4.130499    4.785914   -3.285377
     72          1           0       -5.251443    3.617295   -4.004910
     73          6           0       -4.125636    1.303330   -2.981304
     74          1           0       -3.390815    1.043102   -3.754833
     75          1           0       -5.121298    1.177976   -3.422328
     76          1           0       -4.039750    0.584901   -2.160343
     77          7           0        0.293103    1.946969   -0.997357
     78          1           0        0.089206    1.300162   -1.752731
     79          6           0        1.708419    2.207964   -0.777611
     80          1           0        1.829818    3.270054   -0.546813
     81          6           0        2.412793    1.852088   -2.096105
     82          6           0        2.231089    1.355097    0.409531
     83          1           0        2.082800    0.298176    0.161395
     84          1           0        1.593294    1.587602    1.268009
     85          8           0        1.930968    0.995471   -2.845210
     86          6           0        3.710351    1.555074    0.810620
     87          1           0        3.933983    0.880459    1.640816
     88          1           0        4.377758    1.304498   -0.019251
     89          6           0        3.998996    2.957774    1.299209
     90          8           0        3.949054    3.344787    2.439278
     91          8           0        4.308365    3.807139    0.263552
     92          7           0        3.563780    2.509706   -2.362600
     93          1           0        3.947031    3.134525   -1.658097
     94          6           0        4.366404    2.199568   -3.549276
     95          1           0        3.651713    1.929384   -4.332719
     96          6           0        5.300198    0.982280   -3.307727
     97          6           0        5.169411    3.424293   -3.972358
     98          1           0        4.483816    4.260052   -4.159618
     99          1           0        5.841316    3.733795   -3.166452
    100          8           0        6.515645    1.123561   -3.160357
    101          6           0        6.039348    3.292468   -5.218857
    102          7           0        5.820996    2.285758   -6.085592
    103          1           0        6.445926    2.256136   -6.882889
    104          1           0        5.476647    1.353280   -5.821808
    105          8           0        6.894346    4.177971   -5.417324
    106          7           0        4.646582   -0.199849   -3.304898
    107          1           0        3.650447   -0.156177   -3.499889
    108          6           0        5.312840   -1.469550   -3.572954
    109          1           0        6.014007   -1.687666   -2.761635
    110          6           0        6.116235   -1.357621   -4.902136
    111          6           0        4.218137   -2.569542   -3.619209
    112          1           0        3.671956   -2.517674   -2.666647
    113          1           0        3.505808   -2.303388   -4.411331
    114          8           0        5.795393   -0.517765   -5.768045
    115          6           0        4.748857   -3.962688   -3.862552
    116          6           0        4.547484   -4.603370   -5.091744
    117          1           0        3.949278   -4.114941   -5.857984
    118          6           0        5.518743   -4.620649   -2.894765
    119          1           0        5.680193   -4.157185   -1.922907
    120          6           0        5.126187   -5.837787   -5.368928
    121          1           0        4.994325   -6.319812   -6.332190
    122          6           0        6.112804   -5.849712   -3.160948
    123          1           0        6.735941   -6.330473   -2.410676
    124          8           0        6.524860   -7.637748   -4.743798
    125          1           0        7.290838   -7.780565   -4.165983
    126          6           0        5.941854   -6.449127   -4.413196
    127          7           0        7.130060   -2.209970   -4.994968
    128          1           0        7.313057   -2.965550   -4.309475
    129          6           0        8.035444   -2.430389   -6.117990
    130          1           0        7.462617   -2.625254   -7.031480
    131          6           0        8.891993   -3.719433   -5.747842
    132          6           0        8.989939   -1.254578   -6.366023
    133          1           0        9.671417   -1.592037   -7.155174
    134          1           0        8.428675   -0.382945   -6.728851
    135          8           0        8.601014   -4.234697   -4.632192
    136          6           0        9.786103   -0.889861   -5.106606
    137          1           0        9.091173   -0.576208   -4.315665
    138          1           0       10.284514   -1.785994   -4.719741
    139          6           0       10.877222    0.165277   -5.331361
    140          1           0       11.273595    0.546956   -4.383901
    141          1           0       11.715036   -0.272916   -5.879501
    142          7           0       10.455101    1.328514   -6.141395
    143          1           0       10.613288    1.258816   -7.137493
    144          7           0        9.067046    2.265093   -4.515217
    145          1           0        8.407689    3.007452   -4.307763
    146          1           0        8.855631    1.382600   -4.064134
    147          7           0        9.276739    3.285790   -6.574149
    148          1           0        8.441918    3.846293   -6.357562
    149          1           0        9.812759    3.466216   -7.409652
    150          6           0        9.594027    2.272528   -5.751901
    151          8           0        9.765223   -4.011767   -6.581540
    152          1           0        4.450603    4.688116    0.661133
 ---------------------------------------------------------------------

 SCF Done:  E(RB3LYP) =  -3586.59653703     A.U. after    1 cycles

 Alpha  occ. eigenvalues --  -19.27773 -19.27289 -19.21428 -19.21392 -19.20325
 Alpha  occ. eigenvalues --  -19.20164 -19.19545 -19.19150 -19.18237 -19.18104
 Alpha  occ. eigenvalues --  -19.13977 -19.05250 -19.04119 -14.59986 -14.49926
 Alpha  occ. eigenvalues --  -14.45522 -14.45368 -14.44548 -14.44528 -14.44163
 Alpha  occ. eigenvalues --  -14.43900 -14.43790 -14.41559 -14.40972 -14.35864
 Alpha  occ. eigenvalues --  -10.43809 -10.41253 -10.40696 -10.39539 -10.38653
 Alpha  occ. eigenvalues --  -10.37246 -10.37147 -10.36764 -10.36579 -10.34769
 Alpha  occ. eigenvalues --  -10.34401 -10.34261 -10.32157 -10.31590 -10.30898
 Alpha  occ. eigenvalues --  -10.30840 -10.30692 -10.29812 -10.29689 -10.29135
 Alpha  occ. eigenvalues --  -10.28739 -10.27792 -10.27583 -10.27523 -10.27482
 Alpha  occ. eigenvalues --  -10.27479 -10.27159 -10.27126 -10.26851 -10.26766
 Alpha  occ. eigenvalues --  -10.26636 -10.26546 -10.26515 -10.26148 -10.25752
 Alpha  occ. eigenvalues --  -10.25655 -10.25634 -10.25115 -10.23291 -10.23164
 Alpha  occ. eigenvalues --  -10.23046 -10.22638 -10.22035 -10.20881 -10.20848
 Alpha  occ. eigenvalues --  -10.20650 -10.20461 -10.20027 -10.19955 -10.19531
 Alpha  occ. eigenvalues --   -1.19670  -1.17912  -1.14041  -1.13277  -1.12409
 Alpha  occ. eigenvalues --   -1.11957  -1.11086  -1.10633  -1.09712  -1.09425
 Alpha  occ. eigenvalues --   -1.09055  -1.06479  -1.06370  -1.04850  -1.01894
 Alpha  occ. eigenvalues --   -1.00913  -1.00640  -1.00225  -0.99306  -0.98313
 Alpha  occ. eigenvalues --   -0.97716  -0.97504  -0.96749  -0.94909  -0.93231
 Alpha  occ. eigenvalues --   -0.92741  -0.91279  -0.89529  -0.88751  -0.87791
 Alpha  occ. eigenvalues --   -0.86971  -0.86807  -0.86290  -0.85676  -0.83548
 Alpha  occ. eigenvalues --   -0.83197  -0.82969  -0.81977  -0.81722  -0.81306
 Alpha  occ. eigenvalues --   -0.80716  -0.79783  -0.79260  -0.77065  -0.76297
 Alpha  occ. eigenvalues --   -0.76023  -0.75304  -0.74846  -0.74073  -0.73919
 Alpha  occ. eigenvalues --   -0.73788  -0.73150  -0.72682  -0.72286  -0.71998
 Alpha  occ. eigenvalues --   -0.71106  -0.69603  -0.68875  -0.68857  -0.68318
 Alpha  occ. eigenvalues --   -0.67991  -0.67532  -0.67452  -0.67167  -0.66774
 Alpha  occ. eigenvalues --   -0.66225  -0.66192  -0.65562  -0.65054  -0.64949
 Alpha  occ. eigenvalues --   -0.64639  -0.63728  -0.63594  -0.63104  -0.62522
 Alpha  occ. eigenvalues --   -0.61919  -0.61692  -0.61308  -0.60367  -0.60151
 Alpha  occ. eigenvalues --   -0.59738  -0.59209  -0.58900  -0.58615  -0.58302
 Alpha  occ. eigenvalues --   -0.57771  -0.57484  -0.57343  -0.56712  -0.56527
 Alpha  occ. eigenvalues --   -0.56221  -0.56158  -0.55740  -0.55517  -0.55232
 Alpha  occ. eigenvalues --   -0.55141  -0.54926  -0.54877  -0.54334  -0.54040
 Alpha  occ. eigenvalues --   -0.53753  -0.53563  -0.53466  -0.53345  -0.52963
 Alpha  occ. eigenvalues --   -0.52864  -0.52611  -0.52176  -0.52150  -0.51798
 Alpha  occ. eigenvalues --   -0.51491  -0.51316  -0.51142  -0.50953  -0.50645
 Alpha  occ. eigenvalues --   -0.50292  -0.49727  -0.49671  -0.49633  -0.49522
 Alpha  occ. eigenvalues --   -0.49246  -0.49148  -0.49107  -0.48777  -0.48613
 Alpha  occ. eigenvalues --   -0.48231  -0.48027  -0.48005  -0.47669  -0.47482
 Alpha  occ. eigenvalues --   -0.47423  -0.47280  -0.47170  -0.47012  -0.46971
 Alpha  occ. eigenvalues --   -0.46822  -0.46766  -0.46481  -0.46082  -0.45849
 Alpha  occ. eigenvalues --   -0.45621  -0.45437  -0.45295  -0.45188  -0.44929
 Alpha  occ. eigenvalues --   -0.44870  -0.44572  -0.44400  -0.44281  -0.44222
 Alpha  occ. eigenvalues --   -0.43874  -0.43659  -0.43484  -0.43118  -0.43000
 Alpha  occ. eigenvalues --   -0.42973  -0.42602  -0.42458  -0.42150  -0.42127
 Alpha  occ. eigenvalues --   -0.41923  -0.41784  -0.41760  -0.41688  -0.41564
 Alpha  occ. eigenvalues --   -0.41317  -0.40438  -0.40305  -0.39592  -0.39505
 Alpha  occ. eigenvalues --   -0.39115  -0.39017  -0.38529  -0.38491  -0.38482
 Alpha  occ. eigenvalues --   -0.37459  -0.37240  -0.36694  -0.36218  -0.35908
 Alpha  occ. eigenvalues --   -0.35716  -0.35524  -0.35337  -0.34942  -0.34872
 Alpha  occ. eigenvalues --   -0.34660  -0.34609  -0.34293  -0.34220  -0.33916
 Alpha  occ. eigenvalues --   -0.33789  -0.33369  -0.33179  -0.32844  -0.32651
 Alpha  occ. eigenvalues --   -0.32552  -0.32515  -0.31851  -0.31651  -0.30626
 Alpha  occ. eigenvalues --   -0.28057  -0.26687  -0.26278  -0.22936  -0.20321
 Alpha  occ. eigenvalues --   -0.20131  -0.18578
 Alpha virt. eigenvalues --   -0.12837  -0.11217  -0.08419  -0.07904  -0.07678
 Alpha virt. eigenvalues --   -0.06905  -0.06774  -0.06687  -0.06124  -0.05749
 Alpha virt. eigenvalues --   -0.05402  -0.05365  -0.05059  -0.04202  -0.02084

 Mulliken charges:
               1
     1  N   -0.762142
     2  H    0.415111
     3  H    0.436782
     4  H    0.412819
     5  C   -0.115862
     6  H    0.208419
     7  C    0.666979
     8  C   -0.103648
     9  H    0.154262
    10  O   -0.537107
    11  C   -0.489130
    12  H    0.229055
    13  H    0.184468
    14  H    0.131209
    15  C   -0.499158
    16  H    0.206815
    17  H    0.151253
    18  H    0.190627
    19  N   -0.584790
    20  H    0.358196
    21  C   -0.065477
    22  H    0.184879
    23  C    0.630270
    24  C   -0.107178
    25  H    0.138481
    26  O   -0.537796
    27  C   -0.254137
    28  H    0.125859
    29  H    0.147139
    30  C   -0.481856
    31  H    0.156149
    32  H    0.177385
    33  H    0.174000
    34  C   -0.453006
    35  H    0.161890
    36  H    0.148174
    37  H    0.165537
    38  N   -0.585850
    39  H    0.357243
    40  C   -0.079740
    41  H    0.192848
    42  C    0.625777
    43  C   -0.375682
    44  H    0.176234
    45  H    0.165510
    46  O   -0.536220
    47  C    0.186094
    48  C   -0.176358
    49  H    0.136837
    50  C   -0.170051
    51  H    0.132095
    52  C   -0.130651
    53  H    0.142982
    54  C   -0.138049
    55  H    0.123968
    56  C   -0.140489
    57  H    0.129685
    58  N   -0.590866
    59  H    0.353596
    60  C   -0.086470
    61  H    0.186690
    62  C    0.628624
    63  C   -0.252858
    64  H    0.142719
    65  H    0.144651
    66  O   -0.547734
    67  C   -0.067236
    68  H    0.128591
    69  C   -0.445167
    70  H    0.147104
    71  H    0.142617
    72  H    0.148237
    73  C   -0.466582
    74  H    0.139737
    75  H    0.145819
    76  H    0.172425
    77  N   -0.619039
    78  H    0.360534
    79  C   -0.043142
    80  H    0.184011
    81  C    0.618961
    82  C   -0.280924
    83  H    0.170446
    84  H    0.192263
    85  O   -0.552812
    86  C   -0.360963
    87  H    0.196808
    88  H    0.184056
    89  C    0.580573
    90  O   -0.431139
    91  O   -0.588778
    92  N   -0.638405
    93  H    0.380263
    94  C   -0.074522
    95  H    0.195834
    96  C    0.629345
    97  C   -0.362460
    98  H    0.191162
    99  H    0.181772
   100  O   -0.559679
   101  C    0.608637
   102  N   -0.756142
   103  H    0.339000
   104  H    0.415470
   105  O   -0.577486
   106  N   -0.620340
   107  H    0.369205
   108  C   -0.031136
   109  H    0.171416
   110  C    0.633120
   111  C   -0.391467
   112  H    0.149304
   113  H    0.153533
   114  O   -0.605812
   115  C    0.165005
   116  C   -0.183781
   117  H    0.121925
   118  C   -0.197084
   119  H    0.112089
   120  C   -0.153328
   121  H    0.142229
   122  C   -0.147630
   123  H    0.124049
   124  O   -0.645091
   125  H    0.416696
   126  C    0.374125
   127  N   -0.606917
   128  H    0.377444
   129  C   -0.056572
   130  H    0.147765
   131  C    0.579561
   132  C   -0.266632
   133  H    0.163421
   134  H    0.105334
   135  O   -0.621591
   136  C   -0.306188
   137  H    0.145860
   138  H    0.206007
   139  C   -0.174842
   140  H    0.178774
   141  H    0.188815
   142  N   -0.582861
   143  H    0.355307
   144  N   -0.761796
   145  H    0.380931
   146  H    0.401623
   147  N   -0.797528
   148  H    0.411049
   149  H    0.357391
   150  C    0.778892
   151  O   -0.590933
   152  H    0.422460
 Sum of Mulliken charges =   1.00000

 Dipole moment (field-independent basis, Debye):
    X=            -36.3461    Y=             24.1330    Z=             24.8451  Tot=             50.2067
 Quadrupole moment (field-independent basis, Debye-Ang):
   XX=            -46.4431   YY=           -443.3893   ZZ=           -240.3364
   XY=             56.8383   XZ=           -252.8184   YZ=            -47.3249

 Normal termination of Gaussian 16 at Fri Aug 12 04:46:07 2022.
