 Gaussian 16, Revision C.01,
 Gaussian 16:  ES64L-G16RevC.01  3-Jul-2019

 -------------------------------------------------------------------
 # B3LYP/6-31G* guess=read geom=check nosymm integral(ultrafinegrid)
 -------------------------------------------------------------------

 -----------------------------------------------------
 Candidate Structure: Conf:12 Charge calc in gas phase
 -----------------------------------------------------
 Structure from the checkpoint file:  "conf-12.chk"
 Charge =  1 Multiplicity = 1

                          Input orientation:
 ---------------------------------------------------------------------
 Center     Atomic      Atomic             Coordinates (Angstroms)
 Number     Number       Type             X           Y           Z
 ---------------------------------------------------------------------
      1          7           0      -11.059060    2.444154    6.779715
      2          1           0      -11.990120    2.662135    6.413620
      3          1           0      -10.846881    1.422411    6.575087
      4          1           0      -11.048824    2.644996    7.782715
      5          6           0       -9.943717    3.147117    6.023146
      6          1           0      -10.379959    4.003395    5.501282
      7          6           0       -9.501316    2.029759    5.030060
      8          6           0       -8.831696    3.624596    6.997086
      9          1           0       -8.361251    2.728592    7.426076
     10          8           0       -9.822286    0.864991    5.316930
     11          6           0       -7.752466    4.422606    6.244156
     12          1           0       -8.183511    5.306963    5.757404
     13          1           0       -7.003463    4.773901    6.958600
     14          1           0       -7.216698    3.834271    5.496849
     15          6           0       -9.407098    4.487054    8.137068
     16          1           0       -9.943395    5.360899    7.748005
     17          1           0      -10.078906    3.949212    8.820940
     18          1           0       -8.587756    4.854969    8.760993
     19          7           0       -8.840521    2.403058    3.939397
     20          1           0       -8.489037    3.354704    3.844559
     21          6           0       -8.179003    1.475006    3.009608
     22          1           0       -8.203165    0.479819    3.462244
     23          6           0       -6.734121    2.021179    2.928792
     24          6           0       -8.889480    1.442206    1.622135
     25          1           0       -8.795156    2.451894    1.195183
     26          8           0       -6.545708    3.233417    3.063042
     27          6           0      -10.391907    1.124113    1.782176
     28          1           0      -10.825749    1.818222    2.512372
     29          1           0      -10.502194    0.117358    2.208930
     30          6           0       -8.198674    0.444692    0.677741
     31          1           0       -8.271747   -0.579619    1.066898
     32          1           0       -7.141160    0.669119    0.516866
     33          1           0       -8.679996    0.454172   -0.303463
     34          6           0      -11.199495    1.228073    0.482430
     35          1           0      -12.266848    1.088715    0.684317
     36          1           0      -11.075822    2.212400    0.014632
     37          1           0      -10.907351    0.469814   -0.250238
     38          7           0       -5.752859    1.115280    2.747874
     39          1           0       -5.980003    0.170381    2.451843
     40          6           0       -4.360926    1.483711    2.531734
     41          1           0       -4.325349    2.568864    2.403451
     42          6           0       -3.899026    0.750685    1.256160
     43          6           0       -3.459834    1.061930    3.727766
     44          1           0       -2.428109    1.340760    3.482039
     45          1           0       -3.481684   -0.032393    3.795260
     46          8           0       -4.482583   -0.265931    0.876432
     47          6           0       -3.855403    1.669266    5.056467
     48          6           0       -3.448766    2.965682    5.401544
     49          1           0       -2.846996    3.544262    4.704051
     50          6           0       -4.616838    0.939695    5.978681
     51          1           0       -4.924817   -0.074258    5.734372
     52          6           0       -3.784261    3.515875    6.638354
     53          1           0       -3.441178    4.514424    6.894911
     54          6           0       -4.954983    1.485310    7.219117
     55          1           0       -5.519065    0.890496    7.933414
     56          6           0       -4.536199    2.774674    7.553850
     57          1           0       -4.770742    3.190582    8.530428
     58          7           0       -2.810485    1.265023    0.647428
     59          1           0       -2.367721    2.117788    0.973490
     60          6           0       -2.171459    0.643610   -0.509390
     61          1           0       -2.285597   -0.438869   -0.406010
     62          6           0       -0.695992    1.058838   -0.431084
     63          6           0       -2.831130    1.122409   -1.827403
     64          1           0       -2.723171    2.213928   -1.870609
     65          1           0       -3.903042    0.907550   -1.733984
     66          8           0       -0.391953    2.178349    0.000311
     67          6           0       -2.300722    0.499494   -3.134537
     68          1           0       -1.220860    0.697374   -3.200622
     69          6           0       -2.520964   -1.020765   -3.197141
     70          1           0       -3.587430   -1.264662   -3.115686
     71          1           0       -2.005087   -1.564383   -2.395183
     72          1           0       -2.157180   -1.426796   -4.147114
     73          6           0       -2.966996    1.185192   -4.337859
     74          1           0       -4.052638    1.025636   -4.329548
     75          1           0       -2.579421    0.785224   -5.281085
     76          1           0       -2.788205    2.266885   -4.332930
     77          7           0        0.220815    0.163609   -0.857546
     78          1           0       -0.096331   -0.711086   -1.256898
     79          6           0        1.671752    0.390744   -0.788647
     80          1           0        1.843980    0.998594    0.108213
     81          6           0        2.199717    1.221265   -1.986959
     82          6           0        2.415051   -0.939388   -0.657114
     83          1           0        3.479010   -0.732477   -0.791062
     84          1           0        2.126090   -1.618148   -1.469086
     85          8           0        3.089493    0.815724   -2.729023
     86          6           0        2.171320   -1.607722    0.712054
     87          1           0        2.485297   -0.939421    1.518145
     88          1           0        1.109161   -1.840642    0.842050
     89          6           0        2.924011   -2.916540    0.800652
     90          8           0        2.616674   -3.945903    0.250490
     91          8           0        4.053398   -2.813569    1.567232
     92          7           0        1.611653    2.442540   -2.119604
     93          1           0        1.006536    2.765135   -1.365975
     94          6           0        2.089978    3.405244   -3.108912
     95          1           0        2.430517    2.821050   -3.968165
     96          6           0        3.280704    4.212562   -2.530997
     97          6           0        0.940118    4.336422   -3.533953
     98          1           0        0.131255    3.723628   -3.941090
     99          1           0        0.571506    4.878457   -2.658182
    100          8           0        3.113727    5.338553   -2.054199
    101          6           0        1.362660    5.320867   -4.624281
    102          7           0        1.669765    6.564938   -4.194799
    103          1           0        2.109961    7.188342   -4.861777
    104          1           0        1.957821    6.655301   -3.223726
    105          8           0        1.409108    4.980326   -5.816907
    106          7           0        4.476231    3.585354   -2.591515
    107          1           0        4.500613    2.623883   -2.916617
    108          6           0        5.709301    4.224397   -2.141387
    109          1           0        5.418151    4.982042   -1.411091
    110          6           0        6.431665    4.906230   -3.317353
    111          6           0        6.705933    3.223264   -1.508086
    112          1           0        7.106562    2.587640   -2.306951
    113          1           0        7.547575    3.825536   -1.139486
    114          8           0        6.481468    4.327917   -4.435812
    115          6           0        6.137044    2.349758   -0.409742
    116          6           0        5.509398    2.888132    0.724844
    117          1           0        5.423932    3.966729    0.833459
    118          6           0        6.248314    0.957945   -0.491821
    119          1           0        6.741512    0.510585   -1.351506
    120          6           0        4.993530    2.070687    1.726957
    121          1           0        4.511025    2.493402    2.602982
    122          6           0        5.752460    0.123339    0.511333
    123          1           0        5.865370   -0.955119    0.431010
    124          8           0        4.566560   -0.083794    2.621919
    125          1           0        4.676745   -1.026793    2.404058
    126          6           0        5.109324    0.678859    1.622006
    127          7           0        7.016322    6.059759   -3.026336
    128          1           0        7.185307    6.267016   -2.008542
    129          6           0        8.212952    6.613472   -3.675832
    130          1           0        8.677377    5.843196   -4.302201
    131          6           0        9.203151    6.906495   -2.435709
    132          6           0        8.025413    7.914036   -4.476611
    133          1           0        7.283662    8.549821   -3.972696
    134          1           0        8.993497    8.416716   -4.374771
    135          8           0       10.298764    7.383831   -2.745963
    136          6           0        7.723844    7.852402   -5.989125
    137          1           0        8.026086    8.813066   -6.424920
    138          1           0        8.357205    7.095478   -6.472058
    139          6           0        6.270480    7.642451   -6.433580
    140          1           0        5.604291    8.310640   -5.869087
    141          1           0        6.182938    7.904922   -7.497879
    142          7           0        5.839388    6.254617   -6.255058
    143          1           0        6.438910    5.608276   -5.717733
    144          7           0        3.627636    6.618420   -6.934030
    145          1           0        2.703418    6.209707   -7.050423
    146          1           0        3.884676    7.399339   -7.519841
    147          7           0        4.284181    4.557849   -6.082648
    148          1           0        3.306810    4.286738   -6.113758
    149          1           0        4.933164    4.089198   -5.440780
    150          6           0        4.597503    5.815513   -6.426940
    151          8           0        8.702920    6.616441   -1.308551
    152          1           0        4.487529   -3.688689    1.546789
 ---------------------------------------------------------------------

 SCF Done:  E(RB3LYP) =  -3586.61208818     A.U. after    1 cycles

 Alpha  occ. eigenvalues --  -19.27297 -19.27276 -19.22405 -19.21698 -19.21693
 Alpha  occ. eigenvalues --  -19.20943 -19.20886 -19.19816 -19.19551 -19.18162
 Alpha  occ. eigenvalues --  -19.16405 -19.06846 -19.05551 -14.60271 -14.50027
 Alpha  occ. eigenvalues --  -14.46365 -14.46287 -14.45292 -14.44559 -14.43448
 Alpha  occ. eigenvalues --  -14.42804 -14.42470 -14.42238 -14.41926 -14.37264
 Alpha  occ. eigenvalues --  -10.44132 -10.41156 -10.39764 -10.39614 -10.39159
 Alpha  occ. eigenvalues --  -10.38599 -10.38113 -10.37066 -10.36514 -10.35191
 Alpha  occ. eigenvalues --  -10.34937 -10.34760 -10.33082 -10.32468 -10.32232
 Alpha  occ. eigenvalues --  -10.31933 -10.31881 -10.31240 -10.29760 -10.29759
 Alpha  occ. eigenvalues --  -10.29061 -10.28633 -10.28603 -10.28090 -10.27763
 Alpha  occ. eigenvalues --  -10.27616 -10.27355 -10.27295 -10.27235 -10.27189
 Alpha  occ. eigenvalues --  -10.27137 -10.27114 -10.27043 -10.26951 -10.26818
 Alpha  occ. eigenvalues --  -10.26783 -10.26539 -10.25907 -10.24895 -10.24486
 Alpha  occ. eigenvalues --  -10.24344 -10.23271 -10.23219 -10.23168 -10.23062
 Alpha  occ. eigenvalues --  -10.23021 -10.22884 -10.22684 -10.22068 -10.19984
 Alpha  occ. eigenvalues --   -1.19774  -1.17459  -1.14639  -1.14064  -1.13701
 Alpha  occ. eigenvalues --   -1.12626  -1.11368  -1.11023  -1.09731  -1.09695
 Alpha  occ. eigenvalues --   -1.08668  -1.08540  -1.06849  -1.06553  -1.02897
 Alpha  occ. eigenvalues --   -1.02335  -1.01688  -0.99982  -0.99831  -0.98255
 Alpha  occ. eigenvalues --   -0.97843  -0.97647  -0.96492  -0.95574  -0.94327
 Alpha  occ. eigenvalues --   -0.93806  -0.91562  -0.90966  -0.89654  -0.89350
 Alpha  occ. eigenvalues --   -0.88086  -0.87828  -0.87144  -0.85900  -0.84215
 Alpha  occ. eigenvalues --   -0.83695  -0.83322  -0.82719  -0.82523  -0.81759
 Alpha  occ. eigenvalues --   -0.81678  -0.80527  -0.79923  -0.78841  -0.78212
 Alpha  occ. eigenvalues --   -0.76500  -0.75627  -0.75336  -0.75132  -0.74896
 Alpha  occ. eigenvalues --   -0.74455  -0.74022  -0.73280  -0.72046  -0.71459
 Alpha  occ. eigenvalues --   -0.71282  -0.70661  -0.69910  -0.69613  -0.68926
 Alpha  occ. eigenvalues --   -0.68597  -0.68284  -0.67588  -0.67442  -0.66920
 Alpha  occ. eigenvalues --   -0.66818  -0.66678  -0.65930  -0.65659  -0.65334
 Alpha  occ. eigenvalues --   -0.65123  -0.64435  -0.64139  -0.63865  -0.63406
 Alpha  occ. eigenvalues --   -0.63110  -0.62872  -0.61145  -0.60921  -0.60516
 Alpha  occ. eigenvalues --   -0.59850  -0.59528  -0.59172  -0.59005  -0.58883
 Alpha  occ. eigenvalues --   -0.58512  -0.58190  -0.57739  -0.57674  -0.57323
 Alpha  occ. eigenvalues --   -0.57131  -0.56700  -0.56613  -0.56580  -0.56408
 Alpha  occ. eigenvalues --   -0.55791  -0.55297  -0.55161  -0.54943  -0.54810
 Alpha  occ. eigenvalues --   -0.54503  -0.54367  -0.53886  -0.53767  -0.53461
 Alpha  occ. eigenvalues --   -0.53367  -0.53224  -0.52914  -0.52728  -0.52441
 Alpha  occ. eigenvalues --   -0.52166  -0.51915  -0.51498  -0.51406  -0.51269
 Alpha  occ. eigenvalues --   -0.51161  -0.50901  -0.50732  -0.50480  -0.50298
 Alpha  occ. eigenvalues --   -0.50068  -0.50015  -0.49515  -0.49400  -0.49281
 Alpha  occ. eigenvalues --   -0.48770  -0.48573  -0.48458  -0.48259  -0.48161
 Alpha  occ. eigenvalues --   -0.48062  -0.47843  -0.47645  -0.47617  -0.47546
 Alpha  occ. eigenvalues --   -0.47424  -0.47419  -0.47374  -0.47138  -0.46764
 Alpha  occ. eigenvalues --   -0.46487  -0.46436  -0.46027  -0.45881  -0.45637
 Alpha  occ. eigenvalues --   -0.45408  -0.45286  -0.45253  -0.45108  -0.45078
 Alpha  occ. eigenvalues --   -0.44652  -0.44530  -0.44141  -0.43971  -0.43552
 Alpha  occ. eigenvalues --   -0.43436  -0.43342  -0.43266  -0.43179  -0.42955
 Alpha  occ. eigenvalues --   -0.42884  -0.42731  -0.42429  -0.42274  -0.42111
 Alpha  occ. eigenvalues --   -0.41786  -0.41630  -0.41504  -0.41085  -0.40699
 Alpha  occ. eigenvalues --   -0.40310  -0.40137  -0.40003  -0.39446  -0.38946
 Alpha  occ. eigenvalues --   -0.38540  -0.37903  -0.37490  -0.37279  -0.37006
 Alpha  occ. eigenvalues --   -0.36559  -0.36462  -0.36233  -0.36146  -0.35804
 Alpha  occ. eigenvalues --   -0.35788  -0.35543  -0.34992  -0.34760  -0.34687
 Alpha  occ. eigenvalues --   -0.34479  -0.34102  -0.33904  -0.33517  -0.33122
 Alpha  occ. eigenvalues --   -0.32650  -0.32469  -0.32196  -0.32060  -0.30924
 Alpha  occ. eigenvalues --   -0.30012  -0.29274  -0.29079  -0.25850  -0.21745
 Alpha  occ. eigenvalues --   -0.21693  -0.19618
 Alpha virt. eigenvalues --   -0.13022  -0.11546  -0.09115  -0.08487  -0.08310
 Alpha virt. eigenvalues --   -0.08004  -0.06997  -0.06936  -0.06543  -0.06207
 Alpha virt. eigenvalues --   -0.05670  -0.04765  -0.04632  -0.04574  -0.03676

 Mulliken charges:
               1
     1  N   -0.760322
     2  H    0.415428
     3  H    0.433195
     4  H    0.408174
     5  C   -0.105541
     6  H    0.204853
     7  C    0.646686
     8  C   -0.108211
     9  H    0.173901
    10  O   -0.541686
    11  C   -0.485718
    12  H    0.157874
    13  H    0.186792
    14  H    0.205307
    15  C   -0.481247
    16  H    0.175411
    17  H    0.142772
    18  H    0.203386
    19  N   -0.589940
    20  H    0.373293
    21  C   -0.083913
    22  H    0.188924
    23  C    0.633773
    24  C   -0.074990
    25  H    0.143275
    26  O   -0.542342
    27  C   -0.250802
    28  H    0.115521
    29  H    0.148414
    30  C   -0.486668
    31  H    0.153365
    32  H    0.171919
    33  H    0.174418
    34  C   -0.453374
    35  H    0.156447
    36  H    0.151316
    37  H    0.164145
    38  N   -0.592234
    39  H    0.360306
    40  C   -0.078116
    41  H    0.193192
    42  C    0.637627
    43  C   -0.367827
    44  H    0.169051
    45  H    0.166794
    46  O   -0.542116
    47  C    0.188432
    48  C   -0.170238
    49  H    0.135682
    50  C   -0.186630
    51  H    0.130323
    52  C   -0.130670
    53  H    0.146009
    54  C   -0.140086
    55  H    0.132505
    56  C   -0.139306
    57  H    0.134370
    58  N   -0.617371
    59  H    0.356556
    60  C   -0.050697
    61  H    0.180806
    62  C    0.627964
    63  C   -0.253550
    64  H    0.145925
    65  H    0.162794
    66  O   -0.559916
    67  C   -0.095011
    68  H    0.131289
    69  C   -0.452757
    70  H    0.159487
    71  H    0.126834
    72  H    0.163732
    73  C   -0.445714
    74  H    0.148322
    75  H    0.158197
    76  H    0.146075
    77  N   -0.605113
    78  H    0.352769
    79  C   -0.076971
    80  H    0.208179
    81  C    0.637318
    82  C   -0.310617
    83  H    0.208230
    84  H    0.171141
    85  O   -0.524523
    86  C   -0.359585
    87  H    0.192322
    88  H    0.166741
    89  C    0.578643
    90  O   -0.439771
    91  O   -0.583054
    92  N   -0.627846
    93  H    0.376763
    94  C   -0.059557
    95  H    0.182511
    96  C    0.626910
    97  C   -0.356185
    98  H    0.182410
    99  H    0.174563
   100  O   -0.549026
   101  C    0.572289
   102  N   -0.716656
   103  H    0.344688
   104  H    0.384107
   105  O   -0.555336
   106  N   -0.603562
   107  H    0.364892
   108  C   -0.058640
   109  H    0.191400
   110  C    0.613248
   111  C   -0.404420
   112  H    0.164408
   113  H    0.216045
   114  O   -0.620856
   115  C    0.180952
   116  C   -0.187623
   117  H    0.145464
   118  C   -0.195262
   119  H    0.137373
   120  C   -0.168664
   121  H    0.140146
   122  C   -0.206119
   123  H    0.125365
   124  O   -0.674000
   125  H    0.435321
   126  C    0.342119
   127  N   -0.569157
   128  H    0.369489
   129  C   -0.101817
   130  H    0.148404
   131  C    0.587781
   132  C   -0.265840
   133  H    0.127504
   134  H    0.197631
   135  O   -0.558769
   136  C   -0.308750
   137  H    0.155082
   138  H    0.159413
   139  C   -0.135281
   140  H    0.160008
   141  H    0.150218
   142  N   -0.615370
   143  H    0.410984
   144  N   -0.793181
   145  H    0.381490
   146  H    0.364135
   147  N   -0.804362
   148  H    0.379240
   149  H    0.402039
   150  C    0.771125
   151  O   -0.613035
   152  H    0.424221
 Sum of Mulliken charges =   1.00000

 Dipole moment (field-independent basis, Debye):
    X=            -55.2652    Y=              8.5852    Z=             17.4359  Tot=             58.5830
 Quadrupole moment (field-independent basis, Debye-Ang):
   XX=           -176.3947   YY=           -417.5581   ZZ=           -190.9792
   XY=           -235.1656   XZ=           -272.8147   YZ=             15.7121

 Normal termination of Gaussian 16 at Fri Aug 12 04:45:57 2022.
