 Gaussian 16, Revision C.01,
 Gaussian 16:  ES64L-G16RevC.01  3-Jul-2019

 -------------------------------------------------------------------
 # B3LYP/6-31G* guess=read geom=check nosymm integral(ultrafinegrid)
 -------------------------------------------------------------------

 ------------------------------------------------------
 Candidate Structure: Conf:433 Charge calc in gas phase
 ------------------------------------------------------
 Structure from the checkpoint file:  "conf-433.chk"
 Charge =  1 Multiplicity = 1

                          Input orientation:
 ---------------------------------------------------------------------
 Center     Atomic      Atomic             Coordinates (Angstroms)
 Number     Number       Type             X           Y           Z
 ---------------------------------------------------------------------
      1          7           0      -12.070185    0.848392    7.570160
      2          1           0      -12.591309    1.685747    7.295148
      3          1           0      -12.128349    0.136161    6.779446
      4          1           0      -12.467852    0.488244    8.441065
      5          6           0      -10.569874    1.077631    7.650007
      6          1           0      -10.393578    2.149520    7.774895
      7          6           0      -10.113857    0.575853    6.247713
      8          6           0       -9.974378    0.288638    8.845381
      9          1           0      -10.214853   -0.772269    8.682173
     10          8           0      -10.885643   -0.196649    5.651390
     11          6           0       -8.443777    0.432670    8.903588
     12          1           0       -8.144486    1.484119    8.996836
     13          1           0       -8.066127   -0.091242    9.786043
     14          1           0       -7.936996    0.005514    8.036265
     15          6           0      -10.592230    0.746069   10.180212
     16          1           0      -10.390506    1.807440   10.366939
     17          1           0      -11.677797    0.591510   10.254726
     18          1           0      -10.150965    0.175146   11.002085
     19          7           0       -8.952268    1.017435    5.792904
     20          1           0       -8.319384    1.590466    6.358236
     21          6           0       -8.301622    0.556132    4.561443
     22          1           0       -8.504345   -0.513881    4.447825
     23          6           0       -6.797801    0.788338    4.848890
     24          6           0       -8.851796    1.305241    3.308118
     25          1           0       -9.943373    1.205870    3.391396
     26          8           0       -6.469664    1.548200    5.766196
     27          6           0       -8.437494    0.606033    1.995082
     28          1           0       -8.572696   -0.479219    2.112810
     29          1           0       -7.371608    0.770048    1.793844
     30          6           0       -8.494207    2.798394    3.326855
     31          1           0       -7.417374    2.954447    3.195647
     32          1           0       -8.787163    3.274614    4.269129
     33          1           0       -9.007050    3.328290    2.519323
     34          6           0       -9.249709    1.062707    0.776577
     35          1           0       -8.955256    0.494557   -0.111494
     36          1           0      -10.324031    0.906174    0.932484
     37          1           0       -9.091961    2.122778    0.552327
     38          7           0       -5.932418    0.116735    4.071578
     39          1           0       -6.250389   -0.361729    3.232728
     40          6           0       -4.491278    0.322275    4.106950
     41          1           0       -4.298191    1.259391    4.635926
     42          6           0       -4.030104    0.403238    2.636203
     43          6           0       -3.750923   -0.846404    4.819427
     44          1           0       -2.675361   -0.635850    4.777006
     45          1           0       -3.916763   -1.756876    4.231254
     46          8           0       -4.732447   -0.081940    1.744250
     47          6           0       -4.181175   -1.070630    6.252553
     48          6           0       -3.673016   -0.273097    7.287046
     49          1           0       -2.955981    0.511957    7.057238
     50          6           0       -5.092120   -2.084276    6.575916
     51          1           0       -5.480732   -2.724458    5.787155
     52          6           0       -4.062189   -0.482842    8.609259
     53          1           0       -3.646052    0.137291    9.398576
     54          6           0       -5.483965   -2.300143    7.899127
     55          1           0       -6.172936   -3.108146    8.132724
     56          6           0       -4.968849   -1.499410    8.920188
     57          1           0       -5.253944   -1.679066    9.953689
     58          7           0       -2.835943    0.991522    2.441395
     59          1           0       -2.253393    1.242520    3.237215
     60          6           0       -2.077868    0.930835    1.195005
     61          1           0       -2.493364    0.122608    0.586448
     62          6           0       -0.627612    0.612847    1.605442
     63          6           0       -2.101215    2.268365    0.417272
     64          1           0       -1.371710    2.216690   -0.401882
     65          1           0       -1.732290    3.046878    1.098416
     66          8           0       -0.222352    0.885472    2.736800
     67          6           0       -3.469284    2.690878   -0.151646
     68          1           0       -4.193769    2.715750    0.675401
     69          6           0       -3.356491    4.110450   -0.729852
     70          1           0       -2.615336    4.144727   -1.538086
     71          1           0       -3.043111    4.831115    0.034810
     72          1           0       -4.316609    4.447669   -1.137914
     73          6           0       -3.993689    1.707761   -1.209120
     74          1           0       -3.272465    1.592224   -2.029280
     75          1           0       -4.930370    2.074673   -1.645399
     76          1           0       -4.198405    0.721449   -0.781142
     77          7           0        0.143023    0.068213    0.638239
     78          1           0       -0.222678   -0.046214   -0.301976
     79          6           0        1.602578    0.040886    0.715454
     80          1           0        1.908754    0.833891    1.404895
     81          6           0        2.084993    0.350525   -0.709231
     82          6           0        2.156991   -1.296038    1.253510
     83          1           0        1.807354   -1.408030    2.284665
     84          1           0        3.250073   -1.228065    1.304837
     85          8           0        1.483088   -0.105235   -1.685679
     86          6           0        1.751014   -2.522696    0.434969
     87          1           0        0.658857   -2.609582    0.374003
     88          1           0        2.094483   -2.456087   -0.603559
     89          6           0        2.283942   -3.805676    1.033017
     90          8           0        2.932675   -3.902761    2.051418
     91          8           0        1.942831   -4.880961    0.279552
     92          7           0        3.178317    1.132923   -0.812819
     93          1           0        3.659795    1.505217   -0.000770
     94          6           0        3.693718    1.588973   -2.088718
     95          1           0        3.550565    0.788071   -2.820189
     96          6           0        5.190554    1.890009   -1.880681
     97          6           0        2.985947    2.886696   -2.580502
     98          1           0        3.188714    3.683692   -1.859751
     99          1           0        3.417973    3.179116   -3.545047
    100          8           0        5.601936    2.227266   -0.767595
    101          6           0        1.465799    2.750622   -2.683591
    102          7           0        0.991428    2.384750   -3.912973
    103          1           0        0.022222    2.097722   -3.953813
    104          1           0        1.608042    1.975224   -4.600642
    105          8           0        0.729077    2.989820   -1.734903
    106          7           0        5.959251    1.785522   -2.978738
    107          1           0        5.567575    1.605901   -3.901638
    108          6           0        7.356699    2.188773   -3.019749
    109          1           0        7.453429    3.162925   -2.525328
    110          6           0        7.682874    2.350681   -4.523743
    111          6           0        8.292402    1.176493   -2.280412
    112          1           0        7.668083    0.653630   -1.550000
    113          1           0        8.653424    0.422301   -2.988647
    114          8           0        6.809287    2.138984   -5.373431
    115          6           0        9.452675    1.829824   -1.556431
    116          6           0       10.776030    1.715743   -2.003715
    117          1           0       10.999196    1.161966   -2.911146
    118          6           0        9.210574    2.571786   -0.389834
    119          1           0        8.190730    2.667209   -0.024102
    120          6           0       11.827127    2.323141   -1.318347
    121          1           0       12.849186    2.235986   -1.672327
    122          6           0       10.252616    3.179911    0.305681
    123          1           0       10.046052    3.746272    1.212676
    124          8           0       12.633542    3.629889    0.481337
    125          1           0       12.314781    4.085569    1.275833
    126          6           0       11.568274    3.055384   -0.157614
    127          7           0        8.938411    2.726965   -4.829948
    128          1           0        9.671070    2.754514   -4.123974
    129          6           0        9.436408    2.745905   -6.205468
    130          1           0        8.992387    1.903447   -6.745340
    131          6           0       10.973362    2.566388   -6.212005
    132          6           0        9.021003    4.026212   -6.972525
    133          1           0        9.411714    3.927918   -7.991716
    134          1           0        7.928098    4.009499   -7.041859
    135          8           0       11.520723    2.436820   -7.313013
    136          6           0        9.431819    5.390594   -6.374195
    137          1           0        8.723567    6.143506   -6.741155
    138          1           0        9.308501    5.380875   -5.282470
    139          6           0       10.828086    5.940773   -6.722663
    140          1           0       11.010317    5.806672   -7.796874
    141          1           0       10.847904    7.017085   -6.507475
    142          7           0       11.900426    5.280779   -5.965216
    143          1           0       11.599261    4.610111   -5.249993
    144          7           0       13.651918    5.696709   -7.456482
    145          1           0       14.363775    5.280012   -8.038376
    146          1           0       13.124168    6.450964   -7.869036
    147          7           0       13.781525    3.967962   -5.884872
    148          1           0       14.669725    3.693415   -6.280376
    149          1           0       13.161377    3.224102   -5.480263
    150          6           0       13.103221    4.964987   -6.459432
    151          8           0       11.553186    2.684361   -5.063871
    152          1           0        2.325826   -5.657965    0.728918
 ---------------------------------------------------------------------

 SCF Done:  E(RB3LYP) =  -3586.62872968     A.U. after    1 cycles

 Alpha  occ. eigenvalues --  -19.26053 -19.22956 -19.20906 -19.20439 -19.18659
 Alpha  occ. eigenvalues --  -19.17429 -19.17204 -19.16665 -19.16552 -19.15693
 Alpha  occ. eigenvalues --  -19.15462 -19.12574 -19.10933 -14.59350 -14.48492
 Alpha  occ. eigenvalues --  -14.44471 -14.44424 -14.42287 -14.42216 -14.41135
 Alpha  occ. eigenvalues --  -14.41116 -14.40960 -14.40217 -14.39971 -14.38560
 Alpha  occ. eigenvalues --  -10.42791 -10.40087 -10.39060 -10.37994 -10.35692
 Alpha  occ. eigenvalues --  -10.35601 -10.34137 -10.34100 -10.33897 -10.33608
 Alpha  occ. eigenvalues --  -10.33501 -10.33337 -10.32368 -10.30970 -10.30936
 Alpha  occ. eigenvalues --  -10.29483 -10.29228 -10.29040 -10.28732 -10.28698
 Alpha  occ. eigenvalues --  -10.28356 -10.28288 -10.27424 -10.27339 -10.26442
 Alpha  occ. eigenvalues --  -10.26054 -10.25791 -10.25441 -10.25405 -10.25276
 Alpha  occ. eigenvalues --  -10.25230 -10.25154 -10.25028 -10.24826 -10.24558
 Alpha  occ. eigenvalues --  -10.24207 -10.23878 -10.23856 -10.23574 -10.23164
 Alpha  occ. eigenvalues --  -10.22917 -10.22526 -10.21875 -10.21690 -10.21592
 Alpha  occ. eigenvalues --  -10.21419 -10.21257 -10.21125 -10.21108 -10.20793
 Alpha  occ. eigenvalues --   -1.18523  -1.13859  -1.13342  -1.12740  -1.10442
 Alpha  occ. eigenvalues --   -1.09305  -1.08737  -1.08419  -1.08137  -1.08003
 Alpha  occ. eigenvalues --   -1.07302  -1.07054  -1.05127  -1.04891  -1.04872
 Alpha  occ. eigenvalues --   -1.01050  -0.98889  -0.97822  -0.97562  -0.97558
 Alpha  occ. eigenvalues --   -0.96895  -0.96391  -0.95665  -0.94679  -0.94671
 Alpha  occ. eigenvalues --   -0.94636  -0.91835  -0.90096  -0.87846  -0.86556
 Alpha  occ. eigenvalues --   -0.86051  -0.85332  -0.84656  -0.83815  -0.83265
 Alpha  occ. eigenvalues --   -0.82293  -0.81299  -0.81070  -0.80863  -0.80562
 Alpha  occ. eigenvalues --   -0.79548  -0.78563  -0.78016  -0.77157  -0.77107
 Alpha  occ. eigenvalues --   -0.76030  -0.74513  -0.73603  -0.73066  -0.72947
 Alpha  occ. eigenvalues --   -0.72641  -0.72067  -0.71552  -0.70652  -0.69872
 Alpha  occ. eigenvalues --   -0.69705  -0.69618  -0.69222  -0.68550  -0.67058
 Alpha  occ. eigenvalues --   -0.66547  -0.65899  -0.65558  -0.65071  -0.64753
 Alpha  occ. eigenvalues --   -0.64609  -0.64270  -0.64217  -0.63915  -0.63720
 Alpha  occ. eigenvalues --   -0.63018  -0.62932  -0.62694  -0.61796  -0.61639
 Alpha  occ. eigenvalues --   -0.61137  -0.60965  -0.60156  -0.59809  -0.59524
 Alpha  occ. eigenvalues --   -0.58449  -0.57980  -0.57891  -0.57553  -0.57159
 Alpha  occ. eigenvalues --   -0.56702  -0.56378  -0.56284  -0.55939  -0.55779
 Alpha  occ. eigenvalues --   -0.54958  -0.54642  -0.54221  -0.53963  -0.53893
 Alpha  occ. eigenvalues --   -0.53519  -0.53236  -0.53059  -0.52767  -0.52623
 Alpha  occ. eigenvalues --   -0.52307  -0.52208  -0.52085  -0.51843  -0.51740
 Alpha  occ. eigenvalues --   -0.51600  -0.51417  -0.51046  -0.50982  -0.50755
 Alpha  occ. eigenvalues --   -0.50606  -0.50378  -0.50246  -0.50142  -0.49694
 Alpha  occ. eigenvalues --   -0.49417  -0.49205  -0.48989  -0.48914  -0.48426
 Alpha  occ. eigenvalues --   -0.48270  -0.48161  -0.47774  -0.47745  -0.47658
 Alpha  occ. eigenvalues --   -0.47389  -0.47313  -0.47181  -0.46908  -0.46673
 Alpha  occ. eigenvalues --   -0.46527  -0.46395  -0.46192  -0.46042  -0.45773
 Alpha  occ. eigenvalues --   -0.45636  -0.45465  -0.45118  -0.44855  -0.44717
 Alpha  occ. eigenvalues --   -0.44627  -0.44544  -0.44404  -0.44152  -0.43927
 Alpha  occ. eigenvalues --   -0.43761  -0.43614  -0.43217  -0.43159  -0.43029
 Alpha  occ. eigenvalues --   -0.42750  -0.42541  -0.42455  -0.42330  -0.42136
 Alpha  occ. eigenvalues --   -0.41957  -0.41778  -0.41656  -0.41367  -0.41170
 Alpha  occ. eigenvalues --   -0.41104  -0.40840  -0.40575  -0.40423  -0.40287
 Alpha  occ. eigenvalues --   -0.40227  -0.40135  -0.40083  -0.39848  -0.39507
 Alpha  occ. eigenvalues --   -0.39310  -0.39121  -0.38619  -0.38111  -0.37814
 Alpha  occ. eigenvalues --   -0.37634  -0.37092  -0.36680  -0.36625  -0.36451
 Alpha  occ. eigenvalues --   -0.36074  -0.35277  -0.35175  -0.35126  -0.34832
 Alpha  occ. eigenvalues --   -0.34389  -0.32801  -0.32312  -0.31935  -0.31752
 Alpha  occ. eigenvalues --   -0.31629  -0.31437  -0.31165  -0.30954  -0.30670
 Alpha  occ. eigenvalues --   -0.30453  -0.30379  -0.30337  -0.29776  -0.29457
 Alpha  occ. eigenvalues --   -0.29040  -0.28622  -0.27804  -0.27440  -0.27095
 Alpha  occ. eigenvalues --   -0.24882  -0.24256
 Alpha virt. eigenvalues --   -0.11906  -0.10582  -0.07064  -0.06552  -0.06302
 Alpha virt. eigenvalues --   -0.06045  -0.04144  -0.04125  -0.03943  -0.03777
 Alpha virt. eigenvalues --   -0.03536  -0.03019  -0.02502  -0.01944  -0.01521

 Mulliken charges:
               1
     1  N   -0.760011
     2  H    0.414309
     3  H    0.432291
     4  H    0.407800
     5  C   -0.102650
     6  H    0.204078
     7  C    0.649906
     8  C   -0.109795
     9  H    0.167983
    10  O   -0.550361
    11  C   -0.475630
    12  H    0.166675
    13  H    0.184042
    14  H    0.196043
    15  C   -0.472926
    16  H    0.176673
    17  H    0.136696
    18  H    0.200638
    19  N   -0.606418
    20  H    0.380668
    21  C   -0.075987
    22  H    0.186603
    23  C    0.637684
    24  C   -0.068082
    25  H    0.146145
    26  O   -0.549810
    27  C   -0.291824
    28  H    0.137279
    29  H    0.172327
    30  C   -0.465089
    31  H    0.167552
    32  H    0.136305
    33  H    0.168053
    34  C   -0.453770
    35  H    0.166714
    36  H    0.146255
    37  H    0.156566
    38  N   -0.606460
    39  H    0.366215
    40  C   -0.074441
    41  H    0.190784
    42  C    0.628995
    43  C   -0.371426
    44  H    0.177579
    45  H    0.164185
    46  O   -0.545098
    47  C    0.188668
    48  C   -0.165532
    49  H    0.135298
    50  C   -0.189171
    51  H    0.126686
    52  C   -0.128750
    53  H    0.140211
    54  C   -0.137680
    55  H    0.129798
    56  C   -0.136870
    57  H    0.130497
    58  N   -0.595461
    59  H    0.355068
    60  C   -0.085313
    61  H    0.178297
    62  C    0.622379
    63  C   -0.269594
    64  H    0.181208
    65  H    0.144105
    66  O   -0.543787
    67  C   -0.065568
    68  H    0.120999
    69  C   -0.445499
    70  H    0.157197
    71  H    0.141335
    72  H    0.137212
    73  C   -0.460590
    74  H    0.133615
    75  H    0.139540
    76  H    0.166602
    77  N   -0.604372
    78  H    0.356490
    79  C   -0.056278
    80  H    0.178338
    81  C    0.646033
    82  C   -0.259483
    83  H    0.181290
    84  H    0.162841
    85  O   -0.563627
    86  C   -0.362775
    87  H    0.179339
    88  H    0.197787
    89  C    0.577441
    90  O   -0.460380
    91  O   -0.569139
    92  N   -0.608953
    93  H    0.356618
    94  C   -0.059704
    95  H    0.178838
    96  C    0.627217
    97  C   -0.358936
    98  H    0.187930
    99  H    0.162423
   100  O   -0.543712
   101  C    0.607010
   102  N   -0.726714
   103  H    0.341581
   104  H    0.338638
   105  O   -0.512896
   106  N   -0.626063
   107  H    0.355718
   108  C   -0.029123
   109  H    0.184811
   110  C    0.599804
   111  C   -0.363865
   112  H    0.180064
   113  H    0.159477
   114  O   -0.553375
   115  C    0.128466
   116  C   -0.196454
   117  H    0.154287
   118  C   -0.195446
   119  H    0.161991
   120  C   -0.162200
   121  H    0.142627
   122  C   -0.195474
   123  H    0.119432
   124  O   -0.642765
   125  H    0.406954
   126  C    0.349031
   127  N   -0.629294
   128  H    0.372211
   129  C   -0.039585
   130  H    0.176441
   131  C    0.582416
   132  C   -0.267871
   133  H    0.159385
   134  H    0.164689
   135  O   -0.565460
   136  C   -0.309037
   137  H    0.154077
   138  H    0.159204
   139  C   -0.139845
   140  H    0.159508
   141  H    0.161295
   142  N   -0.591881
   143  H    0.376624
   144  N   -0.758485
   145  H    0.364782
   146  H    0.367399
   147  N   -0.751294
   148  H    0.340461
   149  H    0.411553
   150  C    0.778298
   151  O   -0.648925
   152  H    0.410429
 Sum of Mulliken charges =   1.00000

 Dipole moment (field-independent basis, Debye):
    X=            -30.5077    Y=             12.7767    Z=             20.7137  Tot=             39.0259
 Quadrupole moment (field-independent basis, Debye-Ang):
   XX=            236.6218   YY=           -366.4899   ZZ=           -126.3351
   XY=             77.5723   XZ=           -446.8382   YZ=            -41.7420

 Normal termination of Gaussian 16 at Fri Aug 12 04:46:02 2022.
