 Gaussian 16, Revision C.01,
 Gaussian 16:  ES64L-G16RevC.01  3-Jul-2019

 -------------------------------------------------------------------
 # B3LYP/6-31G* guess=read geom=check nosymm integral(ultrafinegrid)
 -------------------------------------------------------------------

 ------------------------------------------------------
 Candidate Structure: Conf:876 Charge calc in gas phase
 ------------------------------------------------------
 Structure from the checkpoint file:  "conf-876.chk"
 Charge =  1 Multiplicity = 1

                          Input orientation:
 ---------------------------------------------------------------------
 Center     Atomic      Atomic             Coordinates (Angstroms)
 Number     Number       Type             X           Y           Z
 ---------------------------------------------------------------------
      1          7           0       -9.438935   -1.674141    7.919532
      2          1           0      -10.389019   -1.975319    7.686622
      3          1           0       -8.741948   -2.400090    7.561589
      4          1           0       -9.369130   -1.567416    8.935284
      5          6           0       -9.000099   -0.432385    7.160530
      6          1           0       -9.885325   -0.006192    6.681819
      7          6           0       -8.029675   -1.033602    6.102223
      8          6           0       -8.375411    0.600914    8.135972
      9          1           0       -9.124740    0.727376    8.933043
     10          8           0       -7.664396   -2.210109    6.269647
     11          6           0       -7.062189    0.109367    8.766373
     12          1           0       -6.263219    0.043314    8.020623
     13          1           0       -6.737999    0.817825    9.534013
     14          1           0       -7.150162   -0.871133    9.251600
     15          6           0       -8.201466    1.976467    7.470682
     16          1           0       -7.397186    1.986110    6.728594
     17          1           0       -9.127091    2.318900    6.993261
     18          1           0       -7.937162    2.712752    8.235372
     19          7           0       -7.663734   -0.248378    5.099256
     20          1           0       -7.929764    0.736190    5.050439
     21          6           0       -6.656795   -0.603422    4.093455
     22          1           0       -5.896749   -1.222620    4.580936
     23          6           0       -6.050583    0.760745    3.692250
     24          6           0       -7.280449   -1.416236    2.916449
     25          1           0       -7.826901   -2.230650    3.412472
     26          8           0       -6.666091    1.800901    3.943076
     27          6           0       -6.195120   -2.074936    2.037261
     28          1           0       -5.426053   -2.513871    2.689900
     29          1           0       -5.692603   -1.317347    1.422464
     30          6           0       -8.280405   -0.581110    2.104265
     31          1           0       -7.778477    0.223251    1.554046
     32          1           0       -9.041794   -0.122283    2.744595
     33          1           0       -8.802154   -1.206664    1.374855
     34          6           0       -6.736050   -3.180390    1.121468
     35          1           0       -5.917687   -3.649515    0.566350
     36          1           0       -7.239121   -3.964417    1.699820
     37          1           0       -7.449003   -2.792477    0.386667
     38          7           0       -4.845043    0.723342    3.092950
     39          1           0       -4.448077   -0.157458    2.782076
     40          6           0       -4.169312    1.907609    2.587465
     41          1           0       -4.908657    2.711579    2.537087
     42          6           0       -3.629345    1.548704    1.192182
     43          6           0       -2.984887    2.336744    3.505077
     44          1           0       -2.540507    3.245348    3.079788
     45          1           0       -2.216470    1.556623    3.451036
     46          8           0       -3.429635    0.365089    0.892988
     47          6           0       -3.377189    2.573265    4.947566
     48          6           0       -4.017984    3.758129    5.334401
     49          1           0       -4.234255    4.521962    4.590666
     50          6           0       -3.100152    1.610759    5.926459
     51          1           0       -2.586602    0.694018    5.645954
     52          6           0       -4.370002    3.978332    6.665459
     53          1           0       -4.851278    4.910413    6.948641
     54          6           0       -3.448912    1.827019    7.261625
     55          1           0       -3.200520    1.080026    8.011197
     56          6           0       -4.084795    3.012611    7.634402
     57          1           0       -4.335680    3.194708    8.676119
     58          7           0       -3.345212    2.577758    0.367466
     59          1           0       -3.501400    3.525477    0.686795
     60          6           0       -2.786597    2.400368   -0.984655
     61          1           0       -3.208059    1.464368   -1.363977
     62          6           0       -1.245814    2.223671   -0.913740
     63          6           0       -3.175656    3.573044   -1.888244
     64          1           0       -2.686394    3.412950   -2.856196
     65          1           0       -2.724189    4.489093   -1.484667
     66          8           0       -0.467523    3.066337   -1.364061
     67          6           0       -4.688171    3.778056   -2.108169
     68          1           0       -5.167224    3.921573   -1.127201
     69          6           0       -4.921335    5.056007   -2.928563
     70          1           0       -4.473984    4.967978   -3.926612
     71          1           0       -4.479410    5.933543   -2.442161
     72          1           0       -5.991703    5.248212   -3.061036
     73          6           0       -5.354893    2.569612   -2.783102
     74          1           0       -4.892430    2.359964   -3.756060
     75          1           0       -6.418843    2.763681   -2.958606
     76          1           0       -5.285014    1.659340   -2.176588
     77          7           0       -0.847208    1.086509   -0.304538
     78          1           0       -1.560446    0.427035   -0.005545
     79          6           0        0.556428    0.736279   -0.129385
     80          1           0        1.032628    1.499223    0.501607
     81          6           0        1.265779    0.693887   -1.500698
     82          6           0        0.628977   -0.634333    0.562904
     83          1           0        0.160071   -1.376214   -0.094296
     84          1           0        0.036478   -0.600285    1.483809
     85          8           0        0.772489    0.116644   -2.460421
     86          6           0        2.051136   -1.080020    0.908934
     87          1           0        2.643415   -1.308957    0.017414
     88          1           0        2.600359   -0.287825    1.438067
     89          6           0        2.048841   -2.295839    1.815779
     90          8           0        1.100480   -2.693091    2.458477
     91          8           0        3.261346   -2.887441    1.845347
     92          7           0        2.466844    1.331151   -1.525292
     93          1           0        2.886114    1.691978   -0.673367
     94          6           0        3.387171    1.281826   -2.642396
     95          1           0        3.078289    0.467834   -3.304497
     96          6           0        4.802493    1.051521   -2.067623
     97          6           0        3.426924    2.633007   -3.421132
     98          1           0        3.436923    3.444639   -2.685658
     99          1           0        4.358243    2.691981   -3.989624
    100          8           0        5.094236    1.513832   -0.964650
    101          6           0        2.290979    2.827610   -4.417224
    102          7           0        1.090597    3.171622   -3.919934
    103          1           0        0.314452    3.192544   -4.568527
    104          1           0        0.860618    3.142685   -2.929299
    105          8           0        2.477249    2.694045   -5.641068
    106          7           0        5.640057    0.392805   -2.891015
    107          1           0        5.323036    0.142190   -3.824508
    108          6           0        7.096429    0.464637   -2.817294
    109          1           0        7.356020    1.357663   -2.237873
    110          6           0        7.571398    0.648740   -4.278654
    111          6           0        7.744910   -0.759743   -2.113705
    112          1           0        8.805938   -0.531940   -1.960401
    113          1           0        7.288801   -0.820413   -1.118568
    114          8           0        6.728668    0.540817   -5.205155
    115          6           0        7.609780   -2.073517   -2.852615
    116          6           0        6.461842   -2.868886   -2.721189
    117          1           0        5.661915   -2.548293   -2.057219
    118          6           0        8.637271   -2.523771   -3.694658
    119          1           0        9.545776   -1.933449   -3.810470
    120          6           0        6.326732   -4.069571   -3.413177
    121          1           0        5.440799   -4.688230   -3.306435
    122          6           0        8.512524   -3.725015   -4.391760
    123          1           0        9.322222   -4.059130   -5.038494
    124          8           0        7.180581   -5.687807   -4.914087
    125          1           0        7.971609   -5.866911   -5.446223
    126          6           0        7.356950   -4.499771   -4.255902
    127          7           0        8.854014    0.915012   -4.464514
    128          1           0        9.568604    0.670011   -3.745427
    129          6           0        9.550468    0.803418   -5.749937
    130          1           0        8.986922    0.124833   -6.398778
    131          6           0       10.946856    0.121449   -5.411457
    132          6           0        9.778652    2.154110   -6.441161
    133          1           0       10.387974    2.782903   -5.779570
    134          1           0       10.396777    1.947716   -7.322130
    135          8           0       11.693984   -0.051577   -6.381186
    136          6           0        8.518937    2.951736   -6.819347
    137          1           0        7.897355    3.103701   -5.927419
    138          1           0        8.817237    3.952080   -7.165141
    139          6           0        7.668369    2.293421   -7.913645
    140          1           0        8.240714    2.184052   -8.840042
    141          1           0        7.345938    1.293925   -7.616211
    142          7           0        6.463202    3.079190   -8.251855
    143          1           0        6.622783    3.937418   -8.763916
    144          7           0        5.054745    2.094153   -6.668029
    145          1           0        4.118488    2.091682   -6.247758
    146          1           0        5.796253    1.533856   -6.219170
    147          7           0        4.308198    3.892902   -7.901259
    148          1           0        3.418250    3.762089   -7.430357
    149          1           0        4.272091    4.286170   -8.830795
    150          6           0        5.292158    3.002012   -7.598639
    151          8           0       11.099326   -0.144124   -4.178939
    152          1           0        3.194235   -3.640778    2.462385
 ---------------------------------------------------------------------

 SCF Done:  E(RB3LYP) =  -3586.61265276     A.U. after    3 cycles

 Alpha  occ. eigenvalues --  -19.27645 -19.25163 -19.23147 -19.22722 -19.20038
 Alpha  occ. eigenvalues --  -19.19727 -19.19212 -19.19161 -19.17499 -19.16986
 Alpha  occ. eigenvalues --  -19.15873 -19.06076 -19.04786 -14.60584 -14.50152
 Alpha  occ. eigenvalues --  -14.47137 -14.47002 -14.44634 -14.44173 -14.43554
 Alpha  occ. eigenvalues --  -14.42274 -14.41965 -14.41721 -14.40353 -14.36867
 Alpha  occ. eigenvalues --  -10.44349 -10.41383 -10.40271 -10.40123 -10.39661
 Alpha  occ. eigenvalues --  -10.38001 -10.36873 -10.36472 -10.35367 -10.35160
 Alpha  occ. eigenvalues --  -10.34961 -10.34208 -10.34048 -10.32253 -10.32028
 Alpha  occ. eigenvalues --  -10.31167 -10.30779 -10.30525 -10.30185 -10.29968
 Alpha  occ. eigenvalues --  -10.29440 -10.28505 -10.27747 -10.27588 -10.27552
 Alpha  occ. eigenvalues --  -10.27527 -10.27505 -10.27490 -10.27428 -10.27090
 Alpha  occ. eigenvalues --  -10.27024 -10.26816 -10.26682 -10.26624 -10.26574
 Alpha  occ. eigenvalues --  -10.26500 -10.26071 -10.25658 -10.24589 -10.24291
 Alpha  occ. eigenvalues --  -10.23802 -10.22389 -10.21645 -10.21287 -10.20466
 Alpha  occ. eigenvalues --  -10.20244 -10.19838 -10.19764 -10.19740 -10.19409
 Alpha  occ. eigenvalues --   -1.20053  -1.16162  -1.15357  -1.14499  -1.14247
 Alpha  occ. eigenvalues --   -1.11678  -1.10321  -1.09654  -1.08723  -1.08623
 Alpha  occ. eigenvalues --   -1.07189  -1.07107  -1.06821  -1.06735  -1.03675
 Alpha  occ. eigenvalues --   -1.03077  -1.00164  -0.99021  -0.98896  -0.98423
 Alpha  occ. eigenvalues --   -0.97129  -0.96938  -0.96111  -0.95885  -0.94209
 Alpha  occ. eigenvalues --   -0.93827  -0.91825  -0.90186  -0.89641  -0.88183
 Alpha  occ. eigenvalues --   -0.87633  -0.87203  -0.86485  -0.84765  -0.84436
 Alpha  occ. eigenvalues --   -0.83707  -0.82942  -0.82864  -0.82026  -0.81951
 Alpha  occ. eigenvalues --   -0.80956  -0.80390  -0.79876  -0.76593  -0.76250
 Alpha  occ. eigenvalues --   -0.75886  -0.75705  -0.75661  -0.75399  -0.74944
 Alpha  occ. eigenvalues --   -0.74170  -0.74151  -0.73410  -0.71976  -0.71407
 Alpha  occ. eigenvalues --   -0.70737  -0.70126  -0.69814  -0.69307  -0.68945
 Alpha  occ. eigenvalues --   -0.68553  -0.68128  -0.67885  -0.66940  -0.66581
 Alpha  occ. eigenvalues --   -0.66433  -0.66344  -0.65543  -0.64909  -0.64724
 Alpha  occ. eigenvalues --   -0.63957  -0.63698  -0.63348  -0.63117  -0.62415
 Alpha  occ. eigenvalues --   -0.62357  -0.61657  -0.61183  -0.60852  -0.59833
 Alpha  occ. eigenvalues --   -0.59787  -0.59652  -0.59349  -0.59055  -0.58647
 Alpha  occ. eigenvalues --   -0.58501  -0.58030  -0.57591  -0.57570  -0.57285
 Alpha  occ. eigenvalues --   -0.56975  -0.56543  -0.56419  -0.56007  -0.55413
 Alpha  occ. eigenvalues --   -0.55350  -0.55286  -0.55019  -0.54816  -0.54533
 Alpha  occ. eigenvalues --   -0.53875  -0.53750  -0.53628  -0.53360  -0.53130
 Alpha  occ. eigenvalues --   -0.53028  -0.52668  -0.52626  -0.52396  -0.52235
 Alpha  occ. eigenvalues --   -0.51764  -0.51244  -0.51192  -0.50982  -0.50881
 Alpha  occ. eigenvalues --   -0.50558  -0.50506  -0.50308  -0.50242  -0.49908
 Alpha  occ. eigenvalues --   -0.49468  -0.49310  -0.49182  -0.49088  -0.48744
 Alpha  occ. eigenvalues --   -0.48693  -0.48502  -0.48285  -0.47983  -0.47891
 Alpha  occ. eigenvalues --   -0.47838  -0.47659  -0.47613  -0.47274  -0.47130
 Alpha  occ. eigenvalues --   -0.46893  -0.46598  -0.46492  -0.46247  -0.46136
 Alpha  occ. eigenvalues --   -0.45967  -0.45552  -0.45317  -0.45294  -0.45124
 Alpha  occ. eigenvalues --   -0.44943  -0.44624  -0.44506  -0.44352  -0.44207
 Alpha  occ. eigenvalues --   -0.44137  -0.43844  -0.43772  -0.43647  -0.43140
 Alpha  occ. eigenvalues --   -0.42880  -0.42810  -0.42683  -0.42552  -0.42482
 Alpha  occ. eigenvalues --   -0.41942  -0.41847  -0.41662  -0.41493  -0.41481
 Alpha  occ. eigenvalues --   -0.41282  -0.41045  -0.40701  -0.40276  -0.40116
 Alpha  occ. eigenvalues --   -0.40007  -0.39833  -0.39521  -0.38482  -0.37952
 Alpha  occ. eigenvalues --   -0.37712  -0.37468  -0.37327  -0.36963  -0.36604
 Alpha  occ. eigenvalues --   -0.36426  -0.36166  -0.36146  -0.35292  -0.34991
 Alpha  occ. eigenvalues --   -0.34601  -0.34282  -0.34019  -0.33959  -0.33479
 Alpha  occ. eigenvalues --   -0.33442  -0.33235  -0.33086  -0.33048  -0.32805
 Alpha  occ. eigenvalues --   -0.32534  -0.32335  -0.31149  -0.30614  -0.30298
 Alpha  occ. eigenvalues --   -0.29939  -0.28256  -0.26163  -0.22988  -0.21089
 Alpha  occ. eigenvalues --   -0.20890  -0.18963
 Alpha virt. eigenvalues --   -0.13179  -0.11920  -0.09963  -0.08825  -0.08634
 Alpha virt. eigenvalues --   -0.07901  -0.07532  -0.06295  -0.05772  -0.05592
 Alpha virt. eigenvalues --   -0.04743  -0.04677  -0.03787  -0.02603  -0.02543

 Mulliken charges:
               1
     1  N   -0.763256
     2  H    0.416738
     3  H    0.436723
     4  H    0.411994
     5  C   -0.106106
     6  H    0.210875
     7  C    0.653316
     8  C   -0.111335
     9  H    0.158331
    10  O   -0.547888
    11  C   -0.470929
    12  H    0.189080
    13  H    0.191912
    14  H    0.140748
    15  C   -0.483081
    16  H    0.198281
    17  H    0.163063
    18  H    0.187540
    19  N   -0.608029
    20  H    0.382835
    21  C   -0.078512
    22  H    0.189966
    23  C    0.640752
    24  C   -0.067698
    25  H    0.151179
    26  O   -0.547541
    27  C   -0.291628
    28  H    0.140796
    29  H    0.161636
    30  C   -0.465185
    31  H    0.161592
    32  H    0.139431
    33  H    0.172712
    34  C   -0.454137
    35  H    0.169519
    36  H    0.151569
    37  H    0.157622
    38  N   -0.605613
    39  H    0.367873
    40  C   -0.072045
    41  H    0.191646
    42  C    0.643411
    43  C   -0.368159
    44  H    0.163190
    45  H    0.169370
    46  O   -0.552781
    47  C    0.187458
    48  C   -0.162212
    49  H    0.129650
    50  C   -0.191712
    51  H    0.135414
    52  C   -0.131523
    53  H    0.144059
    54  C   -0.138257
    55  H    0.139553
    56  C   -0.138160
    57  H    0.136333
    58  N   -0.599518
    59  H    0.343808
    60  C   -0.084447
    61  H    0.197490
    62  C    0.653715
    63  C   -0.280822
    64  H    0.159194
    65  H    0.153211
    66  O   -0.550892
    67  C   -0.075158
    68  H    0.111465
    69  C   -0.443556
    70  H    0.150451
    71  H    0.145550
    72  H    0.152940
    73  C   -0.453022
    74  H    0.152782
    75  H    0.154306
    76  H    0.144067
    77  N   -0.635604
    78  H    0.377440
    79  C   -0.010576
    80  H    0.150970
    81  C    0.621434
    82  C   -0.306329
    83  H    0.182502
    84  H    0.167465
    85  O   -0.528780
    86  C   -0.373707
    87  H    0.199847
    88  H    0.187520
    89  C    0.586648
    90  O   -0.467537
    91  O   -0.555999
    92  N   -0.605273
    93  H    0.349535
    94  C   -0.075996
    95  H    0.196396
    96  C    0.604809
    97  C   -0.365051
    98  H    0.184191
    99  H    0.177085
   100  O   -0.538250
   101  C    0.607142
   102  N   -0.742638
   103  H    0.342221
   104  H    0.408571
   105  O   -0.561958
   106  N   -0.586000
   107  H    0.351703
   108  C   -0.062177
   109  H    0.183390
   110  C    0.620476
   111  C   -0.369477
   112  H    0.182663
   113  H    0.162196
   114  O   -0.615252
   115  C    0.147945
   116  C   -0.189454
   117  H    0.110378
   118  C   -0.213240
   119  H    0.199736
   120  C   -0.160477
   121  H    0.126717
   122  C   -0.205361
   123  H    0.134624
   124  O   -0.647836
   125  H    0.408871
   126  C    0.350480
   127  N   -0.586767
   128  H    0.368728
   129  C   -0.094059
   130  H    0.152666
   131  C    0.594405
   132  C   -0.259712
   133  H    0.146665
   134  H    0.171469
   135  O   -0.569788
   136  C   -0.262177
   137  H    0.139785
   138  H    0.128242
   139  C   -0.176173
   140  H    0.176314
   141  H    0.202922
   142  N   -0.596084
   143  H    0.344471
   144  N   -0.832948
   145  H    0.399934
   146  H    0.447540
   147  N   -0.784026
   148  H    0.387615
   149  H    0.353117
   150  C    0.775869
   151  O   -0.612844
   152  H    0.416910
 Sum of Mulliken charges =   1.00000

 Dipole moment (field-independent basis, Debye):
    X=            -54.5101    Y=              9.2143    Z=             27.0664  Tot=             61.5536
 Quadrupole moment (field-independent basis, Debye-Ang):
   XX=           -322.6883   YY=           -384.1889   ZZ=           -119.6084
   XY=             59.4722   XZ=           -228.5990   YZ=            -90.2418

 Normal termination of Gaussian 16 at Fri Aug 12 04:47:44 2022.
