 Gaussian 16, Revision C.01,
 Gaussian 16:  ES64L-G16RevC.01  3-Jul-2019

 -------------------------------------------------------------------
 # B3LYP/6-31G* guess=read geom=check nosymm integral(ultrafinegrid)
 -------------------------------------------------------------------

 ------------------------------------------------------
 Candidate Structure: Conf:288 Charge calc in gas phase
 ------------------------------------------------------
 Structure from the checkpoint file:  "conf-288.chk"
 Charge =  1 Multiplicity = 1

                          Input orientation:
 ---------------------------------------------------------------------
 Center     Atomic      Atomic             Coordinates (Angstroms)
 Number     Number       Type             X           Y           Z
 ---------------------------------------------------------------------
      1          7           0        1.720415   -3.077073    3.592587
      2          1           0        1.734873   -4.000981    4.032233
      3          1           0        1.379185   -3.202050    2.610547
      4          1           0        2.691364   -2.731516    3.559647
      5          6           0        0.722745   -2.127268    4.217103
      6          1           0        0.570168   -2.429086    5.257890
      7          6           0       -0.543890   -2.366501    3.352021
      8          6           0        1.258844   -0.673004    4.146593
      9          1           0        1.479539   -0.450424    3.094673
     10          8           0       -0.375471   -2.787714    2.201623
     11          6           0        0.209041    0.341433    4.624173
     12          1           0       -0.098991    0.148566    5.660575
     13          1           0        0.647287    1.340634    4.580101
     14          1           0       -0.679939    0.351273    3.990487
     15          6           0        2.548310   -0.503996    4.968013
     16          1           0        2.361256   -0.656806    6.038080
     17          1           0        3.360822   -1.176565    4.666181
     18          1           0        2.916078    0.515192    4.823517
     19          7           0       -1.734671   -2.108540    3.908773
     20          1           0       -1.780708   -1.693796    4.833813
     21          6           0       -2.992654   -2.054211    3.138284
     22          1           0       -2.727618   -2.283779    2.104558
     23          6           0       -3.479307   -0.596465    3.286937
     24          6           0       -4.047686   -3.052249    3.666725
     25          1           0       -4.262456   -2.748895    4.700313
     26          8           0       -3.810101   -0.175897    4.397630
     27          6           0       -3.535673   -4.508710    3.705820
     28          1           0       -4.313133   -5.110912    4.193503
     29          1           0       -2.660908   -4.560688    4.367969
     30          6           0       -5.352066   -2.909190    2.864186
     31          1           0       -5.197024   -3.079335    1.792626
     32          1           0       -5.790041   -1.913589    2.988105
     33          1           0       -6.091054   -3.638383    3.212544
     34          6           0       -3.183997   -5.143748    2.353345
     35          1           0       -2.869266   -6.183562    2.495752
     36          1           0       -4.042243   -5.157280    1.673242
     37          1           0       -2.363263   -4.618716    1.851899
     38          7           0       -3.431895    0.145903    2.163947
     39          1           0       -3.148367   -0.251714    1.270350
     40          6           0       -3.786291    1.555554    2.078505
     41          1           0       -4.832722    1.689405    2.379438
     42          6           0       -3.613935    1.915398    0.586205
     43          6           0       -2.888899    2.451907    2.993099
     44          1           0       -1.920673    2.609070    2.503969
     45          1           0       -2.711533    1.874420    3.903691
     46          8           0       -3.195937    1.072506   -0.214577
     47          6           0       -3.520841    3.774731    3.379531
     48          6           0       -3.072201    4.995722    2.853678
     49          1           0       -2.251750    5.014180    2.139194
     50          6           0       -4.583041    3.787252    4.298278
     51          1           0       -4.925110    2.847119    4.726079
     52          6           0       -3.676123    6.198828    3.232966
     53          1           0       -3.313997    7.134652    2.816398
     54          6           0       -5.184314    4.986587    4.676306
     55          1           0       -6.002249    4.978037    5.391578
     56          6           0       -4.732691    6.197160    4.143227
     57          1           0       -5.200401    7.131949    4.439181
     58          7           0       -3.898223    3.187355    0.232762
     59          1           0       -4.110102    3.860605    0.961776
     60          6           0       -3.503517    3.723519   -1.080524
     61          1           0       -3.687357    2.927254   -1.804807
     62          6           0       -1.986720    4.035700   -1.018981
     63          6           0       -4.333501    4.967802   -1.406354
     64          1           0       -4.104387    5.733691   -0.655221
     65          1           0       -5.394229    4.703908   -1.297186
     66          8           0       -1.559159    5.129967   -0.652995
     67          6           0       -4.094933    5.564867   -2.808140
     68          1           0       -3.026328    5.805347   -2.889289
     69          6           0       -4.463111    4.591298   -3.938726
     70          1           0       -5.517360    4.291979   -3.873072
     71          1           0       -3.854639    3.679743   -3.923478
     72          1           0       -4.314433    5.062511   -4.916912
     73          6           0       -4.879168    6.878227   -2.948946
     74          1           0       -5.959866    6.703224   -2.867259
     75          1           0       -4.691940    7.344546   -3.922750
     76          1           0       -4.595835    7.597813   -2.172175
     77          7           0       -1.180516    2.995186   -1.354958
     78          1           0       -1.574547    2.064478   -1.471759
     79          6           0        0.267623    3.067985   -1.221683
     80          1           0        0.590288    4.043792   -1.600691
     81          6           0        0.836674    1.917973   -2.064635
     82          6           0        0.704404    2.921998    0.259356
     83          1           0        0.462076    1.908815    0.595773
     84          1           0        0.098532    3.625408    0.839509
     85          8           0        0.283987    0.824069   -2.076723
     86          6           0        2.192561    3.210162    0.497602
     87          1           0        2.820537    2.550860   -0.120532
     88          1           0        2.445092    4.244609    0.240881
     89          6           0        2.614559    2.951361    1.923112
     90          8           0        2.175339    2.080434    2.653666
     91          8           0        3.595404    3.789987    2.319393
     92          7           0        1.968406    2.184083   -2.784771
     93          1           0        2.488639    3.016937   -2.539276
     94          6           0        2.723687    1.077625   -3.358322
     95          1           0        2.001384    0.398534   -3.813942
     96          6           0        3.467889    0.323168   -2.226674
     97          6           0        3.671572    1.595078   -4.450329
     98          1           0        3.148030    2.369774   -5.026224
     99          1           0        4.560436    2.068493   -4.012290
    100          8           0        3.774695    0.900006   -1.176483
    101          6           0        4.093181    0.484840   -5.418274
    102          7           0        5.021345    0.851411   -6.343907
    103          1           0        5.258400    0.183707   -7.065182
    104          1           0        5.315805    1.809173   -6.465138
    105          8           0        3.628376   -0.647708   -5.368922
    106          7           0        3.736836   -0.976341   -2.451880
    107          1           0        3.493591   -1.416967   -3.338207
    108          6           0        4.286069   -1.821862   -1.406484
    109          1           0        5.102511   -1.285231   -0.912715
    110          6           0        4.788160   -3.121597   -2.053222
    111          6           0        3.178914   -2.134972   -0.350930
    112          1           0        2.769169   -1.170079   -0.036006
    113          1           0        2.381060   -2.685915   -0.859323
    114          8           0        4.194144   -3.601184   -3.019451
    115          6           0        3.683882   -2.910484    0.842712
    116          6           0        3.411709   -4.280291    0.998282
    117          1           0        2.799398   -4.786338    0.255853
    118          6           0        4.492525   -2.294470    1.810310
    119          1           0        4.721426   -1.234855    1.718997
    120          6           0        3.933016   -5.016361    2.062493
    121          1           0        3.748118   -6.082311    2.153676
    122          6           0        5.026589   -3.017689    2.883086
    123          1           0        5.681671   -2.526152    3.600144
    124          8           0        5.256143   -5.155504    4.016880
    125          1           0        6.002221   -4.697900    4.435813
    126          6           0        4.766067   -4.391734    2.998817
    127          7           0        5.861952   -3.680767   -1.458473
    128          1           0        6.242390   -3.317786   -0.585374
    129          6           0        6.312794   -5.043128   -1.716987
    130          1           0        5.439079   -5.700628   -1.795117
    131          6           0        7.178176   -5.465600   -0.497129
    132          6           0        7.115190   -5.156237   -3.040200
    133          1           0        7.059060   -6.194462   -3.386837
    134          1           0        6.594640   -4.553154   -3.788872
    135          8           0        7.662457   -6.647283   -0.577057
    136          6           0        8.598973   -4.728617   -2.914163
    137          1           0        8.900583   -4.121704   -3.776531
    138          1           0        8.724044   -4.092935   -2.029322
    139          6           0        9.535536   -5.952365   -2.797257
    140          1           0        9.020156   -6.757492   -2.276504
    141          1           0        9.815106   -6.319824   -3.790917
    142          7           0       10.785678   -5.684570   -2.070076
    143          1           0       11.421474   -5.015531   -2.484850
    144          7           0       10.173141   -6.615658   -0.009549
    145          1           0       10.495239   -6.923208    0.898425
    146          1           0        9.079600   -6.634517   -0.177244
    147          7           0       12.300387   -5.699427   -0.334148
    148          1           0       12.544069   -5.972714    0.607131
    149          1           0       13.069600   -5.722209   -0.990021
    150          6           0       11.049725   -6.020125   -0.794299
    151          8           0        7.397604   -4.625051    0.394349
    152          1           0        3.834563    3.534687    3.230393
 ---------------------------------------------------------------------

 SCF Done:  E(RB3LYP) =  -3586.63960285     A.U. after    2 cycles

 Alpha  occ. eigenvalues --  -19.26493 -19.26175 -19.23778 -19.21106 -19.19432
 Alpha  occ. eigenvalues --  -19.19024 -19.18297 -19.18187 -19.17606 -19.17021
 Alpha  occ. eigenvalues --  -19.15909 -19.14041 -19.13743 -14.55816 -14.47451
 Alpha  occ. eigenvalues --  -14.46389 -14.46067 -14.43363 -14.43194 -14.43088
 Alpha  occ. eigenvalues --  -14.42827 -14.42485 -14.41268 -14.41190 -14.39514
 Alpha  occ. eigenvalues --  -10.41746 -10.40836 -10.39159 -10.37400 -10.36309
 Alpha  occ. eigenvalues --  -10.36274 -10.36146 -10.35205 -10.34524 -10.34064
 Alpha  occ. eigenvalues --  -10.33860 -10.33096 -10.31675 -10.31504 -10.31008
 Alpha  occ. eigenvalues --  -10.30918 -10.29836 -10.29679 -10.29078 -10.29003
 Alpha  occ. eigenvalues --  -10.28979 -10.28151 -10.27970 -10.27832 -10.27608
 Alpha  occ. eigenvalues --  -10.27556 -10.27468 -10.27264 -10.26720 -10.26486
 Alpha  occ. eigenvalues --  -10.26186 -10.25982 -10.25864 -10.25745 -10.25623
 Alpha  occ. eigenvalues --  -10.25520 -10.24921 -10.24572 -10.24527 -10.24507
 Alpha  occ. eigenvalues --  -10.24467 -10.24429 -10.24365 -10.23966 -10.23557
 Alpha  occ. eigenvalues --  -10.23487 -10.23423 -10.23176 -10.21727 -10.21405
 Alpha  occ. eigenvalues --   -1.17427  -1.16150  -1.14325  -1.11619  -1.10758
 Alpha  occ. eigenvalues --   -1.10565  -1.10229  -1.10173  -1.10117  -1.09180
 Alpha  occ. eigenvalues --   -1.08622  -1.08229  -1.07863  -1.07093  -1.03525
 Alpha  occ. eigenvalues --   -0.99914  -0.99859  -0.99425  -0.99133  -0.98990
 Alpha  occ. eigenvalues --   -0.97862  -0.97798  -0.97336  -0.97199  -0.95996
 Alpha  occ. eigenvalues --   -0.93996  -0.91968  -0.91281  -0.88597  -0.87035
 Alpha  occ. eigenvalues --   -0.86344  -0.85964  -0.85060  -0.84862  -0.84682
 Alpha  occ. eigenvalues --   -0.83644  -0.83485  -0.81334  -0.80805  -0.80692
 Alpha  occ. eigenvalues --   -0.79905  -0.79419  -0.78754  -0.78306  -0.78244
 Alpha  occ. eigenvalues --   -0.76947  -0.74892  -0.73954  -0.73049  -0.72560
 Alpha  occ. eigenvalues --   -0.72261  -0.71531  -0.71126  -0.70720  -0.70659
 Alpha  occ. eigenvalues --   -0.70411  -0.70222  -0.69564  -0.68950  -0.67481
 Alpha  occ. eigenvalues --   -0.67211  -0.66930  -0.66429  -0.66362  -0.66015
 Alpha  occ. eigenvalues --   -0.65529  -0.65387  -0.65127  -0.64342  -0.64260
 Alpha  occ. eigenvalues --   -0.64088  -0.63500  -0.63435  -0.63325  -0.62859
 Alpha  occ. eigenvalues --   -0.62594  -0.61843  -0.61172  -0.60737  -0.60604
 Alpha  occ. eigenvalues --   -0.60155  -0.59480  -0.59233  -0.58299  -0.57670
 Alpha  occ. eigenvalues --   -0.57271  -0.57143  -0.56887  -0.56462  -0.56370
 Alpha  occ. eigenvalues --   -0.56062  -0.55607  -0.55279  -0.55140  -0.54829
 Alpha  occ. eigenvalues --   -0.54801  -0.54391  -0.54253  -0.53860  -0.53490
 Alpha  occ. eigenvalues --   -0.53374  -0.53176  -0.52868  -0.52526  -0.52288
 Alpha  occ. eigenvalues --   -0.52164  -0.52050  -0.51621  -0.51566  -0.51406
 Alpha  occ. eigenvalues --   -0.51274  -0.51052  -0.50846  -0.50638  -0.50526
 Alpha  occ. eigenvalues --   -0.50235  -0.50129  -0.50044  -0.49765  -0.49519
 Alpha  occ. eigenvalues --   -0.49385  -0.48991  -0.48873  -0.48753  -0.48605
 Alpha  occ. eigenvalues --   -0.47931  -0.47721  -0.47655  -0.47612  -0.47563
 Alpha  occ. eigenvalues --   -0.47418  -0.47265  -0.46974  -0.46815  -0.46523
 Alpha  occ. eigenvalues --   -0.46297  -0.46091  -0.45976  -0.45649  -0.45542
 Alpha  occ. eigenvalues --   -0.45356  -0.45215  -0.44947  -0.44811  -0.44638
 Alpha  occ. eigenvalues --   -0.44561  -0.44535  -0.44406  -0.44179  -0.44005
 Alpha  occ. eigenvalues --   -0.43945  -0.43771  -0.43416  -0.43256  -0.43111
 Alpha  occ. eigenvalues --   -0.42973  -0.42730  -0.42632  -0.42600  -0.42408
 Alpha  occ. eigenvalues --   -0.42196  -0.41949  -0.41912  -0.41161  -0.41031
 Alpha  occ. eigenvalues --   -0.40901  -0.40817  -0.40661  -0.40599  -0.40066
 Alpha  occ. eigenvalues --   -0.39738  -0.39687  -0.39394  -0.39387  -0.39286
 Alpha  occ. eigenvalues --   -0.39023  -0.38700  -0.38091  -0.37846  -0.37615
 Alpha  occ. eigenvalues --   -0.37046  -0.36932  -0.36828  -0.36742  -0.34738
 Alpha  occ. eigenvalues --   -0.34492  -0.34417  -0.34037  -0.33732  -0.33530
 Alpha  occ. eigenvalues --   -0.33371  -0.32912  -0.32420  -0.32355  -0.32141
 Alpha  occ. eigenvalues --   -0.31989  -0.31095  -0.30728  -0.30596  -0.30561
 Alpha  occ. eigenvalues --   -0.30392  -0.29956  -0.29657  -0.29529  -0.28904
 Alpha  occ. eigenvalues --   -0.28655  -0.27803
 Alpha virt. eigenvalues --   -0.10050  -0.09801  -0.08083  -0.06881  -0.06597
 Alpha virt. eigenvalues --   -0.06290  -0.06132  -0.05900  -0.05178  -0.05021
 Alpha virt. eigenvalues --   -0.04823  -0.03938  -0.03762  -0.03544  -0.02794

 Mulliken charges:
               1
     1  N   -0.777406
     2  H    0.406513
     3  H    0.427659
     4  H    0.418974
     5  C   -0.096369
     6  H    0.188292
     7  C    0.640783
     8  C   -0.096785
     9  H    0.189956
    10  O   -0.530810
    11  C   -0.485604
    12  H    0.145529
    13  H    0.202746
    14  H    0.174793
    15  C   -0.476087
    16  H    0.158249
    17  H    0.134283
    18  H    0.195256
    19  N   -0.595005
    20  H    0.357080
    21  C   -0.064663
    22  H    0.190972
    23  C    0.630029
    24  C   -0.080461
    25  H    0.150828
    26  O   -0.549172
    27  C   -0.258112
    28  H    0.150587
    29  H    0.116088
    30  C   -0.474044
    31  H    0.155030
    32  H    0.166760
    33  H    0.163791
    34  C   -0.470119
    35  H    0.151259
    36  H    0.159129
    37  H    0.161073
    38  N   -0.638199
    39  H    0.370948
    40  C   -0.024237
    41  H    0.191351
    42  C    0.610853
    43  C   -0.384247
    44  H    0.160397
    45  H    0.199063
    46  O   -0.544060
    47  C    0.131108
    48  C   -0.230285
    49  H    0.161728
    50  C   -0.182090
    51  H    0.152850
    52  C   -0.129143
    53  H    0.148061
    54  C   -0.127823
    55  H    0.144122
    56  C   -0.127560
    57  H    0.144100
    58  N   -0.616286
    59  H    0.358237
    60  C   -0.059481
    61  H    0.180366
    62  C    0.629485
    63  C   -0.274188
    64  H    0.155503
    65  H    0.141856
    66  O   -0.547150
    67  C   -0.082109
    68  H    0.146360
    69  C   -0.452332
    70  H    0.144509
    71  H    0.143098
    72  H    0.150764
    73  C   -0.445544
    74  H    0.142176
    75  H    0.147774
    76  H    0.147741
    77  N   -0.624042
    78  H    0.378417
    79  C   -0.033079
    80  H    0.166305
    81  C    0.618920
    82  C   -0.277455
    83  H    0.167735
    84  H    0.176131
    85  O   -0.523249
    86  C   -0.407884
    87  H    0.241236
    88  H    0.172909
    89  C    0.590454
    90  O   -0.491620
    91  O   -0.550631
    92  N   -0.605184
    93  H    0.332515
    94  C   -0.044136
    95  H    0.214641
    96  C    0.621760
    97  C   -0.411019
    98  H    0.190365
    99  H    0.177037
   100  O   -0.556912
   101  C    0.618853
   102  N   -0.746704
   103  H    0.355399
   104  H    0.344478
   105  O   -0.500474
   106  N   -0.616077
   107  H    0.391892
   108  C   -0.021800
   109  H    0.163013
   110  C    0.606102
   111  C   -0.359220
   112  H    0.180131
   113  H    0.175464
   114  O   -0.542217
   115  C    0.134784
   116  C   -0.203052
   117  H    0.166280
   118  C   -0.215338
   119  H    0.163476
   120  C   -0.186320
   121  H    0.167300
   122  C   -0.229559
   123  H    0.141748
   124  O   -0.634255
   125  H    0.419069
   126  C    0.359925
   127  N   -0.613796
   128  H    0.350585
   129  C   -0.048529
   130  H    0.164613
   131  C    0.593173
   132  C   -0.265135
   133  H    0.151944
   134  H    0.174952
   135  O   -0.633866
   136  C   -0.286178
   137  H    0.138354
   138  H    0.162392
   139  C   -0.176358
   140  H    0.222393
   141  H    0.165393
   142  N   -0.600019
   143  H    0.343920
   144  N   -0.773391
   145  H    0.339372
   146  H    0.456246
   147  N   -0.762542
   148  H    0.356665
   149  H    0.357146
   150  C    0.775739
   151  O   -0.574615
   152  H    0.406692
 Sum of Mulliken charges =   1.00000

 Dipole moment (field-independent basis, Debye):
    X=             24.6567    Y=             -7.2590    Z=              8.7106  Tot=             27.1389
 Quadrupole moment (field-independent basis, Debye-Ang):
   XX=            -95.0624   YY=           -357.1001   ZZ=           -332.0267
   XY=           -117.5023   XZ=            -29.4232   YZ=            -48.6176

 Normal termination of Gaussian 16 at Fri Aug 12 04:47:36 2022.
