 Gaussian 16, Revision C.01,
 Gaussian 16:  ES64L-G16RevC.01  3-Jul-2019

 -------------------------------------------------------------------
 # B3LYP/6-31G* guess=read geom=check nosymm integral(ultrafinegrid)
 -------------------------------------------------------------------

 ------------------------------------------------------
 Candidate Structure: Conf:234 Charge calc in gas phase
 ------------------------------------------------------
 Structure from the checkpoint file:  "conf-234.chk"
 Charge =  1 Multiplicity = 1

                          Input orientation:
 ---------------------------------------------------------------------
 Center     Atomic      Atomic             Coordinates (Angstroms)
 Number     Number       Type             X           Y           Z
 ---------------------------------------------------------------------
      1          7           0      -10.109962   -1.191802    7.803564
      2          1           0      -11.118771   -1.105903    7.948752
      3          1           0       -9.912786   -1.910017    7.035065
      4          1           0       -9.676716   -1.480857    8.684621
      5          6           0       -9.474730    0.053856    7.213564
      6          1           0      -10.251106    0.821120    7.152799
      7          6           0       -9.073951   -0.423143    5.786877
      8          6           0       -8.292097    0.563550    8.070314
      9          1           0       -7.879767    1.407814    7.502615
     10          8           0       -9.208187   -1.630985    5.529916
     11          6           0       -8.774674    1.104644    9.425730
     12          1           0       -9.182657    0.314054   10.070630
     13          1           0       -7.937156    1.550373    9.970132
     14          1           0       -9.543724    1.875825    9.306845
     15          6           0       -7.175203   -0.481881    8.228015
     16          1           0       -7.485792   -1.345012    8.833260
     17          1           0       -6.817137   -0.857343    7.264362
     18          1           0       -6.324364   -0.032861    8.748012
     19          7           0       -8.625901    0.510818    4.959091
     20          1           0       -8.425360    1.458220    5.284462
     21          6           0       -8.024850    0.270076    3.638928
     22          1           0       -7.750349   -0.787600    3.578303
     23          6           0       -6.774116    1.183047    3.660570
     24          6           0       -9.004933    0.628587    2.479730
     25          1           0       -9.228996    1.700880    2.581069
     26          8           0       -6.811444    2.228823    4.321323
     27          6           0      -10.327887   -0.156258    2.612403
     28          1           0      -10.726818   -0.014794    3.624091
     29          1           0      -10.121141   -1.230575    2.511111
     30          6           0       -8.342527    0.396919    1.112011
     31          1           0       -8.072896   -0.658724    0.976164
     32          1           0       -7.439699    0.998457    0.979833
     33          1           0       -9.029308    0.665600    0.305623
     34          6           0      -11.410318    0.261638    1.609149
     35          1           0      -12.349299   -0.259967    1.822756
     36          1           0      -11.608928    1.339020    1.662981
     37          1           0      -11.135665    0.023041    0.577278
     38          7           0       -5.711529    0.774082    2.954837
     39          1           0       -5.704005   -0.101999    2.437444
     40          6           0       -4.471228    1.536555    2.830795
     41          1           0       -4.721226    2.597699    2.742684
     42          6           0       -3.808223    1.008149    1.544208
     43          6           0       -3.573925    1.318574    4.081614
     44          1           0       -3.350644    0.247781    4.149264
     45          1           0       -4.188720    1.584641    4.949225
     46          8           0       -3.976795   -0.173256    1.225251
     47          6           0       -2.293140    2.124465    4.085139
     48          6           0       -1.051996    1.500593    3.908684
     49          1           0       -1.016579    0.421771    3.768866
     50          6           0       -2.323944    3.514279    4.273419
     51          1           0       -3.277348    4.015203    4.431313
     52          6           0        0.132959    2.239298    3.923243
     53          1           0        1.087923    1.734699    3.799127
     54          6           0       -1.144429    4.258712    4.276381
     55          1           0       -1.185927    5.334495    4.422643
     56          6           0        0.086826    3.622712    4.103703
     57          1           0        1.005648    4.202321    4.114707
     58          7           0       -3.088169    1.897742    0.838528
     59          1           0       -2.882816    2.818951    1.219063
     60          6           0       -2.267815    1.550592   -0.319554
     61          1           0       -2.013555    0.488940   -0.251056
     62          6           0       -1.006902    2.427158   -0.215435
     63          6           0       -2.972764    1.851686   -1.665076
     64          1           0       -2.236959    1.712133   -2.469666
     65          1           0       -3.231700    2.918656   -1.663653
     66          8           0       -1.054245    3.526933    0.337993
     67          6           0       -4.225359    1.013310   -1.986719
     68          1           0       -4.922827    1.103632   -1.142082
     69          6           0       -4.916487    1.587096   -3.233908
     70          1           0       -4.259178    1.527908   -4.110723
     71          1           0       -5.191947    2.639390   -3.094809
     72          1           0       -5.829559    1.027831   -3.468019
     73          6           0       -3.900687   -0.475578   -2.177231
     74          1           0       -3.162009   -0.617468   -2.977209
     75          1           0       -4.801539   -1.032014   -2.461149
     76          1           0       -3.516213   -0.926979   -1.257931
     77          7           0        0.104291    1.931556   -0.799678
     78          1           0        0.120770    1.021953   -1.250117
     79          6           0        1.344129    2.687538   -0.901987
     80          1           0        1.096367    3.723612   -1.150753
     81          6           0        2.137916    2.046000   -2.051762
     82          6           0        2.102950    2.647398    0.450017
     83          1           0        2.295745    1.601416    0.706643
     84          1           0        1.420760    3.055794    1.201734
     85          8           0        1.949289    0.862558   -2.362559
     86          6           0        3.451585    3.401440    0.510023
     87          1           0        3.847172    3.326463    1.525803
     88          1           0        4.173359    2.939316   -0.169431
     89          6           0        3.319668    4.855629    0.124991
     90          8           0        3.251549    5.272982   -1.022090
     91          8           0        3.246361    5.678296    1.184170
     92          7           0        3.037016    2.842464   -2.662664
     93          1           0        3.162720    3.794190   -2.313043
     94          6           0        3.786466    2.406930   -3.844047
     95          1           0        3.129307    1.727518   -4.395827
     96          6           0        5.066197    1.642344   -3.433708
     97          6           0        4.093110    3.609898   -4.731817
     98          1           0        4.632645    4.381337   -4.170370
     99          1           0        4.763691    3.295287   -5.539742
    100          8           0        6.198791    2.120702   -3.639200
    101          6           0        2.813149    4.157262   -5.373086
    102          7           0        2.844223    5.486700   -5.674164
    103          1           0        2.067006    5.877620   -6.188762
    104          1           0        3.664870    6.057177   -5.537362
    105          8           0        1.846759    3.447401   -5.610429
    106          7           0        4.842736    0.463581   -2.838904
    107          1           0        3.870838    0.174872   -2.738435
    108          6           0        5.899072   -0.422323   -2.371393
    109          1           0        6.590086    0.166568   -1.757307
    110          6           0        6.714727   -1.045363   -3.543154
    111          6           0        5.309674   -1.574370   -1.521508
    112          1           0        4.626611   -2.152551   -2.156714
    113          1           0        6.143112   -2.243062   -1.275157
    114          8           0        6.270663   -1.082070   -4.700261
    115          6           0        4.602375   -1.165370   -0.245177
    116          6           0        5.299607   -0.542705    0.803363
    117          1           0        6.358781   -0.324201    0.688360
    118          6           0        3.252339   -1.468149   -0.041372
    119          1           0        2.685979   -1.954300   -0.831476
    120          6           0        4.678205   -0.235140    2.010321
    121          1           0        5.228801    0.221849    2.826727
    122          6           0        2.615497   -1.176636    1.167266
    123          1           0        1.567128   -1.435195    1.307874
    124          8           0        2.763110   -0.255192    3.411665
    125          1           0        1.903986   -0.700737    3.474455
    126          6           0        3.331066   -0.563915    2.197905
    127          7           0        7.884818   -1.532710   -3.115530
    128          1           0        8.093069   -1.588109   -2.092983
    129          6           0        8.693943   -2.614190   -3.685254
    130          1           0        8.032007   -3.393971   -4.082241
    131          6           0        9.489700   -3.210316   -2.437426
    132          6           0        9.657583   -2.184803   -4.794125
    133          1           0       10.241631   -3.072108   -5.053264
    134          1           0        9.075097   -1.896396   -5.679542
    135          8           0       10.389717   -4.011996   -2.721572
    136          6           0       10.596182   -1.044201   -4.355758
    137          1           0       10.127327   -0.484739   -3.537323
    138          1           0       11.524599   -1.457734   -3.948336
    139          6           0       10.944083   -0.064051   -5.482367
    140          1           0       11.571377    0.762595   -5.127008
    141          1           0       11.507154   -0.553504   -6.281690
    142          7           0        9.739037    0.494156   -6.140167
    143          1           0        9.435000    0.026059   -6.984173
    144          7           0        9.001583    1.949439   -4.462255
    145          1           0        8.214372    2.157822   -3.849600
    146          1           0        9.939433    2.060371   -4.106778
    147          7           0        7.501254    1.093392   -6.009430
    148          1           0        6.837296    1.628591   -5.450025
    149          1           0        7.150807    0.137329   -6.119854
    150          6           0        8.759519    1.159549   -5.515033
    151          8           0        9.097492   -2.761607   -1.317676
    152          1           0        3.125478    6.583275    0.836020
 ---------------------------------------------------------------------

 SCF Done:  E(RB3LYP) =  -3586.60219791     A.U. after    1 cycles

 Alpha  occ. eigenvalues --  -19.27299 -19.27289 -19.23497 -19.21951 -19.21869
 Alpha  occ. eigenvalues --  -19.19490 -19.19136 -19.19056 -19.18277 -19.16675
 Alpha  occ. eigenvalues --  -19.14533 -19.06352 -19.05073 -14.60117 -14.49763
 Alpha  occ. eigenvalues --  -14.45718 -14.44862 -14.44702 -14.43395 -14.42823
 Alpha  occ. eigenvalues --  -14.42600 -14.42076 -14.41896 -14.41409 -14.36011
 Alpha  occ. eigenvalues --  -10.43924 -10.40980 -10.40364 -10.39905 -10.39029
 Alpha  occ. eigenvalues --  -10.36662 -10.35898 -10.35553 -10.35411 -10.35099
 Alpha  occ. eigenvalues --  -10.34706 -10.34497 -10.32086 -10.31386 -10.31307
 Alpha  occ. eigenvalues --  -10.31303 -10.30233 -10.30068 -10.30067 -10.29938
 Alpha  occ. eigenvalues --  -10.29327 -10.29049 -10.27970 -10.27249 -10.27127
 Alpha  occ. eigenvalues --  -10.26956 -10.26491 -10.26280 -10.26185 -10.26120
 Alpha  occ. eigenvalues --  -10.25473 -10.25437 -10.25418 -10.25281 -10.25136
 Alpha  occ. eigenvalues --  -10.25061 -10.24714 -10.24400 -10.24177 -10.24083
 Alpha  occ. eigenvalues --  -10.24047 -10.24022 -10.23877 -10.23813 -10.23619
 Alpha  occ. eigenvalues --  -10.22391 -10.21957 -10.21942 -10.21545 -10.20012
 Alpha  occ. eigenvalues --   -1.19658  -1.18308  -1.14213  -1.13680  -1.11454
 Alpha  occ. eigenvalues --   -1.11217  -1.11090  -1.10180  -1.09865  -1.09090
 Alpha  occ. eigenvalues --   -1.09072  -1.08634  -1.06386  -1.05520  -1.02106
 Alpha  occ. eigenvalues --   -0.99885  -0.99680  -0.99283  -0.99095  -0.98892
 Alpha  occ. eigenvalues --   -0.98192  -0.96573  -0.95996  -0.95810  -0.93394
 Alpha  occ. eigenvalues --   -0.92160  -0.91150  -0.90418  -0.90238  -0.87836
 Alpha  occ. eigenvalues --   -0.87186  -0.86977  -0.86069  -0.84997  -0.83489
 Alpha  occ. eigenvalues --   -0.83422  -0.82792  -0.82448  -0.82238  -0.80732
 Alpha  occ. eigenvalues --   -0.80520  -0.79745  -0.79623  -0.78801  -0.78569
 Alpha  occ. eigenvalues --   -0.76540  -0.74677  -0.74318  -0.74284  -0.74179
 Alpha  occ. eigenvalues --   -0.73365  -0.73109  -0.72478  -0.72083  -0.71939
 Alpha  occ. eigenvalues --   -0.71428  -0.70395  -0.70040  -0.68449  -0.68091
 Alpha  occ. eigenvalues --   -0.67357  -0.67127  -0.67049  -0.66783  -0.66416
 Alpha  occ. eigenvalues --   -0.66055  -0.65397  -0.65209  -0.65004  -0.64738
 Alpha  occ. eigenvalues --   -0.64380  -0.64045  -0.63631  -0.63231  -0.63009
 Alpha  occ. eigenvalues --   -0.62462  -0.61082  -0.60803  -0.60479  -0.59971
 Alpha  occ. eigenvalues --   -0.59443  -0.59147  -0.58834  -0.58640  -0.58324
 Alpha  occ. eigenvalues --   -0.58122  -0.57904  -0.57553  -0.57239  -0.56725
 Alpha  occ. eigenvalues --   -0.56390  -0.56158  -0.56103  -0.56023  -0.55380
 Alpha  occ. eigenvalues --   -0.55304  -0.54603  -0.54493  -0.54354  -0.54129
 Alpha  occ. eigenvalues --   -0.53612  -0.53558  -0.53237  -0.52955  -0.52696
 Alpha  occ. eigenvalues --   -0.52587  -0.52428  -0.51930  -0.51850  -0.51653
 Alpha  occ. eigenvalues --   -0.51512  -0.51420  -0.51355  -0.51103  -0.50962
 Alpha  occ. eigenvalues --   -0.50651  -0.50343  -0.49666  -0.49501  -0.49110
 Alpha  occ. eigenvalues --   -0.49060  -0.48831  -0.48775  -0.48600  -0.48425
 Alpha  occ. eigenvalues --   -0.48247  -0.48118  -0.48090  -0.48053  -0.47979
 Alpha  occ. eigenvalues --   -0.47559  -0.47409  -0.47338  -0.47192  -0.47108
 Alpha  occ. eigenvalues --   -0.46856  -0.46834  -0.46287  -0.46199  -0.46123
 Alpha  occ. eigenvalues --   -0.45914  -0.45744  -0.45690  -0.45418  -0.45361
 Alpha  occ. eigenvalues --   -0.44797  -0.44676  -0.44556  -0.44255  -0.44024
 Alpha  occ. eigenvalues --   -0.43988  -0.43640  -0.43380  -0.43136  -0.43030
 Alpha  occ. eigenvalues --   -0.42739  -0.42468  -0.42378  -0.42319  -0.42230
 Alpha  occ. eigenvalues --   -0.42022  -0.41735  -0.41603  -0.41385  -0.41345
 Alpha  occ. eigenvalues --   -0.41107  -0.40729  -0.40409  -0.40325  -0.40245
 Alpha  occ. eigenvalues --   -0.39319  -0.39142  -0.39059  -0.38508  -0.38307
 Alpha  occ. eigenvalues --   -0.38195  -0.37902  -0.37695  -0.37384  -0.36781
 Alpha  occ. eigenvalues --   -0.36270  -0.35984  -0.35745  -0.35482  -0.35406
 Alpha  occ. eigenvalues --   -0.35035  -0.34897  -0.33883  -0.33858  -0.33360
 Alpha  occ. eigenvalues --   -0.33204  -0.33120  -0.32393  -0.32311  -0.32036
 Alpha  occ. eigenvalues --   -0.31669  -0.31319  -0.30991  -0.30604  -0.30496
 Alpha  occ. eigenvalues --   -0.30121  -0.28442  -0.27468  -0.26746  -0.21398
 Alpha  occ. eigenvalues --   -0.21187  -0.19323
 Alpha virt. eigenvalues --   -0.12695  -0.11723  -0.08208  -0.07245  -0.07059
 Alpha virt. eigenvalues --   -0.06715  -0.06639  -0.06547  -0.05978  -0.05466
 Alpha virt. eigenvalues --   -0.05433  -0.04666  -0.04554  -0.03949  -0.03399

 Mulliken charges:
               1
     1  N   -0.763566
     2  H    0.416290
     3  H    0.436588
     4  H    0.409878
     5  C   -0.101972
     6  H    0.214177
     7  C    0.651096
     8  C   -0.127414
     9  H    0.192788
    10  O   -0.545979
    11  C   -0.462024
    12  H    0.140152
    13  H    0.199891
    14  H    0.173204
    15  C   -0.477547
    16  H    0.143432
    17  H    0.186394
    18  H    0.200539
    19  N   -0.597105
    20  H    0.371889
    21  C   -0.077072
    22  H    0.183810
    23  C    0.630897
    24  C   -0.071547
    25  H    0.143676
    26  O   -0.558441
    27  C   -0.251241
    28  H    0.117370
    29  H    0.150116
    30  C   -0.479810
    31  H    0.155091
    32  H    0.166863
    33  H    0.175688
    34  C   -0.454195
    35  H    0.156787
    36  H    0.150847
    37  H    0.164006
    38  N   -0.612651
    39  H    0.363676
    40  C   -0.043457
    41  H    0.181633
    42  C    0.624807
    43  C   -0.353352
    44  H    0.156911
    45  H    0.168577
    46  O   -0.552025
    47  C    0.160212
    48  C   -0.189333
    49  H    0.117094
    50  C   -0.197602
    51  H    0.134023
    52  C   -0.139909
    53  H    0.156213
    54  C   -0.116085
    55  H    0.140875
    56  C   -0.127808
    57  H    0.144095
    58  N   -0.604240
    59  H    0.363076
    60  C   -0.067100
    61  H    0.173905
    62  C    0.628921
    63  C   -0.253769
    64  H    0.149575
    65  H    0.148234
    66  O   -0.545270
    67  C   -0.067847
    68  H    0.124788
    69  C   -0.445614
    70  H    0.150692
    71  H    0.140990
    72  H    0.144311
    73  C   -0.460586
    74  H    0.140829
    75  H    0.143318
    76  H    0.167886
    77  N   -0.623237
    78  H    0.358862
    79  C   -0.042217
    80  H    0.190559
    81  C    0.627740
    82  C   -0.302810
    83  H    0.188506
    84  H    0.194372
    85  O   -0.563143
    86  C   -0.361913
    87  H    0.189186
    88  H    0.186517
    89  C    0.594955
    90  O   -0.485912
    91  O   -0.543152
    92  N   -0.635149
    93  H    0.390382
    94  C   -0.069157
    95  H    0.222862
    96  C    0.645862
    97  C   -0.402606
    98  H    0.166356
    99  H    0.192016
   100  O   -0.597074
   101  C    0.613247
   102  N   -0.750646
   103  H    0.349951
   104  H    0.341943
   105  O   -0.500278
   106  N   -0.596153
   107  H    0.383956
   108  C   -0.043144
   109  H    0.163611
   110  C    0.604213
   111  C   -0.416803
   112  H    0.163540
   113  H    0.217479
   114  O   -0.589043
   115  C    0.176284
   116  C   -0.189893
   117  H    0.151969
   118  C   -0.186023
   119  H    0.140990
   120  C   -0.165149
   121  H    0.148597
   122  C   -0.201812
   123  H    0.118095
   124  O   -0.646856
   125  H    0.409053
   126  C    0.345717
   127  N   -0.614136
   128  H    0.362283
   129  C   -0.079555
   130  H    0.150406
   131  C    0.586885
   132  C   -0.254716
   133  H    0.181442
   134  H    0.090876
   135  O   -0.575479
   136  C   -0.273618
   137  H    0.148876
   138  H    0.187720
   139  C   -0.184776
   140  H    0.159749
   141  H    0.181438
   142  N   -0.564631
   143  H    0.362043
   144  N   -0.751937
   145  H    0.409406
   146  H    0.366688
   147  N   -0.766125
   148  H    0.381046
   149  H    0.389909
   150  C    0.732063
   151  O   -0.621915
   152  H    0.419858
 Sum of Mulliken charges =   1.00000

 Dipole moment (field-independent basis, Debye):
    X=            -39.2357    Y=             15.7638    Z=             23.7289  Tot=             48.4871
 Quadrupole moment (field-independent basis, Debye-Ang):
   XX=            -77.8122   YY=           -424.0170   ZZ=           -147.6881
   XY=            151.7181   XZ=           -355.1097   YZ=            -55.7384

 Normal termination of Gaussian 16 at Fri Aug 12 04:46:20 2022.
