 Gaussian 16, Revision C.01,
 Gaussian 16:  ES64L-G16RevC.01  3-Jul-2019

 -------------------------------------------------------------------
 # B3LYP/6-31G* guess=read geom=check nosymm integral(ultrafinegrid)
 -------------------------------------------------------------------

 ------------------------------------------------------
 Candidate Structure: Conf:879 Charge calc in gas phase
 ------------------------------------------------------
 Structure from the checkpoint file:  "conf-879.chk"
 Charge =  1 Multiplicity = 1

                          Input orientation:
 ---------------------------------------------------------------------
 Center     Atomic      Atomic             Coordinates (Angstroms)
 Number     Number       Type             X           Y           Z
 ---------------------------------------------------------------------
      1          7           0      -11.719762    2.429944    7.493345
      2          1           0      -12.407393    3.125250    7.192269
      3          1           0      -11.840329    1.536058    6.915153
      4          1           0      -11.854445    2.245016    8.490928
      5          6           0      -10.289484    2.810523    7.148407
      6          1           0      -10.291908    3.854436    6.824993
      7          6           0       -9.989920    1.857694    5.953621
      8          6           0       -9.373554    2.641655    8.390095
      9          1           0       -9.876745    3.204661    9.191986
     10          8           0      -10.797272    0.931976    5.751720
     11          6           0       -9.231219    1.175679    8.830725
     12          1           0       -8.666235    0.593366    8.095670
     13          1           0       -8.683781    1.129856    9.776477
     14          1           0      -10.193322    0.672103    8.991125
     15          6           0       -8.001163    3.302993    8.179407
     16          1           0       -7.372420    2.755148    7.470935
     17          1           0       -8.097219    4.340233    7.837417
     18          1           0       -7.463126    3.321285    9.131713
     19          7           0       -8.901393    2.104387    5.243375
     20          1           0       -8.227747    2.826243    5.508477
     21          6           0       -8.372082    1.233246    4.187251
     22          1           0       -8.621060    0.201642    4.448917
     23          6           0       -6.843902    1.454757    4.278151
     24          6           0       -9.000283    1.577642    2.801352
     25          1           0      -10.084319    1.555995    2.983260
     26          8           0       -6.410713    2.460723    4.851212
     27          6           0       -8.707334    0.525786    1.709239
     28          1           0       -7.640081    0.523163    1.454095
     29          1           0       -9.222194    0.867674    0.802453
     30          6           0       -8.615148    2.986559    2.327168
     31          1           0       -7.545586    3.057428    2.099675
     32          1           0       -8.847822    3.751884    3.075748
     33          1           0       -9.164951    3.238346    1.414479
     34          6           0       -9.174825   -0.901216    2.024358
     35          1           0       -9.048159   -1.544463    1.148132
     36          1           0       -8.608252   -1.366661    2.840782
     37          1           0      -10.234413   -0.922327    2.306289
     38          7           0       -6.072217    0.502613    3.728839
     39          1           0       -6.473449   -0.212585    3.127636
     40          6           0       -4.624809    0.605131    3.612259
     41          1           0       -4.348280    1.651679    3.766619
     42          6           0       -4.277695    0.137515    2.182197
     43          6           0       -3.892625   -0.292302    4.651433
     44          1           0       -2.813913   -0.152547    4.512044
     45          1           0       -4.109186   -1.338535    4.404920
     46          8           0       -5.078340   -0.558331    1.549406
     47          6           0       -4.273861   -0.013913    6.089327
     48          6           0       -3.731028    1.078553    6.779548
     49          1           0       -3.021491    1.732539    6.277694
     50          6           0       -5.175876   -0.847882    6.762190
     51          1           0       -5.591579   -1.710692    6.246721
     52          6           0       -4.077254    1.330131    8.106606
     53          1           0       -3.633105    2.173323    8.628721
     54          6           0       -5.524850   -0.602008    8.092226
     55          1           0       -6.204878   -1.277813    8.605136
     56          6           0       -4.975477    0.488843    8.768533
     57          1           0       -5.225701    0.669674    9.810856
     58          7           0       -3.065401    0.497354    1.731204
     59          1           0       -2.422097    1.057433    2.285446
     60          6           0       -2.502493    0.051840    0.459706
     61          1           0       -2.804719   -0.987253    0.299421
     62          6           0       -0.976313    0.154882    0.647207
     63          6           0       -3.016233    0.935590   -0.706231
     64          1           0       -2.648563    1.956068   -0.535405
     65          1           0       -4.109042    0.967859   -0.611395
     66          8           0       -0.505288    0.943598    1.470982
     67          6           0       -2.658556    0.486684   -2.138264
     68          1           0       -1.566087    0.416054   -2.228184
     69          6           0       -3.255827   -0.884959   -2.492105
     70          1           0       -4.348796   -0.872734   -2.393712
     71          1           0       -2.877781   -1.691452   -1.852826
     72          1           0       -3.012671   -1.156481   -3.524910
     73          6           0       -3.133697    1.551963   -3.139099
     74          1           0       -4.224593    1.668473   -3.101144
     75          1           0       -2.865190    1.272937   -4.164083
     76          1           0       -2.685106    2.529852   -2.927816
     77          7           0       -0.225177   -0.652119   -0.128651
     78          1           0       -0.633455   -1.201404   -0.881760
     79          6           0        1.226910   -0.560133   -0.196891
     80          1           0        1.510952    0.497501   -0.138998
     81          6           0        1.617143   -1.120975   -1.581655
     82          6           0        1.920352   -1.296727    0.970831
     83          1           0        1.572939   -0.844837    1.903775
     84          1           0        2.999660   -1.110084    0.924476
     85          8           0        0.770275   -1.654198   -2.306397
     86          6           0        1.657636   -2.803249    0.992328
     87          1           0        0.580138   -3.012189    0.956462
     88          1           0        2.087735   -3.310243    0.120539
     89          6           0        2.205063   -3.461113    2.241149
     90          8           0        2.636150   -2.887042    3.216695
     91          8           0        2.144936   -4.812093    2.153232
     92          7           0        2.912239   -0.990168   -1.918508
     93          1           0        3.607564   -0.597704   -1.286099
     94          6           0        3.497665   -1.578225   -3.114549
     95          1           0        3.148266   -2.608842   -3.231444
     96          6           0        5.025320   -1.571575   -2.865055
     97          6           0        3.085241   -0.808156   -4.388008
     98          1           0        2.011559   -0.599917   -4.313536
     99          1           0        3.604543    0.156396   -4.448036
    100          8           0        5.484295   -0.969735   -1.883207
    101          6           0        3.305233   -1.633018   -5.656844
    102          7           0        3.156628   -0.956806   -6.828698
    103          1           0        3.392548   -1.449884   -7.679775
    104          1           0        3.116778    0.051090   -6.860992
    105          8           0        3.546138   -2.835460   -5.621410
    106          7           0        5.780036   -2.228918   -3.757187
    107          1           0        5.362988   -2.657613   -4.584045
    108          6           0        7.233462   -2.218400   -3.682399
    109          1           0        7.546455   -1.207451   -3.396622
    110          6           0        7.746954   -2.514283   -5.110637
    111          6           0        7.772562   -3.209096   -2.598537
    112          1           0        6.975474   -3.319960   -1.856836
    113          1           0        7.928665   -4.196375   -3.047225
    114          8           0        6.955911   -2.648377   -6.044931
    115          6           0        9.030008   -2.737323   -1.894840
    116          6           0       10.273458   -3.356366   -2.084756
    117          1           0       10.368667   -4.188884   -2.776058
    118          6           0        8.962014   -1.651516   -1.007749
    119          1           0        8.005456   -1.160245   -0.844414
    120          6           0       11.414117   -2.909728   -1.418670
    121          1           0       12.374252   -3.391186   -1.573603
    122          6           0       10.094015   -1.198471   -0.334587
    123          1           0       10.020031   -0.357401    0.353525
    124          8           0       12.475577   -1.427791    0.092104
    125          1           0       12.262704   -0.693211    0.688339
    126          6           0       11.326989   -1.829662   -0.538522
    127          7           0        9.088820   -2.604722   -5.238855
    128          1           0        9.693999   -2.550725   -4.425912
    129          6           0        9.753363   -3.015310   -6.474635
    130          1           0        9.002836   -3.456938   -7.131387
    131          6           0       10.856304   -4.043421   -6.155558
    132          6           0       10.409146   -1.783339   -7.148327
    133          1           0        9.607888   -1.075052   -7.391333
    134          1           0       11.049539   -1.295081   -6.403002
    135          8           0       11.039029   -4.997440   -6.915197
    136          6           0       11.216957   -2.056487   -8.431929
    137          1           0       10.641866   -2.709203   -9.101025
    138          1           0       11.338017   -1.104931   -8.970608
    139          6           0       12.605171   -2.707569   -8.290305
    140          1           0       12.533551   -3.702413   -7.854365
    141          1           0       13.035083   -2.823497   -9.294324
    142          7           0       13.558633   -1.915799   -7.494475
    143          1           0       13.746888   -0.973649   -7.812499
    144          7           0       14.019364   -3.414141   -5.760301
    145          1           0       14.728066   -3.743785   -5.116823
    146          1           0       12.942068   -3.682321   -5.511991
    147          7           0       15.438810   -1.600264   -6.202832
    148          1           0       15.985977   -1.826806   -5.385152
    149          1           0       15.945889   -1.174888   -6.966301
    150          6           0       14.325326   -2.349632   -6.475036
    151          8           0       11.593335   -3.684951   -5.151970
    152          1           0        2.507194   -5.156380    2.991493
 ---------------------------------------------------------------------

 SCF Done:  E(RB3LYP) =  -3586.61832906     A.U. after    3 cycles

 Alpha  occ. eigenvalues --  -19.26266 -19.23266 -19.21055 -19.20281 -19.18733
 Alpha  occ. eigenvalues --  -19.17739 -19.17536 -19.16921 -19.15677 -19.15483
 Alpha  occ. eigenvalues --  -19.13236 -19.11407 -19.10017 -14.59247 -14.48601
 Alpha  occ. eigenvalues --  -14.44627 -14.43853 -14.43283 -14.42587 -14.41377
 Alpha  occ. eigenvalues --  -14.40467 -14.39783 -14.39732 -14.38621 -14.37179
 Alpha  occ. eigenvalues --  -10.42905 -10.40040 -10.38756 -10.38145 -10.35956
 Alpha  occ. eigenvalues --  -10.35849 -10.34581 -10.34062 -10.33873 -10.33363
 Alpha  occ. eigenvalues --  -10.33335 -10.32519 -10.31221 -10.30595 -10.29908
 Alpha  occ. eigenvalues --  -10.29309 -10.29093 -10.28675 -10.28420 -10.28291
 Alpha  occ. eigenvalues --  -10.27787 -10.27117 -10.26763 -10.26425 -10.26398
 Alpha  occ. eigenvalues --  -10.25918 -10.25839 -10.25806 -10.25708 -10.25611
 Alpha  occ. eigenvalues --  -10.25573 -10.25545 -10.25434 -10.24818 -10.24406
 Alpha  occ. eigenvalues --  -10.24319 -10.24019 -10.23968 -10.23862 -10.23108
 Alpha  occ. eigenvalues --  -10.22517 -10.21991 -10.21943 -10.21579 -10.21284
 Alpha  occ. eigenvalues --  -10.21221 -10.21108 -10.21025 -10.20813 -10.20510
 Alpha  occ. eigenvalues --   -1.18659  -1.14184  -1.13329  -1.12787  -1.10636
 Alpha  occ. eigenvalues --   -1.09500  -1.08620  -1.08203  -1.07503  -1.07210
 Alpha  occ. eigenvalues --   -1.07119  -1.05278  -1.05199  -1.05183  -1.03998
 Alpha  occ. eigenvalues --   -1.01253  -0.99121  -0.97991  -0.97125  -0.97014
 Alpha  occ. eigenvalues --   -0.95838  -0.95369  -0.94525  -0.94500  -0.94286
 Alpha  occ. eigenvalues --   -0.93306  -0.92213  -0.90159  -0.87407  -0.86980
 Alpha  occ. eigenvalues --   -0.85898  -0.85707  -0.85006  -0.82930  -0.82505
 Alpha  occ. eigenvalues --   -0.82391  -0.81490  -0.80960  -0.80685  -0.80517
 Alpha  occ. eigenvalues --   -0.80040  -0.78983  -0.77481  -0.77126  -0.76742
 Alpha  occ. eigenvalues --   -0.75212  -0.74856  -0.73547  -0.73244  -0.72862
 Alpha  occ. eigenvalues --   -0.72535  -0.72330  -0.71442  -0.70676  -0.70157
 Alpha  occ. eigenvalues --   -0.69535  -0.68483  -0.68419  -0.67868  -0.67405
 Alpha  occ. eigenvalues --   -0.66838  -0.66049  -0.65376  -0.65341  -0.64640
 Alpha  occ. eigenvalues --   -0.64593  -0.64328  -0.64233  -0.63947  -0.62943
 Alpha  occ. eigenvalues --   -0.62392  -0.62156  -0.61688  -0.61293  -0.61052
 Alpha  occ. eigenvalues --   -0.60927  -0.60853  -0.60380  -0.59876  -0.59620
 Alpha  occ. eigenvalues --   -0.59017  -0.58146  -0.57937  -0.57592  -0.57107
 Alpha  occ. eigenvalues --   -0.56641  -0.56404  -0.56195  -0.56016  -0.55738
 Alpha  occ. eigenvalues --   -0.55049  -0.54608  -0.54543  -0.53908  -0.53597
 Alpha  occ. eigenvalues --   -0.53510  -0.53325  -0.52993  -0.52471  -0.52433
 Alpha  occ. eigenvalues --   -0.52238  -0.51858  -0.51776  -0.51475  -0.51368
 Alpha  occ. eigenvalues --   -0.51228  -0.51103  -0.50956  -0.50526  -0.50260
 Alpha  occ. eigenvalues --   -0.50087  -0.49811  -0.49773  -0.49455  -0.49233
 Alpha  occ. eigenvalues --   -0.49136  -0.48962  -0.48902  -0.48587  -0.48521
 Alpha  occ. eigenvalues --   -0.48391  -0.48192  -0.47803  -0.47525  -0.47277
 Alpha  occ. eigenvalues --   -0.47099  -0.47069  -0.46861  -0.46671  -0.46554
 Alpha  occ. eigenvalues --   -0.46495  -0.46283  -0.46225  -0.46010  -0.45882
 Alpha  occ. eigenvalues --   -0.45662  -0.45343  -0.45106  -0.44718  -0.44642
 Alpha  occ. eigenvalues --   -0.44558  -0.44326  -0.43979  -0.43950  -0.43746
 Alpha  occ. eigenvalues --   -0.43542  -0.43402  -0.43267  -0.42949  -0.42850
 Alpha  occ. eigenvalues --   -0.42677  -0.42496  -0.42304  -0.42192  -0.42009
 Alpha  occ. eigenvalues --   -0.41898  -0.41418  -0.41271  -0.40995  -0.40928
 Alpha  occ. eigenvalues --   -0.40844  -0.40695  -0.40625  -0.40499  -0.40183
 Alpha  occ. eigenvalues --   -0.40036  -0.39938  -0.39840  -0.39721  -0.39313
 Alpha  occ. eigenvalues --   -0.38896  -0.38646  -0.38288  -0.37810  -0.37758
 Alpha  occ. eigenvalues --   -0.37538  -0.37365  -0.37043  -0.36563  -0.35661
 Alpha  occ. eigenvalues --   -0.35577  -0.35251  -0.35241  -0.34736  -0.34585
 Alpha  occ. eigenvalues --   -0.34300  -0.32972  -0.32343  -0.31673  -0.31557
 Alpha  occ. eigenvalues --   -0.31434  -0.31288  -0.31267  -0.31136  -0.30826
 Alpha  occ. eigenvalues --   -0.30780  -0.30453  -0.29643  -0.28992  -0.28770
 Alpha  occ. eigenvalues --   -0.28049  -0.27793  -0.27118  -0.26796  -0.25783
 Alpha  occ. eigenvalues --   -0.23902  -0.23087
 Alpha virt. eigenvalues --   -0.11729  -0.10727  -0.07448  -0.06783  -0.06677
 Alpha virt. eigenvalues --   -0.06323  -0.04565  -0.04229  -0.04141  -0.03406
 Alpha virt. eigenvalues --   -0.03039  -0.02674  -0.02289  -0.01708  -0.01412

 Mulliken charges:
               1
     1  N   -0.764393
     2  H    0.414312
     3  H    0.435783
     4  H    0.409742
     5  C   -0.105375
     6  H    0.209495
     7  C    0.652032
     8  C   -0.110816
     9  H    0.154792
    10  O   -0.552466
    11  C   -0.470244
    12  H    0.191062
    13  H    0.190468
    14  H    0.137673
    15  C   -0.483545
    16  H    0.204572
    17  H    0.161042
    18  H    0.185529
    19  N   -0.604514
    20  H    0.383460
    21  C   -0.081940
    22  H    0.192210
    23  C    0.640623
    24  C   -0.074859
    25  H    0.146436
    26  O   -0.552350
    27  C   -0.287729
    28  H    0.166889
    29  H    0.154351
    30  C   -0.461931
    31  H    0.167257
    32  H    0.136768
    33  H    0.164639
    34  C   -0.460446
    35  H    0.173835
    36  H    0.137959
    37  H    0.154089
    38  N   -0.610416
    39  H    0.371219
    40  C   -0.072660
    41  H    0.189617
    42  C    0.635975
    43  C   -0.367469
    44  H    0.173876
    45  H    0.164591
    46  O   -0.550773
    47  C    0.187654
    48  C   -0.162811
    49  H    0.136171
    50  C   -0.190197
    51  H    0.128885
    52  C   -0.131099
    53  H    0.140416
    54  C   -0.138991
    55  H    0.131384
    56  C   -0.139231
    57  H    0.129848
    58  N   -0.618293
    59  H    0.358152
    60  C   -0.055117
    61  H    0.178665
    62  C    0.614713
    63  C   -0.253792
    64  H    0.143667
    65  H    0.156878
    66  O   -0.545906
    67  C   -0.092630
    68  H    0.137611
    69  C   -0.448316
    70  H    0.147261
    71  H    0.140949
    72  H    0.159195
    73  C   -0.444730
    74  H    0.141002
    75  H    0.150989
    76  H    0.143437
    77  N   -0.622227
    78  H    0.371279
    79  C   -0.061549
    80  H    0.183894
    81  C    0.621560
    82  C   -0.268412
    83  H    0.192614
    84  H    0.162671
    85  O   -0.553226
    86  C   -0.363295
    87  H    0.182239
    88  H    0.189533
    89  C    0.578564
    90  O   -0.458845
    91  O   -0.565863
    92  N   -0.638051
    93  H    0.364185
    94  C   -0.033011
    95  H    0.208602
    96  C    0.599319
    97  C   -0.379723
    98  H    0.207317
    99  H    0.161273
   100  O   -0.558213
   101  C    0.620529
   102  N   -0.744572
   103  H    0.355784
   104  H    0.338409
   105  O   -0.507571
   106  N   -0.634131
   107  H    0.400198
   108  C   -0.039054
   109  H    0.182536
   110  C    0.594794
   111  C   -0.358918
   112  H    0.172154
   113  H    0.163264
   114  O   -0.539324
   115  C    0.126316
   116  C   -0.200482
   117  H    0.161796
   118  C   -0.194332
   119  H    0.161201
   120  C   -0.158819
   121  H    0.133922
   122  C   -0.195715
   123  H    0.116913
   124  O   -0.647448
   125  H    0.405783
   126  C    0.347957
   127  N   -0.623941
   128  H    0.363047
   129  C   -0.018908
   130  H    0.176170
   131  C    0.579858
   132  C   -0.267095
   133  H    0.148037
   134  H    0.138291
   135  O   -0.539094
   136  C   -0.281305
   137  H    0.170813
   138  H    0.124397
   139  C   -0.171854
   140  H    0.239971
   141  H    0.155302
   142  N   -0.589006
   143  H    0.337342
   144  N   -0.757631
   145  H    0.331655
   146  H    0.458883
   147  N   -0.760573
   148  H    0.355737
   149  H    0.352601
   150  C    0.748718
   151  O   -0.659239
   152  H    0.411860
 Sum of Mulliken charges =   1.00000

 Dipole moment (field-independent basis, Debye):
    X=            -25.4845    Y=             16.4079    Z=             21.0085  Tot=             36.8787
 Quadrupole moment (field-independent basis, Debye-Ang):
   XX=            336.3687   YY=           -445.6764   ZZ=           -149.7338
   XY=            -72.3684   XZ=           -430.0351   YZ=             26.6061

 Normal termination of Gaussian 16 at Fri Aug 12 04:47:34 2022.
