 Gaussian 16, Revision C.01,
 Gaussian 16:  ES64L-G16RevC.01  3-Jul-2019

 -------------------------------------------------------------------
 # B3LYP/6-31G* guess=read geom=check nosymm integral(ultrafinegrid)
 -------------------------------------------------------------------

 ------------------------------------------------------
 Candidate Structure: Conf:472 Charge calc in gas phase
 ------------------------------------------------------
 Structure from the checkpoint file:  "conf-472.chk"
 Charge =  1 Multiplicity = 1

                          Input orientation:
 ---------------------------------------------------------------------
 Center     Atomic      Atomic             Coordinates (Angstroms)
 Number     Number       Type             X           Y           Z
 ---------------------------------------------------------------------
      1          7           0       -8.324527   -3.157243    6.033497
      2          1           0       -9.332938   -3.309525    5.943168
      3          1           0       -7.850297   -3.425396    5.117883
      4          1           0       -7.975912   -3.726547    6.809803
      5          6           0       -7.950596   -1.689051    6.157592
      6          1           0       -8.863146   -1.131631    6.383115
      7          6           0       -7.436168   -1.368260    4.723309
      8          6           0       -6.913691   -1.496545    7.296969
      9          1           0       -7.366365   -1.975141    8.179383
     10          8           0       -7.178150   -2.334801    3.987316
     11          6           0       -5.569065   -2.180702    7.001166
     12          1           0       -5.063431   -1.715970    6.148313
     13          1           0       -4.911196   -2.086746    7.869836
     14          1           0       -5.662590   -3.252604    6.785850
     15          6           0       -6.729185   -0.010449    7.646557
     16          1           0       -6.207802    0.544982    6.860337
     17          1           0       -7.687481    0.483056    7.847078
     18          1           0       -6.125093    0.071923    8.554934
     19          7           0       -7.321403   -0.086804    4.393389
     20          1           0       -7.441644    0.644898    5.091730
     21          6           0       -6.700026    0.420018    3.160369
     22          1           0       -6.178146   -0.411363    2.680324
     23          6           0       -5.706172    1.490323    3.662953
     24          6           0       -7.768780    1.023573    2.199678
     25          1           0       -8.277732    1.810050    2.775163
     26          8           0       -5.983034    2.141276    4.678125
     27          6           0       -8.844539   -0.008954    1.789399
     28          1           0       -9.632275    0.545920    1.264009
     29          1           0       -9.320698   -0.410898    2.693511
     30          6           0       -7.120891    1.688330    0.972992
     31          1           0       -6.471888    0.998342    0.421433
     32          1           0       -6.524181    2.563108    1.245286
     33          1           0       -7.900356    2.025339    0.281920
     34          6           0       -8.372362   -1.168321    0.902351
     35          1           0       -9.220005   -1.814045    0.648689
     36          1           0       -7.945324   -0.813148   -0.041028
     37          1           0       -7.626446   -1.794350    1.403525
     38          7           0       -4.576121    1.642276    2.955302
     39          1           0       -4.412695    1.143313    2.082924
     40          6           0       -3.599751    2.690335    3.222596
     41          1           0       -4.132576    3.629359    3.409717
     42          6           0       -2.762965    2.808110    1.931817
     43          6           0       -2.731854    2.359279    4.475606
     44          1           0       -2.035713    1.551446    4.223277
     45          1           0       -3.426061    1.972554    5.228234
     46          8           0       -2.901868    1.972612    1.025934
     47          6           0       -1.991166    3.551080    5.047350
     48          6           0       -0.597529    3.665542    4.944369
     49          1           0       -0.029841    2.881430    4.448580
     50          6           0       -2.704011    4.571600    5.697387
     51          1           0       -3.784282    4.487312    5.798726
     52          6           0        0.069030    4.773039    5.475318
     53          1           0        1.149692    4.842715    5.389878
     54          6           0       -2.040344    5.678238    6.226369
     55          1           0       -2.606056    6.456852    6.730446
     56          6           0       -0.651191    5.781990    6.115948
     57          1           0       -0.133940    6.642302    6.530777
     58          7           0       -1.895870    3.833647    1.867781
     59          1           0       -1.758682    4.403673    2.695010
     60          6           0       -1.005904    4.082366    0.721156
     61          1           0       -1.561590    3.770292   -0.169098
     62          6           0        0.263379    3.192689    0.795450
     63          6           0       -0.645144    5.568092    0.639612
     64          1           0        0.083426    5.681983   -0.170814
     65          1           0       -0.106832    5.845348    1.556125
     66          8           0        1.398773    3.662455    0.841268
     67          6           0       -1.827966    6.530655    0.412212
     68          1           0       -2.559816    6.379070    1.220260
     69          6           0       -1.334879    7.983194    0.498431
     70          1           0       -0.603001    8.196314   -0.290913
     71          1           0       -0.854363    8.188337    1.462320
     72          1           0       -2.165180    8.688171    0.379795
     73          6           0       -2.542964    6.279513   -0.924395
     74          1           0       -1.847827    6.387984   -1.766718
     75          1           0       -3.354175    7.001518   -1.070330
     76          1           0       -2.984469    5.277963   -0.982492
     77          7           0        0.012329    1.857873    0.816101
     78          1           0       -0.931385    1.551171    0.599801
     79          6           0        1.108396    0.908629    0.744905
     80          1           0        1.776596    1.104535    1.591961
     81          6           0        1.912566    1.131335   -0.553819
     82          6           0        0.614944   -0.546939    0.845708
     83          1           0        0.107112   -0.680671    1.808003
     84          1           0        1.493165   -1.199268    0.880693
     85          8           0        1.389556    1.503813   -1.595051
     86          6           0       -0.288410   -1.009958   -0.307830
     87          1           0       -1.332355   -0.698049   -0.167812
     88          1           0        0.024070   -0.571633   -1.261422
     89          6           0       -0.260460   -2.521725   -0.460377
     90          8           0        0.255499   -3.283690    0.332724
     91          8           0       -0.854272   -2.914250   -1.598934
     92          7           0        3.253465    0.890808   -0.420796
     93          1           0        3.574700    0.344140    0.374258
     94          6           0        4.134672    0.792235   -1.570046
     95          1           0        3.533828    1.004736   -2.458826
     96          6           0        4.709072   -0.638632   -1.614652
     97          6           0        5.323213    1.786202   -1.462850
     98          1           0        5.735183    1.718191   -0.448477
     99          1           0        6.114318    1.481788   -2.151410
    100          8           0        4.871174   -1.269330   -0.572018
    101          6           0        4.987265    3.242342   -1.782637
    102          7           0        4.051516    3.836862   -1.013748
    103          1           0        3.770709    4.776324   -1.260943
    104          1           0        3.473155    3.338276   -0.347090
    105          8           0        5.571610    3.856060   -2.686700
    106          7           0        5.030071   -1.082456   -2.853457
    107          1           0        4.985808   -0.414290   -3.613945
    108          6           0        5.961589   -2.176946   -3.097336
    109          1           0        6.211967   -2.603750   -2.123761
    110          6           0        7.230769   -1.576384   -3.735249
    111          6           0        5.376534   -3.266753   -4.029285
    112          1           0        5.310068   -2.853640   -5.043977
    113          1           0        6.114253   -4.078658   -4.089224
    114          8           0        7.166334   -0.434618   -4.266943
    115          6           0        4.015395   -3.808702   -3.631850
    116          6           0        3.637502   -4.015404   -2.296764
    117          1           0        4.313838   -3.754123   -1.488629
    118          6           0        3.092567   -4.140809   -4.630902
    119          1           0        3.357017   -3.994105   -5.675366
    120          6           0        2.381915   -4.522878   -1.966899
    121          1           0        2.085066   -4.658524   -0.932466
    122          6           0        1.832466   -4.652415   -4.320050
    123          1           0        1.127733   -4.890233   -5.115012
    124          8           0        0.222912   -5.292819   -2.610480
    125          1           0       -0.252718   -5.576830   -3.407716
    126          6           0        1.479816   -4.833232   -2.984100
    127          7           0        8.323062   -2.317057   -3.716019
    128          1           0        8.328061   -3.349626   -3.545065
    129          6           0        9.512300   -2.048740   -4.520178
    130          1           0        9.195332   -1.580262   -5.460418
    131          6           0       10.113225   -3.476210   -4.870214
    132          6           0       10.570563   -1.164688   -3.813466
    133          1           0       10.106219   -0.608425   -2.986913
    134          1           0       11.321782   -1.820500   -3.365631
    135          8           0       11.157297   -3.438310   -5.536846
    136          6           0       11.275099   -0.186637   -4.781788
    137          1           0       12.350310   -0.151766   -4.575580
    138          1           0       11.182595   -0.560635   -5.806057
    139          6           0       10.774739    1.261580   -4.678163
    140          1           0       11.093754    1.682533   -3.713336
    141          1           0       11.220262    1.871049   -5.476701
    142          7           0        9.308874    1.347765   -4.761242
    143          1           0        8.757260    0.479889   -4.756985
    144          7           0        9.208053    3.609764   -4.192552
    145          1           0        8.651736    4.452335   -4.175559
    146          1           0       10.193747    3.719818   -4.374971
    147          7           0        7.256154    2.380639   -4.470714
    148          1           0        6.714002    3.048675   -3.905315
    149          1           0        6.874351    1.436090   -4.505540
    150          6           0        8.597866    2.435658   -4.474176
    151          8           0        9.443953   -4.438227   -4.397819
    152          1           0       -0.647288   -3.869853   -1.743272
 ---------------------------------------------------------------------

 SCF Done:  E(RB3LYP) =  -3586.61129017     A.U. after    3 cycles

 Alpha  occ. eigenvalues --  -19.27899 -19.24000 -19.22966 -19.22793 -19.22272
 Alpha  occ. eigenvalues --  -19.19277 -19.18376 -19.18148 -19.18072 -19.17769
 Alpha  occ. eigenvalues --  -19.17249 -19.06298 -19.05010 -14.60883 -14.50665
 Alpha  occ. eigenvalues --  -14.46718 -14.45969 -14.44915 -14.42934 -14.42606
 Alpha  occ. eigenvalues --  -14.42462 -14.41597 -14.41537 -14.41406 -14.37871
 Alpha  occ. eigenvalues --  -10.44699 -10.41651 -10.40025 -10.39726 -10.39114
 Alpha  occ. eigenvalues --  -10.36498 -10.35990 -10.35841 -10.35595 -10.35235
 Alpha  occ. eigenvalues --  -10.35145 -10.34765 -10.33844 -10.33033 -10.31391
 Alpha  occ. eigenvalues --  -10.31322 -10.30785 -10.30269 -10.30250 -10.30122
 Alpha  occ. eigenvalues --  -10.29253 -10.28802 -10.28522 -10.28214 -10.28155
 Alpha  occ. eigenvalues --  -10.27851 -10.27037 -10.27031 -10.26973 -10.26833
 Alpha  occ. eigenvalues --  -10.26794 -10.26640 -10.26501 -10.26062 -10.25958
 Alpha  occ. eigenvalues --  -10.25763 -10.25530 -10.25487 -10.24094 -10.23681
 Alpha  occ. eigenvalues --  -10.23649 -10.23406 -10.23401 -10.23397 -10.23144
 Alpha  occ. eigenvalues --  -10.22718 -10.22465 -10.22187 -10.22105 -10.20623
 Alpha  occ. eigenvalues --   -1.20314  -1.15121  -1.14607  -1.14204  -1.13835
 Alpha  occ. eigenvalues --   -1.11164  -1.11138  -1.10085  -1.09611  -1.09325
 Alpha  occ. eigenvalues --   -1.08590  -1.07624  -1.07156  -1.05402  -1.03309
 Alpha  occ. eigenvalues --   -1.02266  -0.99398  -0.99345  -0.99172  -0.98259
 Alpha  occ. eigenvalues --   -0.97884  -0.96488  -0.96125  -0.96079  -0.94630
 Alpha  occ. eigenvalues --   -0.93761  -0.91893  -0.90615  -0.89476  -0.88956
 Alpha  occ. eigenvalues --   -0.87526  -0.87266  -0.86816  -0.84953  -0.84227
 Alpha  occ. eigenvalues --   -0.83166  -0.83052  -0.82585  -0.82288  -0.82271
 Alpha  occ. eigenvalues --   -0.81324  -0.80496  -0.79166  -0.78868  -0.78335
 Alpha  occ. eigenvalues --   -0.76420  -0.76230  -0.75705  -0.74738  -0.74504
 Alpha  occ. eigenvalues --   -0.74246  -0.73731  -0.73097  -0.72282  -0.71639
 Alpha  occ. eigenvalues --   -0.70686  -0.70158  -0.70086  -0.69601  -0.68821
 Alpha  occ. eigenvalues --   -0.68328  -0.67971  -0.67721  -0.66415  -0.66202
 Alpha  occ. eigenvalues --   -0.66094  -0.65780  -0.65481  -0.65187  -0.64983
 Alpha  occ. eigenvalues --   -0.64297  -0.63940  -0.63720  -0.63483  -0.63436
 Alpha  occ. eigenvalues --   -0.63207  -0.62331  -0.61539  -0.60818  -0.60594
 Alpha  occ. eigenvalues --   -0.59899  -0.59769  -0.59562  -0.59221  -0.58839
 Alpha  occ. eigenvalues --   -0.58684  -0.57866  -0.57717  -0.57495  -0.56987
 Alpha  occ. eigenvalues --   -0.56920  -0.56689  -0.56010  -0.55730  -0.55216
 Alpha  occ. eigenvalues --   -0.54920  -0.54884  -0.54428  -0.54223  -0.54149
 Alpha  occ. eigenvalues --   -0.54070  -0.53778  -0.53526  -0.53331  -0.53256
 Alpha  occ. eigenvalues --   -0.53154  -0.53032  -0.52574  -0.52346  -0.52243
 Alpha  occ. eigenvalues --   -0.51978  -0.51805  -0.51395  -0.51256  -0.51180
 Alpha  occ. eigenvalues --   -0.50596  -0.50519  -0.49957  -0.49838  -0.49772
 Alpha  occ. eigenvalues --   -0.49665  -0.49508  -0.49403  -0.48816  -0.48704
 Alpha  occ. eigenvalues --   -0.48550  -0.48489  -0.48363  -0.48257  -0.48138
 Alpha  occ. eigenvalues --   -0.48104  -0.48072  -0.47862  -0.47687  -0.47487
 Alpha  occ. eigenvalues --   -0.47274  -0.47189  -0.46836  -0.46645  -0.46448
 Alpha  occ. eigenvalues --   -0.46186  -0.45974  -0.45652  -0.45376  -0.45351
 Alpha  occ. eigenvalues --   -0.45169  -0.44964  -0.44861  -0.44758  -0.44499
 Alpha  occ. eigenvalues --   -0.44363  -0.44169  -0.44009  -0.43631  -0.43530
 Alpha  occ. eigenvalues --   -0.42984  -0.42969  -0.42786  -0.42518  -0.42298
 Alpha  occ. eigenvalues --   -0.42284  -0.42105  -0.41942  -0.41873  -0.41764
 Alpha  occ. eigenvalues --   -0.41349  -0.41283  -0.40800  -0.40396  -0.40149
 Alpha  occ. eigenvalues --   -0.39977  -0.39318  -0.39154  -0.39074  -0.39026
 Alpha  occ. eigenvalues --   -0.38045  -0.37770  -0.37591  -0.37327  -0.37072
 Alpha  occ. eigenvalues --   -0.36845  -0.36270  -0.35949  -0.35899  -0.35622
 Alpha  occ. eigenvalues --   -0.35467  -0.35357  -0.33757  -0.33716  -0.33275
 Alpha  occ. eigenvalues --   -0.33161  -0.32994  -0.32893  -0.32424  -0.32186
 Alpha  occ. eigenvalues --   -0.32122  -0.31911  -0.31722  -0.31353  -0.30988
 Alpha  occ. eigenvalues --   -0.30455  -0.29178  -0.29065  -0.26450  -0.21231
 Alpha  occ. eigenvalues --   -0.21213  -0.19318
 Alpha virt. eigenvalues --   -0.13436  -0.12134  -0.09638  -0.08416  -0.08152
 Alpha virt. eigenvalues --   -0.07740  -0.07672  -0.05865  -0.05541  -0.05016
 Alpha virt. eigenvalues --   -0.04449  -0.04317  -0.03987  -0.03507  -0.03427

 Mulliken charges:
               1
     1  N   -0.761440
     2  H    0.418030
     3  H    0.437499
     4  H    0.413233
     5  C   -0.108044
     6  H    0.211485
     7  C    0.652653
     8  C   -0.111472
     9  H    0.160758
    10  O   -0.542060
    11  C   -0.469204
    12  H    0.183851
    13  H    0.196261
    14  H    0.144556
    15  C   -0.486706
    16  H    0.191783
    17  H    0.165163
    18  H    0.191418
    19  N   -0.591975
    20  H    0.374104
    21  C   -0.084809
    22  H    0.191327
    23  C    0.634671
    24  C   -0.073636
    25  H    0.145548
    26  O   -0.556835
    27  C   -0.258022
    28  H    0.158250
    29  H    0.115039
    30  C   -0.477790
    31  H    0.161571
    32  H    0.163204
    33  H    0.172869
    34  C   -0.469131
    35  H    0.158449
    36  H    0.162847
    37  H    0.162292
    38  N   -0.616891
    39  H    0.369486
    40  C   -0.049010
    41  H    0.193121
    42  C    0.625702
    43  C   -0.351357
    44  H    0.160790
    45  H    0.180576
    46  O   -0.564129
    47  C    0.124340
    48  C   -0.201445
    49  H    0.143303
    50  C   -0.188189
    51  H    0.147166
    52  C   -0.126506
    53  H    0.153379
    54  C   -0.127582
    55  H    0.148515
    56  C   -0.128647
    57  H    0.151603
    58  N   -0.600162
    59  H    0.359166
    60  C   -0.093877
    61  H    0.200111
    62  C    0.651688
    63  C   -0.278710
    64  H    0.165833
    65  H    0.149558
    66  O   -0.541945
    67  C   -0.074099
    68  H    0.115868
    69  C   -0.443823
    70  H    0.149531
    71  H    0.143915
    72  H    0.150822
    73  C   -0.453163
    74  H    0.152202
    75  H    0.152761
    76  H    0.143526
    77  N   -0.631602
    78  H    0.380340
    79  C   -0.048237
    80  H    0.159782
    81  C    0.626707
    82  C   -0.296487
    83  H    0.153862
    84  H    0.189396
    85  O   -0.521093
    86  C   -0.382752
    87  H    0.171500
    88  H    0.212231
    89  C    0.585271
    90  O   -0.472389
    91  O   -0.600881
    92  N   -0.610573
    93  H    0.350770
    94  C   -0.093057
    95  H    0.197052
    96  C    0.625639
    97  C   -0.369174
    98  H    0.185392
    99  H    0.173327
   100  O   -0.532701
   101  C    0.601185
   102  N   -0.733220
   103  H    0.347630
   104  H    0.390989
   105  O   -0.547029
   106  N   -0.566776
   107  H    0.335133
   108  C   -0.092099
   109  H    0.201065
   110  C    0.626608
   111  C   -0.373155
   112  H    0.154039
   113  H    0.204839
   114  O   -0.626024
   115  C    0.189250
   116  C   -0.197976
   117  H    0.158207
   118  C   -0.198586
   119  H    0.136466
   120  C   -0.172400
   121  H    0.171975
   122  C   -0.178234
   123  H    0.125512
   124  O   -0.673269
   125  H    0.417383
   126  C    0.330244
   127  N   -0.584226
   128  H    0.370288
   129  C   -0.089924
   130  H    0.141346
   131  C    0.581654
   132  C   -0.271589
   133  H    0.121287
   134  H    0.182107
   135  O   -0.576760
   136  C   -0.290080
   137  H    0.160992
   138  H    0.190759
   139  C   -0.163884
   140  H    0.158315
   141  H    0.161167
   142  N   -0.626129
   143  H    0.423939
   144  N   -0.759149
   145  H    0.373125
   146  H    0.371474
   147  N   -0.814804
   148  H    0.398996
   149  H    0.394197
   150  C    0.759635
   151  O   -0.608845
   152  H    0.442865
 Sum of Mulliken charges =   1.00000

 Dipole moment (field-independent basis, Debye):
    X=            -40.1515    Y=             10.9044    Z=             28.8969  Tot=             50.6565
 Quadrupole moment (field-independent basis, Debye-Ang):
   XX=           -230.2916   YY=           -398.3920   ZZ=           -278.5201
   XY=            227.0646   XZ=           -154.6579   YZ=            -96.6507

 Normal termination of Gaussian 16 at Fri Aug 12 04:48:01 2022.
