 Gaussian 16, Revision C.01,
 Gaussian 16:  ES64L-G16RevC.01  3-Jul-2019

 -------------------------------------------------------------------
 # B3LYP/6-31G* guess=read geom=check nosymm integral(ultrafinegrid)
 -------------------------------------------------------------------

 ------------------------------------------------------
 Candidate Structure: Conf:549 Charge calc in gas phase
 ------------------------------------------------------
 Structure from the checkpoint file:  "conf-549.chk"
 Charge =  1 Multiplicity = 1

                          Input orientation:
 ---------------------------------------------------------------------
 Center     Atomic      Atomic             Coordinates (Angstroms)
 Number     Number       Type             X           Y           Z
 ---------------------------------------------------------------------
      1          7           0      -10.319039    2.283299    8.384840
      2          1           0      -11.062870    2.919596    8.084419
      3          1           0      -10.446610    1.351045    7.884180
      4          1           0      -10.366800    2.183261    9.401688
      5          6           0       -8.943818    2.698901    7.890104
      6          1           0       -8.974736    3.765659    7.651960
      7          6           0       -8.808514    1.822219    6.608176
      8          6           0       -7.874202    2.418952    8.978909
      9          1           0       -7.883836    1.336067    9.170451
     10          8           0       -9.537773    0.816662    6.539399
     11          6           0       -6.469381    2.812446    8.489578
     12          1           0       -6.416518    3.881885    8.250597
     13          1           0       -5.744081    2.620585    9.285471
     14          1           0       -6.148328    2.249138    7.611075
     15          6           0       -8.192188    3.164637   10.288873
     16          1           0       -8.233074    4.248679   10.129833
     17          1           0       -9.131311    2.856883   10.769500
     18          1           0       -7.404664    2.966997   11.021642
     19          7           0       -7.942525    2.216207    5.688204
     20          1           0       -7.309347    3.008950    5.826662
     21          6           0       -7.600223    1.462220    4.476782
     22          1           0       -7.588605    0.396097    4.727339
     23          6           0       -6.166691    1.948689    4.148163
     24          6           0       -8.648008    1.697005    3.344125
     25          1           0       -9.616458    1.512586    3.830225
     26          8           0       -5.730086    2.967549    4.702081
     27          6           0       -8.513737    0.657185    2.210407
     28          1           0       -8.370031   -0.337983    2.655685
     29          1           0       -7.620939    0.861600    1.607062
     30          6           0       -8.626042    3.144516    2.832194
     31          1           0       -7.697892    3.364495    2.292274
     32          1           0       -8.715174    3.867325    3.650946
     33          1           0       -9.458252    3.324321    2.145949
     34          6           0       -9.736733    0.600450    1.286234
     35          1           0       -9.612833   -0.190802    0.540095
     36          1           0      -10.652833    0.387021    1.850337
     37          1           0       -9.885509    1.539742    0.743487
     38          7           0       -5.471202    1.216143    3.271054
     39          1           0       -5.886394    0.433682    2.768148
     40          6           0       -4.179365    1.619856    2.732064
     41          1           0       -4.191697    2.707127    2.591339
     42          6           0       -4.082646    0.926643    1.353923
     43          6           0       -2.995779    1.284999    3.684988
     44          1           0       -3.201630    1.805057    4.626814
     45          1           0       -2.089635    1.742731    3.270901
     46          8           0       -4.947633    0.122078    0.996252
     47          6           0       -2.763920   -0.191193    3.925492
     48          6           0       -3.487427   -0.883390    4.906692
     49          1           0       -4.202935   -0.343377    5.522720
     50          6           0       -1.821411   -0.900378    3.167367
     51          1           0       -1.234224   -0.374644    2.417918
     52          6           0       -3.289770   -2.248972    5.113135
     53          1           0       -3.857061   -2.768123    5.881433
     54          6           0       -1.619825   -2.266522    3.370762
     55          1           0       -0.882450   -2.797220    2.774455
     56          6           0       -2.357576   -2.945361    4.342019
     57          1           0       -2.200200   -4.008200    4.503767
     58          7           0       -3.017324    1.266530    0.609431
     59          1           0       -2.304188    1.902686    0.951369
     60          6           0       -2.717495    0.677347   -0.692365
     61          1           0       -3.137838   -0.332195   -0.699893
     62          6           0       -1.182830    0.628072   -0.767361
     63          6           0       -3.342966    1.534712   -1.822653
     64          1           0       -2.912516    2.539836   -1.758932
     65          1           0       -4.412498    1.613589   -1.586140
     66          8           0       -0.499219    1.435482   -0.129108
     67          6           0       -3.188272    1.018662   -3.266651
     68          1           0       -2.115444    0.926043   -3.488709
     69          6           0       -3.853926   -0.348718   -3.490826
     70          1           0       -4.927737   -0.299516   -3.270078
     71          1           0       -3.435026   -1.143554   -2.858336
     72          1           0       -3.742215   -0.671164   -4.532153
     73          6           0       -3.756444    2.067591   -4.235818
     74          1           0       -4.832119    2.211988   -4.069425
     75          1           0       -3.621417    1.753236   -5.277406
     76          1           0       -3.255744    3.030430   -4.092710
     77          7           0       -0.636611   -0.339824   -1.543368
     78          1           0       -1.245072   -0.885981   -2.140921
     79          6           0        0.814913   -0.454754   -1.749657
     80          1           0        1.278460   -0.070822   -0.838435
     81          6           0        1.250575    0.426435   -2.944414
     82          6           0        1.233237   -1.911550   -1.969702
     83          1           0        2.312655   -1.920424   -2.145652
     84          1           0        0.775648   -2.282993   -2.893310
     85          8           0        1.559840   -0.051645   -4.029912
     86          6           0        0.887423   -2.851156   -0.811071
     87          1           0       -0.182303   -2.826830   -0.568214
     88          1           0        1.101554   -3.890388   -1.090335
     89          6           0        1.654902   -2.562183    0.461368
     90          8           0        2.487377   -1.696051    0.619348
     91          8           0        1.303236   -3.412842    1.459803
     92          7           0        1.227614    1.765370   -2.684415
     93          1           0        0.956234    2.083882   -1.758063
     94          6           0        1.524540    2.752971   -3.719301
     95          1           0        1.584806    2.176459   -4.645980
     96          6           0        2.913322    3.387930   -3.475899
     97          6           0        0.391057    3.791696   -3.884182
     98          1           0        0.782269    4.651870   -4.440941
     99          1           0       -0.408093    3.345683   -4.479750
    100          8           0        3.060481    4.464094   -2.877066
    101          6           0       -0.282502    4.300650   -2.602454
    102          7           0        0.560003    4.780377   -1.656717
    103          1           0        0.156888    5.189504   -0.825332
    104          1           0        1.552003    4.896337   -1.875846
    105          8           0       -1.505181    4.261940   -2.465070
    106          7           0        3.945281    2.674065   -3.955834
    107          1           0        3.802348    1.848909   -4.535956
    108          6           0        5.323381    3.137915   -3.909195
    109          1           0        5.327324    4.208528   -4.150412
    110          6           0        6.065824    2.374907   -5.027976
    111          6           0        5.975597    2.988620   -2.504090
    112          1           0        6.928221    3.531575   -2.516604
    113          1           0        5.325303    3.530027   -1.808735
    114          8           0        5.479279    1.533541   -5.714643
    115          6           0        6.203755    1.570362   -2.028480
    116          6           0        5.185341    0.845493   -1.390914
    117          1           0        4.218521    1.315761   -1.228005
    118          6           0        7.446898    0.945277   -2.196575
    119          1           0        8.265332    1.481834   -2.671232
    120          6           0        5.382379   -0.458783   -0.945080
    121          1           0        4.593235   -1.003276   -0.436645
    122          6           0        7.659649   -0.361452   -1.756804
    123          1           0        8.635393   -0.826309   -1.891647
    124          8           0        6.781649   -2.351450   -0.676527
    125          1           0        7.693601   -2.631816   -0.850202
    126          6           0        6.627440   -1.066952   -1.133001
    127          7           0        7.356521    2.717137   -5.199888
    128          1           0        7.868600    3.260202   -4.504502
    129          6           0        8.271165    1.974203   -6.057025
    130          1           0        7.967713    0.919333   -6.055690
    131          6           0        9.682399    2.087461   -5.393128
    132          6           0        8.165144    2.495922   -7.513644
    133          1           0        7.094029    2.578998   -7.722287
    134          1           0        8.575619    3.513406   -7.571338
    135          8           0       10.635004    1.413388   -5.915605
    136          6           0        8.793118    1.589720   -8.590005
    137          1           0        8.694799    0.543733   -8.274119
    138          1           0        8.224973    1.678878   -9.524899
    139          6           0       10.273272    1.894842   -8.879545
    140          1           0       10.376892    2.756481   -9.545399
    141          1           0       10.806101    2.121860   -7.955239
    142          7           0       10.972081    0.772797   -9.533351
    143          1           0       10.813549    0.649607  -10.525259
    144          7           0       11.237439   -0.430679   -7.559206
    145          1           0       11.703662   -1.199045   -7.094752
    146          1           0       10.826068    0.351363   -6.896852
    147          7           0       11.885264   -1.352984   -9.610782
    148          1           0       12.296807   -2.133206   -9.118091
    149          1           0       12.349321   -1.118349  -10.477961
    150          6           0       11.369182   -0.326638   -8.865924
    151          8           0        9.781145    2.826909   -4.401169
    152          1           0        1.858559   -3.174795    2.227092
 ---------------------------------------------------------------------

 SCF Done:  E(RB3LYP) =  -3586.62578260     A.U. after    3 cycles

 Alpha  occ. eigenvalues --  -19.26247 -19.24923 -19.21160 -19.19627 -19.19415
 Alpha  occ. eigenvalues --  -19.18566 -19.18443 -19.15969 -19.15667 -19.14289
 Alpha  occ. eigenvalues --  -19.13687 -19.11498 -19.10505 -14.59489 -14.48697
 Alpha  occ. eigenvalues --  -14.45244 -14.44652 -14.44341 -14.42956 -14.42380
 Alpha  occ. eigenvalues --  -14.42017 -14.40295 -14.38944 -14.37578 -14.36681
 Alpha  occ. eigenvalues --  -10.43007 -10.40402 -10.40311 -10.38101 -10.37430
 Alpha  occ. eigenvalues --  -10.35697 -10.35347 -10.34408 -10.33508 -10.33077
 Alpha  occ. eigenvalues --  -10.32444 -10.31951 -10.31187 -10.31040 -10.30645
 Alpha  occ. eigenvalues --  -10.29610 -10.29190 -10.29040 -10.28367 -10.28332
 Alpha  occ. eigenvalues --  -10.27669 -10.27418 -10.26355 -10.26160 -10.25927
 Alpha  occ. eigenvalues --  -10.25794 -10.25547 -10.25533 -10.25368 -10.24598
 Alpha  occ. eigenvalues --  -10.24477 -10.24219 -10.24207 -10.24204 -10.24141
 Alpha  occ. eigenvalues --  -10.24070 -10.23915 -10.23351 -10.23221 -10.23036
 Alpha  occ. eigenvalues --  -10.22682 -10.22124 -10.21581 -10.21357 -10.20499
 Alpha  occ. eigenvalues --  -10.20488 -10.20442 -10.20381 -10.20185 -10.19693
 Alpha  occ. eigenvalues --   -1.18722  -1.15741  -1.13498  -1.12886  -1.10714
 Alpha  occ. eigenvalues --   -1.09962  -1.09019  -1.07903  -1.07512  -1.07113
 Alpha  occ. eigenvalues --   -1.06741  -1.05747  -1.05438  -1.05314  -1.04220
 Alpha  occ. eigenvalues --   -1.01028  -0.99143  -0.98804  -0.98656  -0.96918
 Alpha  occ. eigenvalues --   -0.96682  -0.95547  -0.95317  -0.94939  -0.93343
 Alpha  occ. eigenvalues --   -0.92668  -0.91104  -0.90151  -0.86669  -0.86590
 Alpha  occ. eigenvalues --   -0.86257  -0.85496  -0.84812  -0.83422  -0.82380
 Alpha  occ. eigenvalues --   -0.82242  -0.81265  -0.80992  -0.80353  -0.79736
 Alpha  occ. eigenvalues --   -0.79478  -0.78587  -0.77474  -0.77402  -0.76024
 Alpha  occ. eigenvalues --   -0.75216  -0.74651  -0.73780  -0.73148  -0.72743
 Alpha  occ. eigenvalues --   -0.72447  -0.72275  -0.71481  -0.70740  -0.69961
 Alpha  occ. eigenvalues --   -0.69847  -0.69312  -0.69189  -0.67647  -0.66891
 Alpha  occ. eigenvalues --   -0.66252  -0.66162  -0.65877  -0.65594  -0.64861
 Alpha  occ. eigenvalues --   -0.64463  -0.64057  -0.63719  -0.63598  -0.63433
 Alpha  occ. eigenvalues --   -0.63142  -0.63058  -0.62723  -0.62020  -0.60780
 Alpha  occ. eigenvalues --   -0.60620  -0.60432  -0.60192  -0.59130  -0.58755
 Alpha  occ. eigenvalues --   -0.58591  -0.58210  -0.57980  -0.57243  -0.56840
 Alpha  occ. eigenvalues --   -0.56574  -0.56519  -0.56466  -0.55820  -0.55720
 Alpha  occ. eigenvalues --   -0.55635  -0.55370  -0.54543  -0.54175  -0.54097
 Alpha  occ. eigenvalues --   -0.53836  -0.53541  -0.53186  -0.52769  -0.52614
 Alpha  occ. eigenvalues --   -0.52192  -0.52091  -0.52044  -0.51659  -0.51596
 Alpha  occ. eigenvalues --   -0.51501  -0.51315  -0.51072  -0.50883  -0.50841
 Alpha  occ. eigenvalues --   -0.50601  -0.50435  -0.50033  -0.49718  -0.49409
 Alpha  occ. eigenvalues --   -0.48834  -0.48703  -0.48543  -0.48414  -0.47965
 Alpha  occ. eigenvalues --   -0.47784  -0.47711  -0.47563  -0.47353  -0.47326
 Alpha  occ. eigenvalues --   -0.47278  -0.47109  -0.46879  -0.46842  -0.46444
 Alpha  occ. eigenvalues --   -0.46253  -0.46002  -0.45765  -0.45633  -0.45446
 Alpha  occ. eigenvalues --   -0.45243  -0.45056  -0.44945  -0.44775  -0.44319
 Alpha  occ. eigenvalues --   -0.44298  -0.44266  -0.43985  -0.43953  -0.43719
 Alpha  occ. eigenvalues --   -0.43415  -0.43217  -0.43158  -0.42870  -0.42302
 Alpha  occ. eigenvalues --   -0.42268  -0.42198  -0.41972  -0.41816  -0.41477
 Alpha  occ. eigenvalues --   -0.41267  -0.41235  -0.41074  -0.41017  -0.40962
 Alpha  occ. eigenvalues --   -0.40765  -0.40433  -0.40337  -0.40224  -0.40124
 Alpha  occ. eigenvalues --   -0.39948  -0.39943  -0.39550  -0.39420  -0.39362
 Alpha  occ. eigenvalues --   -0.39107  -0.39081  -0.38464  -0.37952  -0.37751
 Alpha  occ. eigenvalues --   -0.37468  -0.37094  -0.36729  -0.36529  -0.36438
 Alpha  occ. eigenvalues --   -0.35662  -0.35343  -0.35249  -0.34894  -0.34382
 Alpha  occ. eigenvalues --   -0.34201  -0.33701  -0.32906  -0.32896  -0.32790
 Alpha  occ. eigenvalues --   -0.32102  -0.31588  -0.31232  -0.30318  -0.29790
 Alpha  occ. eigenvalues --   -0.29611  -0.29225  -0.29041  -0.28395  -0.28163
 Alpha  occ. eigenvalues --   -0.27575  -0.27508  -0.26506  -0.26448  -0.25655
 Alpha  occ. eigenvalues --   -0.24742  -0.23228
 Alpha virt. eigenvalues --   -0.12091  -0.10722  -0.07057  -0.06237  -0.05789
 Alpha virt. eigenvalues --   -0.05610  -0.05106  -0.04951  -0.04432  -0.04066
 Alpha virt. eigenvalues --   -0.03745  -0.02856  -0.02333  -0.01654  -0.01478

 Mulliken charges:
               1
     1  N   -0.760373
     2  H    0.414943
     3  H    0.432782
     4  H    0.407719
     5  C   -0.101998
     6  H    0.204822
     7  C    0.648670
     8  C   -0.108901
     9  H    0.170569
    10  O   -0.548996
    11  C   -0.474751
    12  H    0.169755
    13  H    0.187852
    14  H    0.184865
    15  C   -0.475821
    16  H    0.176984
    17  H    0.139927
    18  H    0.202658
    19  N   -0.606476
    20  H    0.379710
    21  C   -0.077434
    22  H    0.189587
    23  C    0.629485
    24  C   -0.067995
    25  H    0.146246
    26  O   -0.560346
    27  C   -0.288600
    28  H    0.140867
    29  H    0.169202
    30  C   -0.465905
    31  H    0.167497
    32  H    0.135737
    33  H    0.169587
    34  C   -0.454472
    35  H    0.167135
    36  H    0.146105
    37  H    0.156860
    38  N   -0.611569
    39  H    0.378103
    40  C   -0.054256
    41  H    0.188594
    42  C    0.638289
    43  C   -0.375482
    44  H    0.176848
    45  H    0.164119
    46  O   -0.549014
    47  C    0.173433
    48  C   -0.179172
    49  H    0.105560
    50  C   -0.193496
    51  H    0.142250
    52  C   -0.125814
    53  H    0.128176
    54  C   -0.142918
    55  H    0.149926
    56  C   -0.129898
    57  H    0.138697
    58  N   -0.616597
    59  H    0.359405
    60  C   -0.067145
    61  H    0.178899
    62  C    0.636579
    63  C   -0.275482
    64  H    0.203769
    65  H    0.146030
    66  O   -0.557212
    67  C   -0.091197
    68  H    0.127705
    69  C   -0.452232
    70  H    0.152457
    71  H    0.120056
    72  H    0.155516
    73  C   -0.461338
    74  H    0.135099
    75  H    0.140272
    76  H    0.185123
    77  N   -0.610290
    78  H    0.347304
    79  C   -0.086132
    80  H    0.213653
    81  C    0.635260
    82  C   -0.283774
    83  H    0.195137
    84  H    0.162984
    85  O   -0.519501
    86  C   -0.365530
    87  H    0.175410
    88  H    0.194302
    89  C    0.590192
    90  O   -0.445944
    91  O   -0.566148
    92  N   -0.627462
    93  H    0.373367
    94  C   -0.081128
    95  H    0.197925
    96  C    0.637212
    97  C   -0.360540
    98  H    0.182622
    99  H    0.175941
   100  O   -0.559305
   101  C    0.556156
   102  N   -0.756166
   103  H    0.330145
   104  H    0.392676
   105  O   -0.520949
   106  N   -0.601991
   107  H    0.372758
   108  C   -0.037077
   109  H    0.179059
   110  C    0.617861
   111  C   -0.384781
   112  H    0.160977
   113  H    0.174811
   114  O   -0.553221
   115  C    0.170554
   116  C   -0.199881
   117  H    0.118539
   118  C   -0.209711
   119  H    0.166979
   120  C   -0.177247
   121  H    0.165001
   122  C   -0.198002
   123  H    0.116576
   124  O   -0.650010
   125  H    0.403607
   126  C    0.344796
   127  N   -0.622204
   128  H    0.359074
   129  C   -0.059741
   130  H    0.160093
   131  C    0.603796
   132  C   -0.264130
   133  H    0.168871
   134  H    0.141489
   135  O   -0.634369
   136  C   -0.272325
   137  H    0.152144
   138  H    0.138337
   139  C   -0.191474
   140  H    0.164627
   141  H    0.227381
   142  N   -0.590279
   143  H    0.343969
   144  N   -0.773390
   145  H    0.342573
   146  H    0.458852
   147  N   -0.762817
   148  H    0.357424
   149  H    0.358369
   150  C    0.775730
   151  O   -0.545816
   152  H    0.417221
 Sum of Mulliken charges =   1.00000

 Dipole moment (field-independent basis, Debye):
    X=            -23.7118    Y=              2.3442    Z=             16.8711  Tot=             29.1955
 Quadrupole moment (field-independent basis, Debye-Ang):
   XX=             97.6975   YY=           -407.6961   ZZ=             21.5189
   XY=           -162.2480   XZ=           -499.4749   YZ=            109.4840

 Normal termination of Gaussian 16 at Fri Aug 12 04:47:46 2022.
