 Gaussian 16, Revision C.01,
 Gaussian 16:  ES64L-G16RevC.01  3-Jul-2019

 -------------------------------------------------------------------
 # B3LYP/6-31G* guess=read geom=check nosymm integral(ultrafinegrid)
 -------------------------------------------------------------------

 ------------------------------------------------------
 Candidate Structure: Conf:981 Charge calc in gas phase
 ------------------------------------------------------
 Structure from the checkpoint file:  "conf-981.chk"
 Charge =  1 Multiplicity = 1

                          Input orientation:
 ---------------------------------------------------------------------
 Center     Atomic      Atomic             Coordinates (Angstroms)
 Number     Number       Type             X           Y           Z
 ---------------------------------------------------------------------
      1          7           0       -6.525727   -2.888914    6.634538
      2          1           0       -7.483709   -3.145282    6.883874
      3          1           0       -6.261238   -3.320599    5.689844
      4          1           0       -5.895923   -3.225483    7.367829
      5          6           0       -6.348396   -1.410665    6.339793
      6          1           0       -7.316089   -0.927635    6.500237
      7          6           0       -5.999447   -1.416784    4.821915
      8          6           0       -5.277271   -0.761150    7.245925
      9          1           0       -5.203541    0.274875    6.890824
     10          8           0       -5.853609   -2.523940    4.273967
     11          6           0       -5.735911   -0.717809    8.712532
     12          1           0       -5.812771   -1.720054    9.156123
     13          1           0       -5.010264   -0.164121    9.315311
     14          1           0       -6.707311   -0.222969    8.821824
     15          6           0       -3.891125   -1.408756    7.091266
     16          1           0       -3.860172   -2.439246    7.472206
     17          1           0       -3.552029   -1.423252    6.050781
     18          1           0       -3.156257   -0.845357    7.673102
     19          7           0       -5.883854   -0.236753    4.234315
     20          1           0       -5.955929    0.648383    4.743102
     21          6           0       -5.474941   -0.022877    2.841000
     22          1           0       -4.684083   -0.741211    2.607567
     23          6           0       -4.908247    1.416208    2.851239
     24          6           0       -6.667198   -0.236368    1.857052
     25          1           0       -7.069469   -1.222956    2.126077
     26          8           0       -5.203765    2.179277    3.781634
     27          6           0       -6.236362   -0.317960    0.376517
     28          1           0       -5.842832    0.649806    0.040509
     29          1           0       -7.152122   -0.478845   -0.206192
     30          6           0       -7.772785    0.810960    2.054440
     31          1           0       -7.438719    1.811854    1.758682
     32          1           0       -8.106826    0.866712    3.096276
     33          1           0       -8.643206    0.557827    1.440522
     34          6           0       -5.240651   -1.435269    0.038631
     35          1           0       -5.100730   -1.504708   -1.044586
     36          1           0       -4.247360   -1.269038    0.473690
     37          1           0       -5.597868   -2.409268    0.393701
     38          7           0       -4.110319    1.749634    1.829853
     39          1           0       -3.934349    1.121795    1.047869
     40          6           0       -3.563784    3.086660    1.636938
     41          1           0       -4.364371    3.819251    1.789969
     42          6           0       -3.098037    3.118221    0.166523
     43          6           0       -2.406093    3.399367    2.638988
     44          1           0       -1.478306    2.956423    2.264182
     45          1           0       -2.665527    2.896664    3.575495
     46          8           0       -3.188473    2.113809   -0.541381
     47          6           0       -2.226719    4.880520    2.908633
     48          6           0       -1.137660    5.595315    2.389654
     49          1           0       -0.387357    5.090734    1.786661
     50          6           0       -3.176066    5.564198    3.685872
     51          1           0       -4.019559    5.014557    4.099231
     52          6           0       -1.007301    6.966293    2.634570
     53          1           0       -0.161371    7.497008    2.208728
     54          6           0       -3.040351    6.928598    3.936414
     55          1           0       -3.779892    7.442372    4.544959
     56          6           0       -1.955103    7.634811    3.408511
     57          1           0       -1.851775    8.698866    3.603043
     58          7           0       -2.594300    4.295103   -0.281182
     59          1           0       -2.361548    4.997191    0.414939
     60          6           0       -1.818709    4.322838   -1.511441
     61          1           0       -2.407261    3.813983   -2.280744
     62          6           0       -0.510093    3.524511   -1.307176
     63          6           0       -1.511790    5.774360   -1.937336
     64          1           0       -0.932612    5.737553   -2.870640
     65          1           0       -0.845696    6.224602   -1.190227
     66          8           0       -0.096085    3.213413   -0.188661
     67          6           0       -2.746665    6.671718   -2.158398
     68          1           0       -3.320513    6.698300   -1.221598
     69          6           0       -2.289746    8.105475   -2.467722
     70          1           0       -1.715690    8.143350   -3.402804
     71          1           0       -1.654642    8.503544   -1.667944
     72          1           0       -3.149399    8.775365   -2.580140
     73          6           0       -3.671902    6.141237   -3.262977
     74          1           0       -3.138252    6.062090   -4.219758
     75          1           0       -4.519712    6.818217   -3.415758
     76          1           0       -4.083426    5.154623   -3.022061
     77          7           0        0.166150    3.195183   -2.438175
     78          1           0       -0.199839    3.465344   -3.341483
     79          6           0        1.372361    2.362983   -2.395383
     80          1           0        1.234979    1.687203   -1.543560
     81          6           0        2.626553    3.221493   -2.097401
     82          6           0        1.537090    1.550933   -3.684358
     83          1           0        1.913043    2.192779   -4.486007
     84          1           0        0.550676    1.180428   -3.987940
     85          8           0        3.517140    3.407506   -2.941444
     86          6           0        2.491339    0.362613   -3.497394
     87          1           0        3.433447    0.674424   -3.022820
     88          1           0        2.052700   -0.403756   -2.850347
     89          6           0        2.894194   -0.271425   -4.809882
     90          8           0        2.997281    0.305041   -5.875030
     91          8           0        3.180095   -1.582840   -4.661187
     92          7           0        2.696843    3.720344   -0.851446
     93          1           0        1.898795    3.569890   -0.233957
     94          6           0        3.861774    4.466121   -0.365825
     95          1           0        4.296407    4.967948   -1.236737
     96          6           0        4.916758    3.474948    0.217889
     97          6           0        3.462123    5.492433    0.703940
     98          1           0        2.999514    4.977816    1.550166
     99          1           0        4.378170    5.954692    1.082309
    100          8           0        5.244248    3.515525    1.399461
    101          6           0        2.475975    6.523562    0.173798
    102          7           0        3.027049    7.669797   -0.314073
    103          1           0        2.408886    8.398512   -0.644116
    104          1           0        4.002707    7.894807   -0.188227
    105          8           0        1.263366    6.318998    0.147535
    106          7           0        5.386019    2.590569   -0.689696
    107          1           0        5.041878    2.611867   -1.645860
    108          6           0        6.174667    1.409939   -0.357258
    109          1           0        7.071324    1.714337    0.190789
    110          6           0        6.570652    0.748462   -1.688753
    111          6           0        5.351056    0.425570    0.532953
    112          1           0        5.064538    0.990942    1.426427
    113          1           0        4.430468    0.179600   -0.010464
    114          8           0        5.777779    0.862371   -2.672017
    115          6           0        6.085098   -0.841417    0.906249
    116          6           0        5.690105   -2.083544    0.391501
    117          1           0        4.818639   -2.139397   -0.257959
    118          6           0        7.211586   -0.806710    1.738704
    119          1           0        7.543408    0.138584    2.162534
    120          6           0        6.395732   -3.249238    0.677220
    121          1           0        6.093451   -4.208076    0.267708
    122          6           0        7.937819   -1.960132    2.021532
    123          1           0        8.826999   -1.903917    2.645391
    124          8           0        8.209529   -4.352700    1.717255
    125          1           0        9.064431   -4.145055    2.125991
    126          6           0        7.537165   -3.186776    1.482213
    127          7           0        7.699912    0.077318   -1.666682
    128          1           0        8.344937    0.064008   -0.841307
    129          6           0        8.327710   -0.837604   -2.622940
    130          1           0        7.807492   -1.804553   -2.560072
    131          6           0        9.791636   -1.088641   -2.016979
    132          6           0        8.369887   -0.376414   -4.079745
    133          1           0        8.412495    0.720334   -4.106824
    134          1           0        9.322774   -0.746203   -4.471953
    135          8           0       10.584489   -1.655346   -2.781362
    136          6           0        7.210379   -0.902870   -4.955640
    137          1           0        7.506583   -1.836694   -5.447376
    138          1           0        6.331001   -1.133658   -4.342636
    139          6           0        6.780364    0.088211   -6.036873
    140          1           0        7.659230    0.415302   -6.610412
    141          1           0        6.060992   -0.366615   -6.732095
    142          7           0        6.147415    1.249275   -5.392137
    143          1           0        6.052941    1.197816   -4.357731
    144          7           0        5.844567    2.429453   -7.376776
    145          1           0        5.147148    2.912090   -7.924752
    146          1           0        6.360070    1.714847   -7.868478
    147          7           0        4.884987    3.194969   -5.416853
    148          1           0        4.662434    4.059404   -5.885620
    149          1           0        4.507222    3.065648   -4.477671
    150          6           0        5.617699    2.265998   -6.046343
    151          8           0        9.915037   -0.689247   -0.825258
    152          1           0        3.474736   -1.909392   -5.532496
 ---------------------------------------------------------------------

 SCF Done:  E(RB3LYP) =  -3586.60522516     A.U. after    1 cycles

 Alpha  occ. eigenvalues --  -19.27088 -19.25855 -19.21988 -19.20393 -19.20387
 Alpha  occ. eigenvalues --  -19.20319 -19.20247 -19.19319 -19.18525 -19.16350
 Alpha  occ. eigenvalues --  -19.16024 -19.05736 -19.04689 -14.59832 -14.49431
 Alpha  occ. eigenvalues --  -14.45671 -14.45336 -14.44926 -14.44147 -14.43664
 Alpha  occ. eigenvalues --  -14.43639 -14.43539 -14.42988 -14.39845 -14.37206
 Alpha  occ. eigenvalues --  -10.43671 -10.40980 -10.40758 -10.38919 -10.38539
 Alpha  occ. eigenvalues --  -10.37163 -10.37045 -10.36942 -10.36169 -10.34887
 Alpha  occ. eigenvalues --  -10.34231 -10.33591 -10.32123 -10.31976 -10.31620
 Alpha  occ. eigenvalues --  -10.31179 -10.31141 -10.31073 -10.30507 -10.29166
 Alpha  occ. eigenvalues --  -10.29092 -10.27034 -10.26786 -10.26743 -10.26573
 Alpha  occ. eigenvalues --  -10.26511 -10.26292 -10.26288 -10.26234 -10.26057
 Alpha  occ. eigenvalues --  -10.25935 -10.25700 -10.25556 -10.25036 -10.24921
 Alpha  occ. eigenvalues --  -10.24800 -10.24650 -10.24460 -10.23762 -10.23689
 Alpha  occ. eigenvalues --  -10.23507 -10.22667 -10.22435 -10.21656 -10.21217
 Alpha  occ. eigenvalues --  -10.21135 -10.20950 -10.20629 -10.20397 -10.19751
 Alpha  occ. eigenvalues --   -1.19417  -1.16739  -1.14089  -1.13562  -1.12680
 Alpha  occ. eigenvalues --   -1.11997  -1.11373  -1.10083  -1.09630  -1.08154
 Alpha  occ. eigenvalues --   -1.07650  -1.07368  -1.06234  -1.06093  -1.01988
 Alpha  occ. eigenvalues --   -1.01115  -1.00533  -0.99946  -0.98952  -0.98763
 Alpha  occ. eigenvalues --   -0.97930  -0.97493  -0.96454  -0.95588  -0.93935
 Alpha  occ. eigenvalues --   -0.91751  -0.90940  -0.90190  -0.88627  -0.87460
 Alpha  occ. eigenvalues --   -0.87314  -0.86907  -0.86162  -0.85252  -0.83682
 Alpha  occ. eigenvalues --   -0.82943  -0.82630  -0.82206  -0.81498  -0.80967
 Alpha  occ. eigenvalues --   -0.80202  -0.79999  -0.78966  -0.77329  -0.76594
 Alpha  occ. eigenvalues --   -0.76195  -0.74611  -0.74431  -0.74151  -0.74116
 Alpha  occ. eigenvalues --   -0.73903  -0.73279  -0.72556  -0.72259  -0.71487
 Alpha  occ. eigenvalues --   -0.71155  -0.70380  -0.69853  -0.69213  -0.68329
 Alpha  occ. eigenvalues --   -0.67602  -0.66921  -0.66773  -0.66283  -0.66202
 Alpha  occ. eigenvalues --   -0.65937  -0.65695  -0.65567  -0.64741  -0.64517
 Alpha  occ. eigenvalues --   -0.64174  -0.64030  -0.63287  -0.62714  -0.62481
 Alpha  occ. eigenvalues --   -0.62411  -0.61663  -0.60878  -0.60367  -0.60110
 Alpha  occ. eigenvalues --   -0.59942  -0.59495  -0.58912  -0.58583  -0.58490
 Alpha  occ. eigenvalues --   -0.58326  -0.57902  -0.57717  -0.57453  -0.57053
 Alpha  occ. eigenvalues --   -0.57013  -0.56116  -0.56093  -0.55892  -0.55461
 Alpha  occ. eigenvalues --   -0.54983  -0.54852  -0.54459  -0.54179  -0.53955
 Alpha  occ. eigenvalues --   -0.53476  -0.53288  -0.53068  -0.52634  -0.52575
 Alpha  occ. eigenvalues --   -0.52482  -0.52193  -0.51849  -0.51783  -0.51640
 Alpha  occ. eigenvalues --   -0.51474  -0.51299  -0.50895  -0.50713  -0.50639
 Alpha  occ. eigenvalues --   -0.50518  -0.50216  -0.49816  -0.49411  -0.49176
 Alpha  occ. eigenvalues --   -0.48781  -0.48727  -0.48658  -0.48522  -0.48484
 Alpha  occ. eigenvalues --   -0.48347  -0.48039  -0.47964  -0.47906  -0.47792
 Alpha  occ. eigenvalues --   -0.47745  -0.47712  -0.47471  -0.47022  -0.46804
 Alpha  occ. eigenvalues --   -0.46524  -0.46208  -0.46144  -0.46048  -0.45921
 Alpha  occ. eigenvalues --   -0.45473  -0.45325  -0.45261  -0.44995  -0.44825
 Alpha  occ. eigenvalues --   -0.44766  -0.44530  -0.44378  -0.44187  -0.44086
 Alpha  occ. eigenvalues --   -0.43793  -0.43382  -0.43291  -0.42970  -0.42769
 Alpha  occ. eigenvalues --   -0.42559  -0.42485  -0.42280  -0.42206  -0.42003
 Alpha  occ. eigenvalues --   -0.41629  -0.41550  -0.41472  -0.41177  -0.40824
 Alpha  occ. eigenvalues --   -0.40594  -0.40131  -0.40008  -0.39841  -0.39473
 Alpha  occ. eigenvalues --   -0.39204  -0.39019  -0.38761  -0.38555  -0.38156
 Alpha  occ. eigenvalues --   -0.37910  -0.37630  -0.36812  -0.36748  -0.36207
 Alpha  occ. eigenvalues --   -0.36011  -0.35710  -0.35552  -0.35478  -0.35016
 Alpha  occ. eigenvalues --   -0.34982  -0.34745  -0.34433  -0.34208  -0.34028
 Alpha  occ. eigenvalues --   -0.33834  -0.33389  -0.33135  -0.33016  -0.32603
 Alpha  occ. eigenvalues --   -0.32009  -0.30950  -0.30592  -0.30458  -0.29592
 Alpha  occ. eigenvalues --   -0.29294  -0.28030  -0.26955  -0.23421  -0.20789
 Alpha  occ. eigenvalues --   -0.20697  -0.19117
 Alpha virt. eigenvalues --   -0.12526  -0.11426  -0.08053  -0.07286  -0.07044
 Alpha virt. eigenvalues --   -0.06770  -0.06295  -0.05917  -0.05833  -0.05191
 Alpha virt. eigenvalues --   -0.04922  -0.04705  -0.04397  -0.02822  -0.02541

 Mulliken charges:
               1
     1  N   -0.764648
     2  H    0.415393
     3  H    0.436605
     4  H    0.409607
     5  C   -0.099530
     6  H    0.214122
     7  C    0.654975
     8  C   -0.125841
     9  H    0.190617
    10  O   -0.551761
    11  C   -0.461921
    12  H    0.140165
    13  H    0.199902
    14  H    0.172306
    15  C   -0.477676
    16  H    0.143614
    17  H    0.186653
    18  H    0.201369
    19  N   -0.612350
    20  H    0.376927
    21  C   -0.071278
    22  H    0.190318
    23  C    0.637348
    24  C   -0.079342
    25  H    0.151924
    26  O   -0.561917
    27  C   -0.279785
    28  H    0.155844
    29  H    0.155762
    30  C   -0.461924
    31  H    0.166458
    32  H    0.137092
    33  H    0.165676
    34  C   -0.460828
    35  H    0.170835
    36  H    0.142831
    37  H    0.156277
    38  N   -0.633760
    39  H    0.378820
    40  C   -0.050705
    41  H    0.193151
    42  C    0.628968
    43  C   -0.363698
    44  H    0.187316
    45  H    0.172942
    46  O   -0.546276
    47  C    0.127119
    48  C   -0.236405
    49  H    0.180993
    50  C   -0.184434
    51  H    0.143466
    52  C   -0.131607
    53  H    0.147551
    54  C   -0.128319
    55  H    0.138131
    56  C   -0.128497
    57  H    0.139206
    58  N   -0.607205
    59  H    0.362936
    60  C   -0.070181
    61  H    0.179994
    62  C    0.667813
    63  C   -0.311635
    64  H    0.129511
    65  H    0.196081
    66  O   -0.550584
    67  C   -0.067308
    68  H    0.136838
    69  C   -0.445145
    70  H    0.140340
    71  H    0.148150
    72  H    0.153047
    73  C   -0.454452
    74  H    0.137288
    75  H    0.156366
    76  H    0.149567
    77  N   -0.616513
    78  H    0.339951
    79  C   -0.047322
    80  H    0.191046
    81  C    0.637730
    82  C   -0.291569
    83  H    0.173447
    84  H    0.154398
    85  O   -0.576006
    86  C   -0.396077
    87  H    0.237450
    88  H    0.175794
    89  C    0.594907
    90  O   -0.489011
    91  O   -0.555601
    92  N   -0.603535
    93  H    0.389976
    94  C   -0.070660
    95  H    0.184995
    96  C    0.639004
    97  C   -0.375876
    98  H    0.195718
    99  H    0.178615
   100  O   -0.525291
   101  C    0.593986
   102  N   -0.736607
   103  H    0.346732
   104  H    0.349403
   105  O   -0.515467
   106  N   -0.650586
   107  H    0.372266
   108  C   -0.016524
   109  H    0.183693
   110  C    0.611454
   111  C   -0.364455
   112  H    0.180240
   113  H    0.128441
   114  O   -0.636620
   115  C    0.169138
   116  C   -0.191936
   117  H    0.111464
   118  C   -0.195089
   119  H    0.135296
   120  C   -0.157269
   121  H    0.134024
   122  C   -0.160982
   123  H    0.131731
   124  O   -0.644834
   125  H    0.414259
   126  C    0.356097
   127  N   -0.599049
   128  H    0.384246
   129  C   -0.064899
   130  H    0.155142
   131  C    0.583832
   132  C   -0.283088
   133  H    0.127270
   134  H    0.196481
   135  O   -0.575687
   136  C   -0.310100
   137  H    0.159209
   138  H    0.161137
   139  C   -0.160984
   140  H    0.167273
   141  H    0.154108
   142  N   -0.628390
   143  H    0.435390
   144  N   -0.764045
   145  H    0.360124
   146  H    0.374047
   147  N   -0.805636
   148  H    0.350601
   149  H    0.432903
   150  C    0.809221
   151  O   -0.614789
   152  H    0.413060
 Sum of Mulliken charges =   1.00000

 Dipole moment (field-independent basis, Debye):
    X=            -36.3043    Y=              8.5366    Z=             12.2359  Tot=             39.2504
 Quadrupole moment (field-independent basis, Debye-Ang):
   XX=           -450.9806   YY=           -326.1334   ZZ=           -150.1718
   XY=            114.8878   XZ=           -193.3945   YZ=           -105.5413

 Normal termination of Gaussian 16 at Fri Aug 12 04:45:45 2022.
