 Gaussian 16, Revision C.01,
 Gaussian 16:  ES64L-G16RevC.01  3-Jul-2019

 -------------------------------------------------------------------
 # B3LYP/6-31G* guess=read geom=check nosymm integral(ultrafinegrid)
 -------------------------------------------------------------------

 ------------------------------------------------------
 Candidate Structure: Conf:535 Charge calc in gas phase
 ------------------------------------------------------
 Structure from the checkpoint file:  "conf-535.chk"
 Charge =  1 Multiplicity = 1

                          Input orientation:
 ---------------------------------------------------------------------
 Center     Atomic      Atomic             Coordinates (Angstroms)
 Number     Number       Type             X           Y           Z
 ---------------------------------------------------------------------
      1          7           0       -8.849089   -3.765379    7.030058
      2          1           0       -9.462457   -4.543784    6.771720
      3          1           0       -7.853502   -4.019797    6.766526
      4          1           0       -8.943931   -3.595222    8.034681
      5          6           0       -9.082505   -2.515469    6.196183
      6          1           0      -10.092585   -2.569715    5.779969
      7          6           0       -7.993544   -2.671253    5.097079
      8          6           0       -8.930491   -1.252310    7.084658
      9          1           0       -7.919028   -1.282413    7.514719
     10          8           0       -7.035783   -3.414123    5.356234
     11          6           0       -9.047590    0.031874    6.246030
     12          1           0      -10.008851    0.072483    5.715087
     13          1           0       -9.016796    0.898311    6.913267
     14          1           0       -8.222002    0.133882    5.536477
     15          6           0       -9.968818   -1.245280    8.221714
     16          1           0      -10.991162   -1.227977    7.825689
     17          1           0       -9.891613   -2.094950    8.914995
     18          1           0       -9.834155   -0.347696    8.831802
     19          7           0       -8.177761   -2.040152    3.936610
     20          1           0       -8.916979   -1.350808    3.880645
     21          6           0       -7.105097   -1.938673    2.937497
     22          1           0       -6.696662   -2.945310    2.819834
     23          6           0       -6.004762   -1.005625    3.505120
     24          6           0       -7.708367   -1.459995    1.585247
     25          1           0       -8.594532   -2.093513    1.428584
     26          8           0       -6.267019   -0.168286    4.371404
     27          6           0       -6.768440   -1.699435    0.382862
     28          1           0       -5.854606   -1.102724    0.491651
     29          1           0       -7.280716   -1.299094   -0.500779
     30          6           0       -8.164165    0.008826    1.630706
     31          1           0       -7.314368    0.688456    1.751597
     32          1           0       -8.865343    0.222452    2.447834
     33          1           0       -8.673912    0.268775    0.697751
     34          6           0       -6.405287   -3.164941    0.113800
     35          1           0       -5.831773   -3.247845   -0.814405
     36          1           0       -5.786495   -3.605143    0.905134
     37          1           0       -7.302886   -3.786581    0.008152
     38          7           0       -4.780997   -1.184834    2.980534
     39          1           0       -4.605524   -1.841847    2.224780
     40          6           0       -3.640277   -0.337679    3.291400
     41          1           0       -3.996282    0.695881    3.377620
     42          6           0       -2.701943   -0.441950    2.069097
     43          6           0       -2.970193   -0.712181    4.645470
     44          1           0       -3.747295   -0.588782    5.407646
     45          1           0       -2.200919    0.037790    4.865746
     46          8           0       -2.954207   -1.226181    1.151712
     47          6           0       -2.369201   -2.100418    4.713754
     48          6           0       -3.173701   -3.222019    4.964832
     49          1           0       -4.241429   -3.095880    5.126925
     50          6           0       -0.990632   -2.289696    4.540125
     51          1           0       -0.351916   -1.426432    4.364824
     52          6           0       -2.614528   -4.499254    5.022064
     53          1           0       -3.251418   -5.358397    5.218730
     54          6           0       -0.426196   -3.565703    4.605574
     55          1           0        0.646789   -3.694104    4.487524
     56          6           0       -1.241319   -4.674186    4.841795
     57          1           0       -0.804690   -5.667713    4.896629
     58          7           0       -1.646771    0.401040    2.076437
     59          1           0       -1.383896    0.871060    2.938175
     60          6           0       -0.562408    0.341311    1.103992
     61          1           0       -0.628828   -0.620611    0.587541
     62          6           0        0.749667    0.413004    1.910479
     63          6           0       -0.621481    1.504699    0.083503
     64          1           0        0.285219    1.472847   -0.536884
     65          1           0       -0.573926    2.444577    0.650282
     66          8           0        0.751527    0.783486    3.086637
     67          6           0       -1.855455    1.524664   -0.839517
     68          1           0       -2.752098    1.500280   -0.204317
     69          6           0       -1.878483    2.837751   -1.637574
     70          1           0       -0.998914    2.918412   -2.289207
     71          1           0       -1.884731    3.712271   -0.976128
     72          1           0       -2.767926    2.892794   -2.275462
     73          6           0       -1.904382    0.310729   -1.779511
     74          1           0       -0.997960    0.255145   -2.397196
     75          1           0       -2.760062    0.387849   -2.460485
     76          1           0       -2.011114   -0.627126   -1.226213
     77          7           0        1.867857    0.058733    1.234796
     78          1           0        1.831422   -0.091702    0.230170
     79          6           0        3.212835    0.316757    1.732008
     80          1           0        3.140336    1.075573    2.518208
     81          6           0        4.024162    0.852191    0.536855
     82          6           0        3.893340   -0.948606    2.303405
     83          1           0        4.913535   -0.696752    2.610137
     84          1           0        3.974625   -1.692501    1.500548
     85          8           0        3.649083    0.630576   -0.624049
     86          6           0        3.124739   -1.540939    3.493319
     87          1           0        3.073412   -0.802997    4.304854
     88          1           0        2.097562   -1.783393    3.215628
     89          6           0        3.737383   -2.804081    4.059148
     90          8           0        3.120079   -3.794953    4.388731
     91          8           0        5.081292   -2.711985    4.190801
     92          7           0        5.147187    1.519562    0.844776
     93          1           0        5.436423    1.678543    1.813483
     94          6           0        6.025258    2.125411   -0.160574
     95          1           0        5.385484    2.513857   -0.961609
     96          6           0        7.006098    1.099658   -0.787863
     97          6           0        6.811941    3.284804    0.474205
     98          1           0        7.498073    3.694206   -0.269334
     99          1           0        6.105665    4.072772    0.757708
    100          8           0        8.220704    1.193565   -0.617322
    101          6           0        7.542833    2.869023    1.751438
    102          7           0        8.889817    3.031526    1.759819
    103          1           0        9.375112    2.644156    2.560445
    104          1           0        9.374355    2.970070    0.873499
    105          8           0        6.911936    2.467173    2.734222
    106          7           0        6.413279    0.137163   -1.534115
    107          1           0        5.398104    0.134921   -1.621915
    108          6           0        7.170390   -0.912831   -2.203951
    109          1           0        8.216544   -0.603948   -2.167772
    110          6           0        6.708653   -1.026124   -3.659256
    111          6           0        6.990558   -2.271780   -1.463762
    112          1           0        7.540553   -2.190557   -0.516598
    113          1           0        5.930206   -2.365467   -1.202699
    114          8           0        5.499910   -1.290137   -3.897812
    115          6           0        7.408135   -3.507779   -2.242405
    116          6           0        6.599847   -4.654349   -2.228519
    117          1           0        5.699339   -4.665806   -1.616939
    118          6           0        8.572774   -3.547495   -3.023478
    119          1           0        9.240434   -2.695568   -3.085778
    120          6           0        6.916637   -5.787269   -2.982368
    121          1           0        6.299935   -6.681214   -2.943646
    122          6           0        8.892448   -4.656849   -3.802714
    123          1           0        9.770864   -4.614203   -4.442338
    124          8           0        8.307682   -6.892427   -4.547785
    125          1           0        9.136155   -6.760389   -5.036487
    126          6           0        8.062511   -5.782091   -3.789388
    127          7           0        7.647752   -0.879090   -4.588429
    128          1           0        8.650175   -0.847714   -4.342070
    129          6           0        7.553424   -1.423478   -5.939477
    130          1           0        6.922956   -2.309237   -5.881375
    131          6           0        8.983965   -1.975818   -6.318965
    132          6           0        6.982031   -0.442445   -6.987966
    133          1           0        6.315812    0.282870   -6.498523
    134          1           0        7.804272    0.135183   -7.422917
    135          8           0        9.019702   -2.569623   -7.413361
    136          6           0        6.228433   -1.175547   -8.114760
    137          1           0        6.200819   -0.558480   -9.021652
    138          1           0        6.807609   -2.073360   -8.361630
    139          6           0        4.763157   -1.498912   -7.763105
    140          1           0        4.183818   -0.572707   -7.696161
    141          1           0        4.279953   -2.106304   -8.537182
    142          7           0        4.583740   -2.165365   -6.462561
    143          1           0        4.745236   -1.582610   -5.628471
    144          7           0        4.951349   -4.344020   -7.236955
    145          1           0        5.217838   -5.291481   -7.007600
    146          1           0        5.290428   -4.008693   -8.127703
    147          7           0        4.793061   -3.891285   -4.952099
    148          1           0        5.296930   -4.741717   -4.721405
    149          1           0        4.900992   -3.155667   -4.248842
    150          6           0        4.803032   -3.457593   -6.227761
    151          8           0        9.876302   -1.775227   -5.451218
    152          1           0        5.379926   -3.555082    4.582093
 ---------------------------------------------------------------------

 SCF Done:  E(RB3LYP) =  -3586.61241173     A.U. after    3 cycles

 Alpha  occ. eigenvalues --  -19.27208 -19.25059 -19.22024 -19.20623 -19.19525
 Alpha  occ. eigenvalues --  -19.19425 -19.19078 -19.19009 -19.17347 -19.17229
 Alpha  occ. eigenvalues --  -19.16932 -19.07967 -19.07007 -14.60211 -14.49981
 Alpha  occ. eigenvalues --  -14.45568 -14.44356 -14.43864 -14.43471 -14.43073
 Alpha  occ. eigenvalues --  -14.42814 -14.42536 -14.40777 -14.40497 -14.39002
 Alpha  occ. eigenvalues --  -10.43828 -10.40890 -10.40776 -10.37826 -10.37621
 Alpha  occ. eigenvalues --  -10.36515 -10.35936 -10.35865 -10.34794 -10.34442
 Alpha  occ. eigenvalues --  -10.34068 -10.33960 -10.33393 -10.31363 -10.31290
 Alpha  occ. eigenvalues --  -10.30337 -10.30147 -10.30133 -10.29695 -10.29277
 Alpha  occ. eigenvalues --  -10.29169 -10.29126 -10.27995 -10.26940 -10.26734
 Alpha  occ. eigenvalues --  -10.26300 -10.26034 -10.25929 -10.25746 -10.25724
 Alpha  occ. eigenvalues --  -10.25472 -10.25139 -10.25091 -10.24652 -10.24217
 Alpha  occ. eigenvalues --  -10.24156 -10.24125 -10.23814 -10.23795 -10.23779
 Alpha  occ. eigenvalues --  -10.23614 -10.23409 -10.23386 -10.23214 -10.22886
 Alpha  occ. eigenvalues --  -10.22808 -10.22639 -10.22554 -10.22288 -10.21813
 Alpha  occ. eigenvalues --   -1.19642  -1.15922  -1.14172  -1.12562  -1.11445
 Alpha  occ. eigenvalues --   -1.10975  -1.10299  -1.10038  -1.09645  -1.09016
 Alpha  occ. eigenvalues --   -1.08543  -1.07637  -1.06792  -1.06371  -1.01019
 Alpha  occ. eigenvalues --   -1.00989  -0.99820  -0.99496  -0.99203  -0.98885
 Alpha  occ. eigenvalues --   -0.97628  -0.97251  -0.95620  -0.95589  -0.95213
 Alpha  occ. eigenvalues --   -0.92265  -0.91283  -0.90614  -0.89624  -0.87750
 Alpha  occ. eigenvalues --   -0.86727  -0.86550  -0.85479  -0.84591  -0.83832
 Alpha  occ. eigenvalues --   -0.82840  -0.82585  -0.81891  -0.81219  -0.80802
 Alpha  occ. eigenvalues --   -0.79429  -0.79312  -0.78896  -0.78696  -0.78252
 Alpha  occ. eigenvalues --   -0.77089  -0.75131  -0.74319  -0.73515  -0.73468
 Alpha  occ. eigenvalues --   -0.73371  -0.72836  -0.72606  -0.72096  -0.71335
 Alpha  occ. eigenvalues --   -0.70664  -0.70120  -0.70020  -0.68884  -0.67534
 Alpha  occ. eigenvalues --   -0.67107  -0.66626  -0.66446  -0.66217  -0.66018
 Alpha  occ. eigenvalues --   -0.65678  -0.65500  -0.65373  -0.64892  -0.64655
 Alpha  occ. eigenvalues --   -0.63846  -0.63761  -0.63404  -0.63081  -0.62834
 Alpha  occ. eigenvalues --   -0.62472  -0.61584  -0.61149  -0.60987  -0.60283
 Alpha  occ. eigenvalues --   -0.59301  -0.59197  -0.58476  -0.58147  -0.58007
 Alpha  occ. eigenvalues --   -0.57800  -0.57277  -0.56848  -0.56603  -0.56479
 Alpha  occ. eigenvalues --   -0.56036  -0.55739  -0.55321  -0.54994  -0.54735
 Alpha  occ. eigenvalues --   -0.54597  -0.54158  -0.53727  -0.53444  -0.53378
 Alpha  occ. eigenvalues --   -0.53188  -0.53033  -0.52447  -0.52405  -0.52242
 Alpha  occ. eigenvalues --   -0.52078  -0.51945  -0.51755  -0.51653  -0.51585
 Alpha  occ. eigenvalues --   -0.51188  -0.51106  -0.50968  -0.50805  -0.50743
 Alpha  occ. eigenvalues --   -0.50551  -0.50171  -0.49980  -0.49785  -0.49371
 Alpha  occ. eigenvalues --   -0.49192  -0.48899  -0.48723  -0.48653  -0.48620
 Alpha  occ. eigenvalues --   -0.48238  -0.47843  -0.47648  -0.47542  -0.47438
 Alpha  occ. eigenvalues --   -0.47159  -0.46996  -0.46815  -0.46743  -0.46664
 Alpha  occ. eigenvalues --   -0.46519  -0.46488  -0.46211  -0.45906  -0.45637
 Alpha  occ. eigenvalues --   -0.45395  -0.45306  -0.45188  -0.44927  -0.44801
 Alpha  occ. eigenvalues --   -0.44714  -0.44458  -0.44388  -0.44332  -0.44234
 Alpha  occ. eigenvalues --   -0.43979  -0.43515  -0.43443  -0.43167  -0.42966
 Alpha  occ. eigenvalues --   -0.42551  -0.42414  -0.42162  -0.41950  -0.41714
 Alpha  occ. eigenvalues --   -0.41614  -0.41549  -0.41508  -0.41457  -0.41253
 Alpha  occ. eigenvalues --   -0.41085  -0.40741  -0.40229  -0.39697  -0.39631
 Alpha  occ. eigenvalues --   -0.39384  -0.39071  -0.38878  -0.38794  -0.38714
 Alpha  occ. eigenvalues --   -0.38085  -0.38033  -0.37762  -0.37754  -0.37169
 Alpha  occ. eigenvalues --   -0.37138  -0.36923  -0.36350  -0.35145  -0.34588
 Alpha  occ. eigenvalues --   -0.34562  -0.34452  -0.33872  -0.33480  -0.33318
 Alpha  occ. eigenvalues --   -0.33156  -0.32931  -0.32541  -0.32092  -0.32027
 Alpha  occ. eigenvalues --   -0.31761  -0.30908  -0.30520  -0.29963  -0.29759
 Alpha  occ. eigenvalues --   -0.29612  -0.29519  -0.29133  -0.26053  -0.23101
 Alpha  occ. eigenvalues --   -0.22727  -0.21274
 Alpha virt. eigenvalues --   -0.13014  -0.11208  -0.07089  -0.06700  -0.06219
 Alpha virt. eigenvalues --   -0.05831  -0.05695  -0.05553  -0.05508  -0.05120
 Alpha virt. eigenvalues --   -0.04821  -0.04426  -0.04143  -0.03609  -0.03367

 Mulliken charges:
               1
     1  N   -0.757968
     2  H    0.415776
     3  H    0.434158
     4  H    0.410880
     5  C   -0.113920
     6  H    0.201679
     7  C    0.670113
     8  C   -0.101997
     9  H    0.177128
    10  O   -0.538295
    11  C   -0.510744
    12  H    0.145097
    13  H    0.186728
    14  H    0.230785
    15  C   -0.473398
    16  H    0.174613
    17  H    0.136285
    18  H    0.203530
    19  N   -0.591584
    20  H    0.356692
    21  C   -0.076512
    22  H    0.193660
    23  C    0.648694
    24  C   -0.105371
    25  H    0.142441
    26  O   -0.548967
    27  C   -0.278690
    28  H    0.164657
    29  H    0.155229
    30  C   -0.468754
    31  H    0.177915
    32  H    0.130762
    33  H    0.171846
    34  C   -0.462080
    35  H    0.175390
    36  H    0.148604
    37  H    0.148458
    38  N   -0.608924
    39  H    0.374002
    40  C   -0.051049
    41  H    0.185137
    42  C    0.631327
    43  C   -0.378401
    44  H    0.175640
    45  H    0.161647
    46  O   -0.542101
    47  C    0.170367
    48  C   -0.198409
    49  H    0.127015
    50  C   -0.212956
    51  H    0.147106
    52  C   -0.130145
    53  H    0.119508
    54  C   -0.150591
    55  H    0.179661
    56  C   -0.134166
    57  H    0.137624
    58  N   -0.606077
    59  H    0.356647
    60  C   -0.080494
    61  H    0.191097
    62  C    0.625814
    63  C   -0.259571
    64  H    0.146676
    65  H    0.144277
    66  O   -0.546287
    67  C   -0.065907
    68  H    0.128795
    69  C   -0.445566
    70  H    0.146558
    71  H    0.143247
    72  H    0.146548
    73  C   -0.464625
    74  H    0.137203
    75  H    0.143361
    76  H    0.172206
    77  N   -0.603671
    78  H    0.358670
    79  C   -0.070281
    80  H    0.190611
    81  C    0.628011
    82  C   -0.270552
    83  H    0.184376
    84  H    0.155976
    85  O   -0.564618
    86  C   -0.353412
    87  H    0.194966
    88  H    0.187832
    89  C    0.575636
    90  O   -0.456507
    91  O   -0.554711
    92  N   -0.622889
    93  H    0.387537
    94  C   -0.078537
    95  H    0.188762
    96  C    0.632117
    97  C   -0.369036
    98  H    0.177446
    99  H    0.184392
   100  O   -0.535389
   101  C    0.604807
   102  N   -0.719684
   103  H    0.345566
   104  H    0.363043
   105  O   -0.532378
   106  N   -0.629619
   107  H    0.378213
   108  C   -0.052043
   109  H    0.192260
   110  C    0.623755
   111  C   -0.344870
   112  H    0.172375
   113  H    0.145092
   114  O   -0.621203
   115  C    0.158193
   116  C   -0.212868
   117  H    0.125324
   118  C   -0.190631
   119  H    0.167386
   120  C   -0.208075
   121  H    0.140056
   122  C   -0.196450
   123  H    0.176038
   124  O   -0.646297
   125  H    0.420072
   126  C    0.344618
   127  N   -0.570880
   128  H    0.363913
   129  C   -0.080570
   130  H    0.123450
   131  C    0.586955
   132  C   -0.264694
   133  H    0.127133
   134  H    0.171882
   135  O   -0.586772
   136  C   -0.285334
   137  H    0.150772
   138  H    0.185485
   139  C   -0.186668
   140  H    0.177533
   141  H    0.160311
   142  N   -0.575712
   143  H    0.398750
   144  N   -0.746340
   145  H    0.369974
   146  H    0.383112
   147  N   -0.765165
   148  H    0.360315
   149  H    0.398978
   150  C    0.737268
   151  O   -0.608877
   152  H    0.416737
 Sum of Mulliken charges =   1.00000

 Dipole moment (field-independent basis, Debye):
    X=            -38.6497    Y=            -12.1494    Z=             21.5452  Tot=             45.8868
 Quadrupole moment (field-independent basis, Debye-Ang):
   XX=           -152.9507   YY=           -363.9890   ZZ=           -254.6281
   XY=            110.9586   XZ=           -179.5454   YZ=            -54.9619

 Normal termination of Gaussian 16 at Fri Aug 12 04:47:59 2022.
