 Gaussian 16, Revision C.01,
 Gaussian 16:  ES64L-G16RevC.01  3-Jul-2019

 -------------------------------------------------------------------
 # B3LYP/6-31G* guess=read geom=check nosymm integral(ultrafinegrid)
 -------------------------------------------------------------------

 ------------------------------------------------------
 Candidate Structure: Conf:156 Charge calc in gas phase
 ------------------------------------------------------
 Structure from the checkpoint file:  "conf-156.chk"
 Charge =  1 Multiplicity = 1

                          Input orientation:
 ---------------------------------------------------------------------
 Center     Atomic      Atomic             Coordinates (Angstroms)
 Number     Number       Type             X           Y           Z
 ---------------------------------------------------------------------
      1          7           0      -11.353122    3.660508    4.744730
      2          1           0      -11.871902    4.082369    3.969428
      3          1           0      -11.522272    2.608177    4.744541
      4          1           0      -11.671943    4.084498    5.620395
      5          6           0       -9.845479    3.731536    4.564105
      6          1           0       -9.640675    4.438302    3.756055
      7          6           0       -9.506985    2.274424    4.133229
      8          6           0       -9.170083    4.213941    5.875962
      9          1           0       -9.685616    5.151606    6.135705
     10          8           0      -10.384912    1.411959    4.303864
     11          6           0       -9.341672    3.219316    7.035622
     12          1           0       -8.812560    2.281023    6.838777
     13          1           0       -8.926623    3.649293    7.951630
     14          1           0      -10.389646    2.970678    7.245956
     15          6           0       -7.691723    4.570986    5.649698
     16          1           0       -7.073143    3.688012    5.461063
     17          1           0       -7.563287    5.271813    4.816644
     18          1           0       -7.297198    5.055875    6.547399
     19          7           0       -8.304307    2.058667    3.617216
     20          1           0       -7.597964    2.792382    3.551715
     21          6           0       -7.779316    0.737559    3.256642
     22          1           0       -8.133699    0.017438    4.002264
     23          6           0       -6.247981    0.906203    3.368489
     24          6           0       -8.282242    0.283414    1.849962
     25          1           0       -9.373074    0.403035    1.904671
     26          8           0       -5.759944    2.046632    3.402141
     27          6           0       -8.007506   -1.214910    1.597533
     28          1           0       -8.242916   -1.781821    2.510835
     29          1           0       -6.939947   -1.366563    1.392041
     30          6           0       -7.743887    1.181418    0.727169
     31          1           0       -6.660644    1.065803    0.605591
     32          1           0       -7.949272    2.240303    0.919479
     33          1           0       -8.212785    0.928187   -0.227530
     34          6           0       -8.826451   -1.801644    0.440662
     35          1           0       -8.628954   -2.873249    0.337205
     36          1           0       -9.901851   -1.675851    0.612803
     37          1           0       -8.579074   -1.330864   -0.516070
     38          7           0       -5.513160   -0.215106    3.419139
     39          1           0       -5.985666   -1.108914    3.469571
     40          6           0       -4.053389   -0.211223    3.618549
     41          1           0       -3.834840    0.632709    4.281746
     42          6           0       -3.321443    0.014817    2.268471
     43          6           0       -3.602213   -1.531620    4.267269
     44          1           0       -2.530068   -1.439744    4.471917
     45          1           0       -3.694828   -2.330116    3.524099
     46          8           0       -2.748307   -0.906700    1.686388
     47          6           0       -4.363170   -1.876631    5.530175
     48          6           0       -4.152102   -1.162148    6.718648
     49          1           0       -3.408691   -0.367903    6.743618
     50          6           0       -5.307611   -2.912106    5.532973
     51          1           0       -5.457954   -3.502475    4.630495
     52          6           0       -4.868569   -1.470942    7.874284
     53          1           0       -4.681185   -0.915944    8.789627
     54          6           0       -6.029288   -3.223566    6.688565
     55          1           0       -6.747258   -4.039079    6.673568
     56          6           0       -5.812634   -2.501515    7.861908
     57          1           0       -6.363150   -2.748580    8.765302
     58          7           0       -3.377551    1.282830    1.801680
     59          1           0       -3.892457    1.974996    2.336761
     60          6           0       -2.787664    1.674118    0.513863
     61          1           0       -2.907607    0.815288   -0.153412
     62          6           0       -1.271267    1.940435    0.695080
     63          6           0       -3.497477    2.904377   -0.056798
     64          1           0       -3.218019    3.767967    0.558166
     65          1           0       -4.583437    2.761126    0.041124
     66          8           0       -0.811617    3.077276    0.795443
     67          6           0       -3.154761    3.200837   -1.533342
     68          1           0       -2.062552    3.166254   -1.638243
     69          6           0       -3.756518    2.163849   -2.493972
     70          1           0       -4.853676    2.162452   -2.433319
     71          1           0       -3.405262    1.146832   -2.286669
     72          1           0       -3.481048    2.392714   -3.529001
     73          6           0       -3.620301    4.616207   -1.906040
     74          1           0       -4.709746    4.713890   -1.802500
     75          1           0       -3.364711    4.853134   -2.944638
     76          1           0       -3.154831    5.372989   -1.263305
     77          7           0       -0.513629    0.821577    0.758883
     78          1           0       -0.973841   -0.069655    0.614410
     79          6           0        0.937652    0.888094    0.734307
     80          1           0        1.266288    1.528853    1.562119
     81          6           0        1.395812    1.525543   -0.601951
     82          6           0        1.538527   -0.517836    0.890028
     83          1           0        2.627653   -0.447347    0.802473
     84          1           0        1.208412   -1.145108    0.053749
     85          8           0        0.782567    1.341152   -1.644413
     86          6           0        1.176896   -1.179985    2.222965
     87          1           0        1.506667   -0.565954    3.071641
     88          1           0        0.091522   -1.291147    2.341264
     89          6           0        1.799932   -2.551839    2.372212
     90          8           0        2.491700   -3.112021    1.553094
     91          8           0        1.484110   -3.107577    3.570089
     92          7           0        2.509884    2.298455   -0.491315
     93          1           0        3.079901    2.259267    0.350214
     94          6           0        3.235663    2.824921   -1.636774
     95          1           0        2.874878    2.315034   -2.535173
     96          6           0        4.727289    2.523874   -1.380692
     97          6           0        3.043585    4.356265   -1.796287
     98          1           0        3.303729    4.837078   -0.845602
     99          1           0        3.727510    4.722544   -2.566217
    100          8           0        5.139374    2.380618   -0.224755
    101          6           0        1.637938    4.763356   -2.247270
    102          7           0        0.688780    4.823793   -1.261593
    103          1           0       -0.262226    4.933093   -1.589583
    104          1           0        0.782208    4.285770   -0.408298
    105          8           0        1.403781    5.064896   -3.409247
    106          7           0        5.512049    2.473255   -2.470994
    107          1           0        5.146384    2.571588   -3.415366
    108          6           0        6.952328    2.268896   -2.413432
    109          1           0        7.362487    2.883028   -1.605166
    110          6           0        7.487884    2.731340   -3.781556
    111          6           0        7.295770    0.775280   -2.127074
    112          1           0        6.642592    0.466592   -1.304281
    113          1           0        7.016891    0.184290   -3.007166
    114          8           0        6.739434    2.725025   -4.767196
    115          6           0        8.739716    0.531480   -1.750620
    116          6           0        9.655183   -0.029670   -2.652572
    117          1           0        9.321502   -0.304329   -3.650488
    118          6           0        9.203647    0.872697   -0.473154
    119          1           0        8.511839    1.298761    0.250795
    120          6           0       10.984654   -0.243895   -2.302280
    121          1           0       11.690780   -0.672953   -3.005666
    122          6           0       10.532991    0.666982   -0.107365
    123          1           0       10.872765    0.935842    0.891651
    124          8           0       12.742863   -0.126685   -0.724472
    125          1           0       12.921696    0.195775    0.172320
    126          6           0       11.429021    0.107758   -1.024275
    127          7           0        8.775631    3.108516   -3.820341
    128          1           0        9.382232    3.077680   -3.003339
    129          6           0        9.484152    3.455517   -5.048780
    130          1           0        9.222065    2.733884   -5.829281
    131          6           0       11.000061    3.350951   -4.717280
    132          6           0        9.046235    4.878876   -5.514611
    133          1           0        7.963600    4.906735   -5.365211
    134          1           0        9.478552    5.619836   -4.828165
    135          8           0       11.777669    3.155988   -5.723294
    136          6           0        9.313423    5.276257   -6.988790
    137          1           0        9.390142    4.379385   -7.617352
    138          1           0        8.444664    5.828532   -7.366318
    139          6           0       10.534255    6.173363   -7.253138
    140          1           0       10.526017    6.498175   -8.302492
    141          1           0       10.481293    7.071841   -6.624194
    142          7           0       11.767733    5.440650   -6.964116
    143          1           0       11.645227    4.419236   -6.756711
    144          7           0       13.098791    7.265867   -6.358156
    145          1           0       13.977041    7.599306   -5.988422
    146          1           0       12.692573    7.830333   -7.090057
    147          7           0       13.663950    5.072626   -5.736229
    148          1           0       14.458114    5.407873   -5.211702
    149          1           0       13.232033    4.147175   -5.504999
    150          6           0       12.844914    5.930418   -6.355048
    151          8           0       11.342480    3.506924   -3.537778
    152          1           0        1.924692   -3.978385    3.587304
 ---------------------------------------------------------------------

 SCF Done:  E(RB3LYP) =  -3586.61604323     A.U. after    2 cycles

 Alpha  occ. eigenvalues --  -19.27908 -19.24071 -19.23808 -19.19774 -19.19257
 Alpha  occ. eigenvalues --  -19.18234 -19.17148 -19.15041 -19.14909 -19.13385
 Alpha  occ. eigenvalues --  -19.12677 -19.11279 -19.10387 -14.60889 -14.50543
 Alpha  occ. eigenvalues --  -14.47811 -14.44112 -14.43731 -14.40951 -14.40886
 Alpha  occ. eigenvalues --  -14.40522 -14.39451 -14.38751 -14.36986 -14.36514
 Alpha  occ. eigenvalues --  -10.44661 -10.41637 -10.40867 -10.38508 -10.36809
 Alpha  occ. eigenvalues --  -10.36435 -10.35727 -10.35599 -10.33943 -10.33015
 Alpha  occ. eigenvalues --  -10.32335 -10.31953 -10.31418 -10.30849 -10.30472
 Alpha  occ. eigenvalues --  -10.30459 -10.30324 -10.29451 -10.28600 -10.28214
 Alpha  occ. eigenvalues --  -10.28124 -10.27674 -10.27595 -10.27489 -10.27214
 Alpha  occ. eigenvalues --  -10.27071 -10.26674 -10.26577 -10.26563 -10.26504
 Alpha  occ. eigenvalues --  -10.26362 -10.26266 -10.25964 -10.25750 -10.25156
 Alpha  occ. eigenvalues --  -10.24424 -10.24365 -10.23900 -10.23703 -10.22860
 Alpha  occ. eigenvalues --  -10.22332 -10.22076 -10.22058 -10.21251 -10.21154
 Alpha  occ. eigenvalues --  -10.20629 -10.20536 -10.20495 -10.20363 -10.19716
 Alpha  occ. eigenvalues --   -1.20323  -1.15866  -1.14689  -1.14668  -1.11470
 Alpha  occ. eigenvalues --   -1.08921  -1.07331  -1.07259  -1.07241  -1.07186
 Alpha  occ. eigenvalues --   -1.06448  -1.05733  -1.05176  -1.04441  -1.04004
 Alpha  occ. eigenvalues --   -1.03978  -0.99936  -0.97576  -0.97038  -0.96160
 Alpha  occ. eigenvalues --   -0.96070  -0.95395  -0.95213  -0.95024  -0.93291
 Alpha  occ. eigenvalues --   -0.93289  -0.92068  -0.91314  -0.87986  -0.87447
 Alpha  occ. eigenvalues --   -0.86768  -0.86503  -0.85315  -0.84134  -0.82786
 Alpha  occ. eigenvalues --   -0.82368  -0.82301  -0.81979  -0.81923  -0.80841
 Alpha  occ. eigenvalues --   -0.80187  -0.79771  -0.77655  -0.76933  -0.76437
 Alpha  occ. eigenvalues --   -0.76106  -0.75282  -0.74607  -0.74418  -0.74113
 Alpha  occ. eigenvalues --   -0.72953  -0.72420  -0.71298  -0.71114  -0.70570
 Alpha  occ. eigenvalues --   -0.70337  -0.70112  -0.68854  -0.68573  -0.68134
 Alpha  occ. eigenvalues --   -0.67621  -0.67039  -0.66785  -0.66306  -0.65527
 Alpha  occ. eigenvalues --   -0.64491  -0.63943  -0.63579  -0.63339  -0.63230
 Alpha  occ. eigenvalues --   -0.63037  -0.62357  -0.62178  -0.61292  -0.61247
 Alpha  occ. eigenvalues --   -0.60815  -0.60780  -0.60204  -0.60035  -0.59958
 Alpha  occ. eigenvalues --   -0.59168  -0.58969  -0.58578  -0.58292  -0.58027
 Alpha  occ. eigenvalues --   -0.57743  -0.57366  -0.56598  -0.55943  -0.55767
 Alpha  occ. eigenvalues --   -0.55728  -0.55644  -0.55051  -0.54869  -0.54753
 Alpha  occ. eigenvalues --   -0.54428  -0.54042  -0.53824  -0.53117  -0.53026
 Alpha  occ. eigenvalues --   -0.52780  -0.52559  -0.52525  -0.52016  -0.51769
 Alpha  occ. eigenvalues --   -0.51648  -0.51403  -0.51335  -0.51297  -0.51182
 Alpha  occ. eigenvalues --   -0.51027  -0.50671  -0.50317  -0.50152  -0.49525
 Alpha  occ. eigenvalues --   -0.49431  -0.49358  -0.48979  -0.48791  -0.48692
 Alpha  occ. eigenvalues --   -0.48377  -0.48179  -0.48143  -0.48113  -0.47984
 Alpha  occ. eigenvalues --   -0.47610  -0.47474  -0.47250  -0.47134  -0.47021
 Alpha  occ. eigenvalues --   -0.46871  -0.46820  -0.46457  -0.46266  -0.45981
 Alpha  occ. eigenvalues --   -0.45759  -0.45651  -0.45293  -0.44935  -0.44815
 Alpha  occ. eigenvalues --   -0.44512  -0.44428  -0.44245  -0.43896  -0.43604
 Alpha  occ. eigenvalues --   -0.43525  -0.43343  -0.43221  -0.43170  -0.43074
 Alpha  occ. eigenvalues --   -0.43003  -0.42899  -0.42460  -0.42318  -0.42139
 Alpha  occ. eigenvalues --   -0.41825  -0.41793  -0.41736  -0.41561  -0.41444
 Alpha  occ. eigenvalues --   -0.41384  -0.41060  -0.41021  -0.40804  -0.40359
 Alpha  occ. eigenvalues --   -0.40101  -0.40035  -0.39910  -0.39505  -0.39404
 Alpha  occ. eigenvalues --   -0.38833  -0.38462  -0.38212  -0.38136  -0.37850
 Alpha  occ. eigenvalues --   -0.37745  -0.37490  -0.37278  -0.37167  -0.36996
 Alpha  occ. eigenvalues --   -0.36788  -0.36090  -0.35884  -0.35021  -0.34547
 Alpha  occ. eigenvalues --   -0.34519  -0.34067  -0.33105  -0.32644  -0.31988
 Alpha  occ. eigenvalues --   -0.31922  -0.31298  -0.30977  -0.30124  -0.29877
 Alpha  occ. eigenvalues --   -0.29294  -0.28768  -0.28308  -0.28183  -0.27642
 Alpha  occ. eigenvalues --   -0.27465  -0.26563  -0.26346  -0.26044  -0.25389
 Alpha  occ. eigenvalues --   -0.24514  -0.23009
 Alpha virt. eigenvalues --   -0.13490  -0.12131  -0.09826  -0.08081  -0.07841
 Alpha virt. eigenvalues --   -0.07736  -0.06477  -0.05735  -0.03667  -0.03316
 Alpha virt. eigenvalues --   -0.03125  -0.02416  -0.01929  -0.01805  -0.01577

 Mulliken charges:
               1
     1  N   -0.762071
     2  H    0.418263
     3  H    0.436539
     4  H    0.413142
     5  C   -0.106217
     6  H    0.212373
     7  C    0.654797
     8  C   -0.112183
     9  H    0.161563
    10  O   -0.546628
    11  C   -0.469903
    12  H    0.185439
    13  H    0.196508
    14  H    0.142996
    15  C   -0.479518
    16  H    0.184767
    17  H    0.168415
    18  H    0.192809
    19  N   -0.610075
    20  H    0.383339
    21  C   -0.077766
    22  H    0.192389
    23  C    0.643085
    24  C   -0.067722
    25  H    0.154444
    26  O   -0.567800
    27  C   -0.286991
    28  H    0.137286
    29  H    0.153913
    30  C   -0.475653
    31  H    0.174397
    32  H    0.138632
    33  H    0.176295
    34  C   -0.453465
    35  H    0.168436
    36  H    0.153166
    37  H    0.163864
    38  N   -0.598138
    39  H    0.353733
    40  C   -0.061056
    41  H    0.184453
    42  C    0.644751
    43  C   -0.402922
    44  H    0.190201
    45  H    0.186908
    46  O   -0.536095
    47  C    0.172172
    48  C   -0.181924
    49  H    0.134202
    50  C   -0.213504
    51  H    0.133615
    52  C   -0.130640
    53  H    0.142917
    54  C   -0.128135
    55  H    0.144711
    56  C   -0.131608
    57  H    0.144268
    58  N   -0.626549
    59  H    0.365672
    60  C   -0.060436
    61  H    0.178132
    62  C    0.654150
    63  C   -0.284706
    64  H    0.158640
    65  H    0.120867
    66  O   -0.547952
    67  C   -0.090353
    68  H    0.168417
    69  C   -0.450174
    70  H    0.124835
    71  H    0.150758
    72  H    0.164179
    73  C   -0.451710
    74  H    0.126872
    75  H    0.161549
    76  H    0.148269
    77  N   -0.605836
    78  H    0.363498
    79  C   -0.039172
    80  H    0.156971
    81  C    0.617905
    82  C   -0.299607
    83  H    0.181420
    84  H    0.180415
    85  O   -0.524180
    86  C   -0.367584
    87  H    0.177502
    88  H    0.188068
    89  C    0.585554
    90  O   -0.451151
    91  O   -0.575171
    92  N   -0.613003
    93  H    0.348087
    94  C   -0.072717
    95  H    0.196333
    96  C    0.627667
    97  C   -0.346907
    98  H    0.160393
    99  H    0.178842
   100  O   -0.556631
   101  C    0.570960
   102  N   -0.747160
   103  H    0.333721
   104  H    0.361570
   105  O   -0.501645
   106  N   -0.618599
   107  H    0.360358
   108  C   -0.032876
   109  H    0.171275
   110  C    0.617173
   111  C   -0.356536
   112  H    0.175293
   113  H    0.154786
   114  O   -0.563196
   115  C    0.149981
   116  C   -0.186399
   117  H    0.131807
   118  C   -0.198002
   119  H    0.138860
   120  C   -0.145075
   121  H    0.144443
   122  C   -0.188306
   123  H    0.115532
   124  O   -0.642023
   125  H    0.405585
   126  C    0.356853
   127  N   -0.617602
   128  H    0.361632
   129  C   -0.025302
   130  H    0.162089
   131  C    0.584784
   132  C   -0.277084
   133  H    0.178434
   134  H    0.138209
   135  O   -0.650125
   136  C   -0.303271
   137  H    0.168580
   138  H    0.156644
   139  C   -0.146391
   140  H    0.157613
   141  H    0.157212
   142  N   -0.607785
   143  H    0.408452
   144  N   -0.753848
   145  H    0.357265
   146  H    0.365390
   147  N   -0.767005
   148  H    0.342269
   149  H    0.417462
   150  C    0.759143
   151  O   -0.547932
   152  H    0.412860
 Sum of Mulliken charges =   1.00000

 Dipole moment (field-independent basis, Debye):
    X=            -37.1019    Y=             20.8843    Z=             21.7960  Tot=             47.8307
 Quadrupole moment (field-independent basis, Debye-Ang):
   XX=            228.5602   YY=           -299.3947   ZZ=           -270.5451
   XY=             -1.5115   XZ=           -296.2956   YZ=              1.0086

 Normal termination of Gaussian 16 at Fri Aug 12 04:46:56 2022.
