 Gaussian 16, Revision C.01,
 Gaussian 16:  ES64L-G16RevC.01  3-Jul-2019

 -------------------------------------------------------------------
 # B3LYP/6-31G* guess=read geom=check nosymm integral(ultrafinegrid)
 -------------------------------------------------------------------

 ------------------------------------------------------
 Candidate Structure: Conf:883 Charge calc in gas phase
 ------------------------------------------------------
 Structure from the checkpoint file:  "conf-883.chk"
 Charge =  1 Multiplicity = 1

                          Input orientation:
 ---------------------------------------------------------------------
 Center     Atomic      Atomic             Coordinates (Angstroms)
 Number     Number       Type             X           Y           Z
 ---------------------------------------------------------------------
      1          7           0      -11.788268    2.390222    7.311588
      2          1           0      -12.570147    2.913518    6.907462
      3          1           0      -11.740492    1.435000    6.842076
      4          1           0      -11.934034    2.314853    8.321263
      5          6           0      -10.431636    2.969043    6.946431
      6          1           0      -10.572337    4.015655    6.662689
      7          6           0      -10.046064    2.082626    5.723689
      8          6           0       -9.460589    2.861597    8.152124
      9          1           0       -9.354234    1.792565    8.387084
     10          8           0      -10.627589    0.987868    5.621571
     11          6           0       -8.071715    3.420000    7.796124
     12          1           0       -8.128501    4.479770    7.517990
     13          1           0       -7.419409    3.347764    8.671082
     14          1           0       -7.588144    2.876843    6.981670
     15          6           0      -10.011498    3.596525    9.388865
     16          1           0      -10.171199    4.661135    9.180908
     17          1           0      -10.951159    3.183115    9.780979
     18          1           0       -9.290283    3.523634   10.207847
     19          7           0       -9.142829    2.560557    4.881931
     20          1           0       -8.639480    3.435344    5.049040
     21          6           0       -8.578066    1.818436    3.748187
     22          1           0       -8.481529    0.770565    4.044930
     23          6           0       -7.180668    2.453926    3.559391
     24          6           0       -9.505858    1.912401    2.496075
     25          1           0      -10.495459    1.615409    2.870945
     26          8           0       -6.935825    3.550601    4.083202
     27          6           0       -9.138693    0.918267    1.372823
     28          1           0       -8.173948    1.185127    0.923546
     29          1           0       -9.879713    1.063120    0.576522
     30          6           0       -9.599744    3.346698    1.955529
     31          1           0       -8.645954    3.681572    1.532335
     32          1           0       -9.888841    4.062993    2.732584
     33          1           0      -10.349995    3.399849    1.159972
     34          6           0       -9.138034   -0.562294    1.774849
     35          1           0       -9.007921   -1.195035    0.891578
     36          1           0       -8.324820   -0.817060    2.465802
     37          1           0      -10.081552   -0.846799    2.255918
     38          7           0       -6.301340    1.757199    2.829694
     39          1           0       -6.567443    0.915195    2.321606
     40          6           0       -5.002959    2.284633    2.424826
     41          1           0       -5.137453    3.324700    2.105725
     42          6           0       -4.597211    1.435342    1.196237
     43          6           0       -3.965396    2.265343    3.589569
     44          1           0       -3.497614    1.276508    3.651171
     45          1           0       -4.535784    2.410031    4.512398
     46          8           0       -5.359944    0.558496    0.775782
     47          6           0       -2.913978    3.354585    3.488414
     48          6           0       -1.571185    3.060230    3.219714
     49          1           0       -1.261710    2.030918    3.063236
     50          6           0       -3.288023    4.695980    3.674310
     51          1           0       -4.326843    4.932247    3.896324
     52          6           0       -0.621687    4.083931    3.129170
     53          1           0        0.412849    3.836260    2.908130
     54          6           0       -2.342130    5.715598    3.587145
     55          1           0       -2.646023    6.748380    3.736216
     56          6           0       -1.005135    5.412025    3.312281
     57          1           0       -0.268204    6.207238    3.242271
     58          7           0       -3.408406    1.731506    0.635416
     59          1           0       -2.772490    2.363782    1.112342
     60          6           0       -2.847588    0.975887   -0.480665
     61          1           0       -3.551135    0.169065   -0.695805
     62          6           0       -1.491800    0.400377   -0.050833
     63          6           0       -2.635113    1.863707   -1.730828
     64          1           0       -2.104970    1.269929   -2.487326
     65          1           0       -1.944629    2.671337   -1.453849
     66          8           0       -0.776471    0.988745    0.762176
     67          6           0       -3.915394    2.463627   -2.342309
     68          1           0       -4.416460    3.054042   -1.561123
     69          6           0       -3.538419    3.419649   -3.484789
     70          1           0       -3.034519    2.881790   -4.297567
     71          1           0       -2.861923    4.210718   -3.140954
     72          1           0       -4.430227    3.898121   -3.905436
     73          6           0       -4.898547    1.387859   -2.829727
     74          1           0       -4.424600    0.728958   -3.569433
     75          1           0       -5.765702    1.851493   -3.314189
     76          1           0       -5.275330    0.769351   -2.007951
     77          7           0       -1.125776   -0.760320   -0.649810
     78          1           0       -1.681992   -1.083203   -1.431709
     79          6           0        0.265288   -1.205312   -0.612749
     80          1           0        0.541082   -1.353667    0.437205
     81          6           0        1.155434   -0.106084   -1.239960
     82          6           0        0.388557   -2.525719   -1.392723
     83          1           0        0.206479   -2.325516   -2.455332
     84          1           0       -0.402358   -3.206605   -1.058630
     85          8           0        0.787531    0.509086   -2.232691
     86          6           0        1.744187   -3.217263   -1.226547
     87          1           0        2.587397   -2.574840   -1.503736
     88          1           0        1.923886   -3.492265   -0.178061
     89          6           0        1.825810   -4.484903   -2.052893
     90          8           0        0.913959   -4.972942   -2.684012
     91          8           0        3.062605   -5.025811   -1.999636
     92          7           0        2.332910    0.115597   -0.589427
     93          1           0        2.670114   -0.591137    0.060640
     94          6           0        3.424937    0.882031   -1.176899
     95          1           0        3.096500    1.230335   -2.159906
     96          6           0        4.619233   -0.092761   -1.299869
     97          6           0        3.829374    2.087488   -0.290919
     98          1           0        4.045035    1.716090    0.719166
     99          1           0        4.743172    2.534495   -0.689997
    100          8           0        4.695625   -1.060205   -0.532229
    101          6           0        2.798361    3.218968   -0.226579
    102          7           0        1.630197    2.930874    0.429948
    103          1           0        0.893968    3.617289    0.326595
    104          1           0        1.319118    1.974582    0.555881
    105          8           0        3.036870    4.326376   -0.688114
    106          7           0        5.519482    0.195049   -2.250150
    107          1           0        5.454289    1.031090   -2.829057
    108          6           0        6.754954   -0.547875   -2.455769
    109          1           0        7.232772   -0.705017   -1.480432
    110          6           0        7.652126    0.367871   -3.319390
    111          6           0        6.523035   -1.952386   -3.088189
    112          1           0        7.469464   -2.502222   -3.035782
    113          1           0        5.823427   -2.475466   -2.427472
    114          8           0        7.217055    1.452002   -3.731880
    115          6           0        6.019795   -1.950503   -4.516069
    116          6           0        4.657576   -1.788235   -4.810630
    117          1           0        3.943352   -1.673794   -3.998316
    118          6           0        6.909895   -2.119700   -5.586777
    119          1           0        7.972989   -2.257574   -5.393891
    120          6           0        4.190077   -1.778137   -6.122066
    121          1           0        3.134744   -1.654835   -6.345488
    122          6           0        6.453274   -2.113469   -6.904808
    123          1           0        7.160727   -2.250037   -7.721477
    124          8           0        4.589139   -1.927365   -8.451388
    125          1           0        5.321689   -2.058467   -9.073372
    126          6           0        5.093636   -1.939632   -7.176975
    127          7           0        8.891334   -0.095589   -3.555552
    128          1           0        9.106949   -1.096179   -3.424882
    129          6           0        9.723091    0.362309   -4.662913
    130          1           0        9.075476    0.671234   -5.494152
    131          6           0       10.586088   -0.891447   -5.131058
    132          6           0       10.668654    1.517607   -4.332427
    133          1           0       11.299967    1.184054   -3.489861
    134          1           0       11.320847    1.590533   -5.212125
    135          8           0       11.509463   -0.626149   -5.919855
    136          6           0       10.010233    2.866941   -4.005250
    137          1           0        9.148529    3.035070   -4.657779
    138          1           0        9.615941    2.874597   -2.983494
    139          6           0       10.975666    4.042945   -4.201825
    140          1           0       11.178275    4.185793   -5.271633
    141          1           0       10.563341    4.971486   -3.788867
    142          7           0       12.258854    3.760451   -3.520012
    143          1           0       12.438144    2.775732   -3.349533
    144          7           0       13.184005    5.869939   -3.803093
    145          1           0       13.771752    6.596990   -3.421799
    146          1           0       12.402495    6.157151   -4.373848
    147          7           0       14.335216    4.260301   -2.602101
    148          1           0       15.214248    4.732383   -2.763381
    149          1           0       14.401214    3.321386   -2.232640
    150          6           0       13.246599    4.615952   -3.321780
    151          8           0       10.219473   -1.989496   -4.625444
    152          1           0        3.043157   -5.823780   -2.561269
 ---------------------------------------------------------------------

 SCF Done:  E(RB3LYP) =  -3586.56909724     A.U. after    1 cycles

 Alpha  occ. eigenvalues --  -19.26494 -19.22644 -19.21624 -19.19462 -19.18395
 Alpha  occ. eigenvalues --  -19.18224 -19.17216 -19.16043 -19.14956 -19.13505
 Alpha  occ. eigenvalues --  -19.13181 -19.05862 -19.04981 -14.59734 -14.49889
 Alpha  occ. eigenvalues --  -14.49535 -14.49043 -14.48986 -14.44767 -14.43035
 Alpha  occ. eigenvalues --  -14.42175 -14.40235 -14.38560 -14.37291 -14.35044
 Alpha  occ. eigenvalues --  -10.45761 -10.43278 -10.40572 -10.38485 -10.36549
 Alpha  occ. eigenvalues --  -10.35488 -10.34950 -10.34641 -10.33768 -10.33170
 Alpha  occ. eigenvalues --  -10.31955 -10.31582 -10.31472 -10.31405 -10.31288
 Alpha  occ. eigenvalues --  -10.29869 -10.29771 -10.29348 -10.28799 -10.28747
 Alpha  occ. eigenvalues --  -10.27456 -10.26387 -10.26122 -10.25904 -10.25505
 Alpha  occ. eigenvalues --  -10.25269 -10.25207 -10.24933 -10.24477 -10.24357
 Alpha  occ. eigenvalues --  -10.24318 -10.24288 -10.24084 -10.24052 -10.23946
 Alpha  occ. eigenvalues --  -10.23870 -10.23866 -10.23782 -10.23628 -10.23013
 Alpha  occ. eigenvalues --  -10.21697 -10.21480 -10.21283 -10.21221 -10.20194
 Alpha  occ. eigenvalues --  -10.19539 -10.19282 -10.18986 -10.18925 -10.18546
 Alpha  occ. eigenvalues --   -1.18982  -1.14322  -1.13791  -1.13637  -1.13235
 Alpha  occ. eigenvalues --   -1.11284  -1.10008  -1.07972  -1.06612  -1.06315
 Alpha  occ. eigenvalues --   -1.05624  -1.05251  -1.04701  -1.04534  -1.03292
 Alpha  occ. eigenvalues --   -1.02692  -1.01440  -0.99531  -0.98884  -0.98578
 Alpha  occ. eigenvalues --   -0.96812  -0.95186  -0.95059  -0.92365  -0.92054
 Alpha  occ. eigenvalues --   -0.91177  -0.90459  -0.90070  -0.86910  -0.86509
 Alpha  occ. eigenvalues --   -0.85944  -0.85520  -0.85430  -0.85077  -0.82432
 Alpha  occ. eigenvalues --   -0.82062  -0.81507  -0.81224  -0.80291  -0.79628
 Alpha  occ. eigenvalues --   -0.79584  -0.78799  -0.78191  -0.77107  -0.76256
 Alpha  occ. eigenvalues --   -0.74873  -0.74833  -0.74278  -0.73915  -0.73339
 Alpha  occ. eigenvalues --   -0.72605  -0.72491  -0.72045  -0.71493  -0.70947
 Alpha  occ. eigenvalues --   -0.70234  -0.70212  -0.70090  -0.68905  -0.67946
 Alpha  occ. eigenvalues --   -0.67744  -0.66821  -0.66199  -0.65646  -0.65560
 Alpha  occ. eigenvalues --   -0.65441  -0.64642  -0.63688  -0.63393  -0.63327
 Alpha  occ. eigenvalues --   -0.62907  -0.62602  -0.62369  -0.62306  -0.62123
 Alpha  occ. eigenvalues --   -0.61482  -0.60804  -0.60767  -0.60184  -0.59128
 Alpha  occ. eigenvalues --   -0.58982  -0.58672  -0.58195  -0.58042  -0.57503
 Alpha  occ. eigenvalues --   -0.57120  -0.56936  -0.56729  -0.56048  -0.55614
 Alpha  occ. eigenvalues --   -0.55220  -0.55052  -0.54650  -0.54530  -0.54272
 Alpha  occ. eigenvalues --   -0.54129  -0.53681  -0.53180  -0.52990  -0.52561
 Alpha  occ. eigenvalues --   -0.52337  -0.52165  -0.51882  -0.51634  -0.51498
 Alpha  occ. eigenvalues --   -0.51176  -0.51046  -0.50994  -0.50963  -0.50686
 Alpha  occ. eigenvalues --   -0.50531  -0.50451  -0.50305  -0.50097  -0.49693
 Alpha  occ. eigenvalues --   -0.49207  -0.48650  -0.48619  -0.48390  -0.48096
 Alpha  occ. eigenvalues --   -0.48000  -0.47700  -0.47464  -0.47232  -0.47190
 Alpha  occ. eigenvalues --   -0.47119  -0.47058  -0.47034  -0.46908  -0.46859
 Alpha  occ. eigenvalues --   -0.46229  -0.46046  -0.45811  -0.45593  -0.45319
 Alpha  occ. eigenvalues --   -0.45022  -0.44911  -0.44550  -0.44302  -0.44062
 Alpha  occ. eigenvalues --   -0.43798  -0.43702  -0.43571  -0.43296  -0.43180
 Alpha  occ. eigenvalues --   -0.42756  -0.42442  -0.42370  -0.42170  -0.42159
 Alpha  occ. eigenvalues --   -0.41953  -0.41861  -0.41824  -0.41690  -0.41498
 Alpha  occ. eigenvalues --   -0.41263  -0.41112  -0.40967  -0.40948  -0.40861
 Alpha  occ. eigenvalues --   -0.40743  -0.40663  -0.40302  -0.40288  -0.39781
 Alpha  occ. eigenvalues --   -0.39579  -0.39483  -0.39157  -0.39063  -0.38598
 Alpha  occ. eigenvalues --   -0.38168  -0.38078  -0.37728  -0.37562  -0.37220
 Alpha  occ. eigenvalues --   -0.37190  -0.37102  -0.36917  -0.36167  -0.35595
 Alpha  occ. eigenvalues --   -0.35287  -0.34965  -0.34937  -0.34863  -0.33900
 Alpha  occ. eigenvalues --   -0.33649  -0.33365  -0.33096  -0.33027  -0.32455
 Alpha  occ. eigenvalues --   -0.31368  -0.30920  -0.30553  -0.30199  -0.29848
 Alpha  occ. eigenvalues --   -0.29816  -0.29049  -0.28923  -0.28496  -0.27252
 Alpha  occ. eigenvalues --   -0.26755  -0.26260  -0.25274  -0.22073  -0.21128
 Alpha  occ. eigenvalues --   -0.20579  -0.19301
 Alpha virt. eigenvalues --   -0.12332  -0.10944  -0.09918  -0.07510  -0.06484
 Alpha virt. eigenvalues --   -0.06158  -0.05872  -0.05524  -0.04724  -0.04377
 Alpha virt. eigenvalues --   -0.04203  -0.02434  -0.02105  -0.02002  -0.01637

 Mulliken charges:
               1
     1  N   -0.760130
     2  H    0.415166
     3  H    0.433146
     4  H    0.408159
     5  C   -0.102161
     6  H    0.204395
     7  C    0.649367
     8  C   -0.108920
     9  H    0.171575
    10  O   -0.548372
    11  C   -0.474618
    12  H    0.168643
    13  H    0.188515
    14  H    0.184798
    15  C   -0.475971
    16  H    0.176741
    17  H    0.140486
    18  H    0.203002
    19  N   -0.605234
    20  H    0.378328
    21  C   -0.078163
    22  H    0.194161
    23  C    0.634197
    24  C   -0.077538
    25  H    0.147542
    26  O   -0.561933
    27  C   -0.284191
    28  H    0.162970
    29  H    0.155441
    30  C   -0.462208
    31  H    0.167278
    32  H    0.135011
    33  H    0.166190
    34  C   -0.460938
    35  H    0.174471
    36  H    0.142223
    37  H    0.153949
    38  N   -0.631404
    39  H    0.382125
    40  C   -0.045714
    41  H    0.197150
    42  C    0.611490
    43  C   -0.357571
    44  H    0.164599
    45  H    0.175198
    46  O   -0.545586
    47  C    0.126806
    48  C   -0.206962
    49  H    0.162432
    50  C   -0.187257
    51  H    0.144830
    52  C   -0.146428
    53  H    0.163238
    54  C   -0.128378
    55  H    0.136667
    56  C   -0.130078
    57  H    0.145571
    58  N   -0.600160
    59  H    0.367033
    60  C   -0.103809
    61  H    0.188221
    62  C    0.651129
    63  C   -0.260728
    64  H    0.165775
    65  H    0.151032
    66  O   -0.553062
    67  C   -0.067309
    68  H    0.120995
    69  C   -0.444714
    70  H    0.153199
    71  H    0.147556
    72  H    0.144277
    73  C   -0.466050
    74  H    0.142342
    75  H    0.145996
    76  H    0.161373
    77  N   -0.601572
    78  H    0.344337
    79  C   -0.030248
    80  H    0.162941
    81  C    0.610331
    82  C   -0.301024
    83  H    0.179688
    84  H    0.170516
    85  O   -0.523225
    86  C   -0.385548
    87  H    0.209243
    88  H    0.182451
    89  C    0.587924
    90  O   -0.461632
    91  O   -0.560144
    92  N   -0.605788
    93  H    0.349540
    94  C   -0.089648
    95  H    0.200973
    96  C    0.630786
    97  C   -0.353945
    98  H    0.164848
    99  H    0.180982
   100  O   -0.557735
   101  C    0.568173
   102  N   -0.756644
   103  H    0.329741
   104  H    0.374550
   105  O   -0.500732
   106  N   -0.609186
   107  H    0.362840
   108  C   -0.033937
   109  H    0.171366
   110  C    0.608336
   111  C   -0.390326
   112  H    0.173356
   113  H    0.176922
   114  O   -0.568189
   115  C    0.157826
   116  C   -0.190800
   117  H    0.110748
   118  C   -0.215236
   119  H    0.194277
   120  C   -0.159670
   121  H    0.129591
   122  C   -0.205431
   123  H    0.126645
   124  O   -0.648626
   125  H    0.406270
   126  C    0.349214
   127  N   -0.618910
   128  H    0.360459
   129  C   -0.074988
   130  H    0.155580
   131  C    0.585179
   132  C   -0.296610
   133  H    0.114702
   134  H    0.173387
   135  O   -0.589504
   136  C   -0.286349
   137  H    0.196594
   138  H    0.165820
   139  C   -0.170296
   140  H    0.186302
   141  H    0.168748
   142  N   -0.588684
   143  H    0.376806
   144  N   -0.756153
   145  H    0.379698
   146  H    0.392383
   147  N   -0.757885
   148  H    0.377351
   149  H    0.384548
   150  C    0.814585
   151  O   -0.603830
   152  H    0.416737
 Sum of Mulliken charges =   1.00000

 Dipole moment (field-independent basis, Debye):
    X=            -24.3701    Y=             29.0976    Z=             30.7986  Tot=             48.8787
 Quadrupole moment (field-independent basis, Debye-Ang):
   XX=            408.5486   YY=           -332.9415   ZZ=           -258.7592
   XY=            129.6589   XZ=           -319.5913   YZ=              7.4474

 Normal termination of Gaussian 16 at Fri Aug 12 04:46:07 2022.
