 Gaussian 16, Revision C.01,
 Gaussian 16:  ES64L-G16RevC.01  3-Jul-2019

 -------------------------------------------------------------------
 # B3LYP/6-31G* guess=read geom=check nosymm integral(ultrafinegrid)
 -------------------------------------------------------------------

 ------------------------------------------------------
 Candidate Structure: Conf:779 Charge calc in gas phase
 ------------------------------------------------------
 Structure from the checkpoint file:  "conf-779.chk"
 Charge =  1 Multiplicity = 1

                          Input orientation:
 ---------------------------------------------------------------------
 Center     Atomic      Atomic             Coordinates (Angstroms)
 Number     Number       Type             X           Y           Z
 ---------------------------------------------------------------------
      1          7           0      -10.938290    5.536501    5.215458
      2          1           0      -11.310600    6.165942    4.499510
      3          1           0      -11.377804    4.567754    5.095991
      4          1           0      -11.147608    5.927622    6.137798
      5          6           0       -9.465425    5.216300    5.023913
      6          1           0       -9.063865    5.918957    4.289565
      7          6           0       -9.530649    3.773169    4.441434
      8          6           0       -8.704514    5.359497    6.368901
      9          1           0       -8.953117    6.368345    6.733883
     10          8           0      -10.618888    3.175993    4.532819
     11          6           0       -9.154205    4.331390    7.419812
     12          1           0       -8.894174    3.311861    7.116764
     13          1           0       -8.652284    4.534395    8.370168
     14          1           0      -10.233602    4.352759    7.617009
     15          6           0       -7.181269    5.327613    6.160991
     16          1           0       -6.819310    4.338100    5.865123
     17          1           0       -6.857171    6.055224    5.407913
     18          1           0       -6.684418    5.586510    7.100654
     19          7           0       -8.425317    3.290969    3.897839
     20          1           0       -7.542068    3.805077    3.900270
     21          6           0       -8.258395    1.923798    3.391737
     22          1           0       -8.826016    1.253042    4.042919
     23          6           0       -6.742219    1.666903    3.545040
     24          6           0       -8.794972    1.794850    1.930003
     25          1           0       -9.828742    2.163817    1.992938
     26          8           0       -5.971292    2.620572    3.692197
     27          6           0       -8.860024    0.339774    1.417252
     28          1           0       -7.842347   -0.039118    1.259980
     29          1           0       -9.305320    0.385410    0.415553
     30          6           0       -8.009699    2.674251    0.945743
     31          1           0       -6.992413    2.295909    0.803065
     32          1           0       -7.948807    3.716327    1.279847
     33          1           0       -8.505225    2.670834   -0.030813
     34          6           0       -9.690495   -0.630898    2.268242
     35          1           0       -9.793358   -1.594523    1.758986
     36          1           0       -9.245797   -0.838503    3.251136
     37          1           0      -10.699686   -0.241432    2.448304
     38          7           0       -6.344636    0.379598    3.539907
     39          1           0       -7.019593   -0.319608    3.258596
     40          6           0       -4.935138    0.005527    3.411425
     41          1           0       -4.376342    0.547134    4.179705
     42          6           0       -4.432843    0.411734    2.004468
     43          6           0       -4.820160   -1.519582    3.644558
     44          1           0       -5.363485   -2.028077    2.837744
     45          1           0       -5.344284   -1.744172    4.582828
     46          8           0       -5.189944    0.337798    1.034035
     47          6           0       -3.398463   -2.035347    3.710404
     48          6           0       -2.856399   -2.783213    2.658185
     49          1           0       -3.466992   -2.997841    1.783721
     50          6           0       -2.601126   -1.776382    4.834489
     51          1           0       -3.013218   -1.212240    5.669676
     52          6           0       -1.546163   -3.260416    2.723844
     53          1           0       -1.126965   -3.839160    1.906963
     54          6           0       -1.289544   -2.246262    4.900411
     55          1           0       -0.685076   -2.036960    5.778845
     56          6           0       -0.759241   -2.989077    3.843884
     57          1           0        0.259801   -3.360960    3.882665
     58          7           0       -3.153795    0.832030    1.947837
     59          1           0       -2.540735    0.739033    2.753913
     60          6           0       -2.445155    1.125408    0.706631
     61          1           0       -2.969382    0.619504   -0.108692
     62          6           0       -1.021451    0.564488    0.880973
     63          6           0       -2.343819    2.645458    0.429733
     64          1           0       -1.701407    2.785548   -0.451494
     65          1           0       -1.810444    3.093847    1.278375
     66          8           0       -0.499717    0.527026    1.996673
     67          6           0       -3.673584    3.389795    0.205167
     68          1           0       -4.326000    3.182300    1.064743
     69          6           0       -3.412863    4.904176    0.168229
     70          1           0       -2.753486    5.171382   -0.667718
     71          1           0       -2.937072    5.253679    1.092479
     72          1           0       -4.348856    5.460899    0.038986
     73          6           0       -4.391718    2.928811   -1.071903
     74          1           0       -3.753588    3.069851   -1.954462
     75          1           0       -5.306076    3.512919   -1.233444
     76          1           0       -4.681515    1.875651   -1.013933
     77          7           0       -0.400998    0.185283   -0.254667
     78          1           0       -0.856770    0.220007   -1.162374
     79          6           0        0.973274   -0.291224   -0.299781
     80          1           0        1.587387    0.347764    0.346525
     81          6           0        1.406882   -0.150258   -1.772471
     82          6           0        1.058725   -1.753260    0.204945
     83          1           0        0.537967   -2.404398   -0.506761
     84          1           0        0.503443   -1.795682    1.144917
     85          8           0        0.562122   -0.108217   -2.670385
     86          6           0        2.479796   -2.266191    0.450241
     87          1           0        3.080628   -2.322197   -0.463937
     88          1           0        3.028890   -1.593046    1.124894
     89          6           0        2.485951   -3.635459    1.097679
     90          8           0        1.520879   -4.224056    1.540100
     91          8           0        3.734090   -4.153519    1.145993
     92          7           0        2.734164   -0.099878   -1.996336
     93          1           0        3.418671   -0.150765   -1.246023
     94          6           0        3.328454   -0.131144   -3.323036
     95          1           0        2.769769   -0.824229   -3.958497
     96          6           0        4.777158   -0.620918   -3.118462
     97          6           0        3.292459    1.264049   -3.988833
     98          1           0        2.275883    1.657687   -3.869475
     99          1           0        3.982685    1.944328   -3.478954
    100          8           0        5.275774   -0.623015   -1.990762
    101          6           0        3.594728    1.226555   -5.484799
    102          7           0        3.791207    2.442279   -6.067494
    103          1           0        4.128368    2.421234   -7.021957
    104          1           0        4.114634    3.214448   -5.501181
    105          8           0        3.579613    0.184864   -6.140376
    106          7           0        5.413295   -1.025465   -4.242246
    107          1           0        4.912522   -0.846728   -5.112427
    108          6           0        6.868078   -1.038057   -4.303620
    109          1           0        7.207475   -1.179493   -3.272687
    110          6           0        7.336401    0.383755   -4.737518
    111          6           0        7.377029   -2.220225   -5.173064
    112          1           0        6.622831   -3.010975   -5.083761
    113          1           0        7.395247   -1.929948   -6.230248
    114          8           0        6.592992    1.358373   -4.587398
    115          6           0        8.728402   -2.781947   -4.765893
    116          6           0        9.835565   -2.745818   -5.625295
    117          1           0        9.752849   -2.269500   -6.597927
    118          6           0        8.892536   -3.390386   -3.512924
    119          1           0        8.050366   -3.448365   -2.826438
    120          6           0       11.065229   -3.284076   -5.249443
    121          1           0       11.918038   -3.245925   -5.919484
    122          6           0       10.114169   -3.935836   -3.125172
    123          1           0       10.216542   -4.406262   -2.148418
    124          8           0       12.436817   -4.395016   -3.671915
    125          1           0       12.381285   -4.812836   -2.798516
    126          6           0       11.208435   -3.883169   -3.996507
    127          7           0        8.583462    0.486008   -5.240068
    128          1           0        9.142407   -0.328854   -5.477580
    129          6           0        9.117531    1.730479   -5.779037
    130          1           0        8.313959    2.262092   -6.299792
    131          6           0       10.231403    1.376315   -6.798199
    132          6           0        9.638674    2.664931   -4.658035
    133          1           0        9.858254    3.640198   -5.110284
    134          1           0        8.805256    2.828327   -3.968334
    135          8           0       10.740920    2.379996   -7.412338
    136          6           0       10.871682    2.126642   -3.882843
    137          1           0       10.672772    2.139664   -2.804357
    138          1           0       11.055512    1.078846   -4.149971
    139          6           0       12.167846    2.929404   -4.101951
    140          1           0       12.033624    3.966256   -3.772871
    141          1           0       12.973067    2.504738   -3.493430
    142          7           0       12.577589    2.957900   -5.512422
    143          1           0       11.797231    3.121141   -6.174627
    144          7           0       14.639994    1.833656   -5.403135
    145          1           0       15.155635    1.015555   -5.690890
    146          1           0       14.776918    2.145825   -4.454559
    147          7           0       13.364984    1.847701   -7.354656
    148          1           0       14.094180    1.360896   -7.853858
    149          1           0       12.382053    1.898959   -7.722203
    150          6           0       13.519082    2.189839   -6.077874
    151          8           0       10.594663    0.190423   -6.888129
    152          1           0        3.654252   -5.022175    1.583893
 ---------------------------------------------------------------------

 SCF Done:  E(RB3LYP) =  -3586.63194147     A.U. after    1 cycles

 Alpha  occ. eigenvalues --  -19.26450 -19.23856 -19.21585 -19.20815 -19.18525
 Alpha  occ. eigenvalues --  -19.17572 -19.16439 -19.16327 -19.15596 -19.15532
 Alpha  occ. eigenvalues --  -19.13873 -19.11901 -19.11514 -14.59526 -14.48902
 Alpha  occ. eigenvalues --  -14.45106 -14.44381 -14.41727 -14.41601 -14.41279
 Alpha  occ. eigenvalues --  -14.40647 -14.40310 -14.39196 -14.38365 -14.37425
 Alpha  occ. eigenvalues --  -10.43136 -10.40313 -10.39158 -10.38390 -10.36658
 Alpha  occ. eigenvalues --  -10.34761 -10.34425 -10.33599 -10.33592 -10.33453
 Alpha  occ. eigenvalues --  -10.33204 -10.32347 -10.30964 -10.30864 -10.30340
 Alpha  occ. eigenvalues --  -10.29640 -10.29468 -10.28569 -10.28417 -10.28346
 Alpha  occ. eigenvalues --  -10.28262 -10.27718 -10.27465 -10.26452 -10.26154
 Alpha  occ. eigenvalues --  -10.25722 -10.25275 -10.24802 -10.24695 -10.24688
 Alpha  occ. eigenvalues --  -10.24293 -10.23734 -10.23678 -10.23602 -10.23546
 Alpha  occ. eigenvalues --  -10.23540 -10.23448 -10.23413 -10.23131 -10.22910
 Alpha  occ. eigenvalues --  -10.22852 -10.22402 -10.22092 -10.22034 -10.21986
 Alpha  occ. eigenvalues --  -10.21948 -10.21902 -10.21371 -10.21349 -10.21072
 Alpha  occ. eigenvalues --   -1.18868  -1.14870  -1.13675  -1.13123  -1.09409
 Alpha  occ. eigenvalues --   -1.08758  -1.08684  -1.07985  -1.07822  -1.07400
 Alpha  occ. eigenvalues --   -1.07005  -1.05795  -1.05570  -1.05541  -1.04757
 Alpha  occ. eigenvalues --   -1.01528  -0.98048  -0.97552  -0.97278  -0.96831
 Alpha  occ. eigenvalues --   -0.96160  -0.95535  -0.95441  -0.94884  -0.94128
 Alpha  occ. eigenvalues --   -0.93791  -0.90558  -0.89945  -0.88091  -0.86306
 Alpha  occ. eigenvalues --   -0.86038  -0.85202  -0.84868  -0.83376  -0.82555
 Alpha  occ. eigenvalues --   -0.82249  -0.81151  -0.80974  -0.80643  -0.79751
 Alpha  occ. eigenvalues --   -0.78790  -0.78293  -0.77691  -0.77429  -0.77107
 Alpha  occ. eigenvalues --   -0.75526  -0.75138  -0.73559  -0.72610  -0.72505
 Alpha  occ. eigenvalues --   -0.72400  -0.72269  -0.71266  -0.70736  -0.70207
 Alpha  occ. eigenvalues --   -0.69548  -0.69357  -0.68803  -0.68136  -0.67393
 Alpha  occ. eigenvalues --   -0.65810  -0.65186  -0.65038  -0.65026  -0.64812
 Alpha  occ. eigenvalues --   -0.64605  -0.64398  -0.63577  -0.63286  -0.62687
 Alpha  occ. eigenvalues --   -0.62413  -0.62186  -0.61998  -0.61765  -0.61523
 Alpha  occ. eigenvalues --   -0.61488  -0.60600  -0.60324  -0.59712  -0.59396
 Alpha  occ. eigenvalues --   -0.58780  -0.58208  -0.57406  -0.57102  -0.56905
 Alpha  occ. eigenvalues --   -0.56633  -0.56489  -0.56295  -0.55972  -0.55702
 Alpha  occ. eigenvalues --   -0.55155  -0.54769  -0.54388  -0.53931  -0.53511
 Alpha  occ. eigenvalues --   -0.53461  -0.53158  -0.52924  -0.52688  -0.52498
 Alpha  occ. eigenvalues --   -0.52205  -0.51891  -0.51723  -0.51561  -0.51092
 Alpha  occ. eigenvalues --   -0.50945  -0.50698  -0.50515  -0.50265  -0.50259
 Alpha  occ. eigenvalues --   -0.50019  -0.50002  -0.49748  -0.49625  -0.49381
 Alpha  occ. eigenvalues --   -0.49107  -0.48911  -0.48768  -0.48478  -0.48361
 Alpha  occ. eigenvalues --   -0.48056  -0.48029  -0.47760  -0.47521  -0.47348
 Alpha  occ. eigenvalues --   -0.47141  -0.47084  -0.46968  -0.46890  -0.46850
 Alpha  occ. eigenvalues --   -0.46349  -0.46139  -0.46067  -0.46020  -0.45819
 Alpha  occ. eigenvalues --   -0.45335  -0.45305  -0.45162  -0.44742  -0.44669
 Alpha  occ. eigenvalues --   -0.44529  -0.44488  -0.44023  -0.43920  -0.43773
 Alpha  occ. eigenvalues --   -0.43524  -0.43387  -0.43304  -0.43227  -0.42958
 Alpha  occ. eigenvalues --   -0.42678  -0.42541  -0.42358  -0.42186  -0.42098
 Alpha  occ. eigenvalues --   -0.41901  -0.41454  -0.41398  -0.41192  -0.40800
 Alpha  occ. eigenvalues --   -0.40646  -0.40568  -0.40295  -0.40073  -0.39930
 Alpha  occ. eigenvalues --   -0.39888  -0.39484  -0.39287  -0.39211  -0.38815
 Alpha  occ. eigenvalues --   -0.38671  -0.38395  -0.38388  -0.38023  -0.37934
 Alpha  occ. eigenvalues --   -0.37683  -0.37366  -0.37064  -0.36920  -0.36460
 Alpha  occ. eigenvalues --   -0.36174  -0.36106  -0.35494  -0.35284  -0.34995
 Alpha  occ. eigenvalues --   -0.34612  -0.32190  -0.31913  -0.31595  -0.31381
 Alpha  occ. eigenvalues --   -0.31343  -0.31031  -0.30943  -0.29859  -0.29624
 Alpha  occ. eigenvalues --   -0.29408  -0.29343  -0.29084  -0.28817  -0.28775
 Alpha  occ. eigenvalues --   -0.28346  -0.28007  -0.27634  -0.27205  -0.26299
 Alpha  occ. eigenvalues --   -0.25503  -0.24443
 Alpha virt. eigenvalues --   -0.11950  -0.10971  -0.07426  -0.06586  -0.05070
 Alpha virt. eigenvalues --   -0.04681  -0.04498  -0.04003  -0.03948  -0.03477
 Alpha virt. eigenvalues --   -0.03297  -0.02795  -0.01997  -0.01916  -0.01610

 Mulliken charges:
               1
     1  N   -0.763690
     2  H    0.415519
     3  H    0.435979
     4  H    0.410144
     5  C   -0.104647
     6  H    0.210487
     7  C    0.654560
     8  C   -0.110834
     9  H    0.157672
    10  O   -0.552746
    11  C   -0.468877
    12  H    0.185473
    13  H    0.193764
    14  H    0.141433
    15  C   -0.479256
    16  H    0.189678
    17  H    0.166834
    18  H    0.188607
    19  N   -0.606002
    20  H    0.382515
    21  C   -0.087130
    22  H    0.189920
    23  C    0.651513
    24  C   -0.073329
    25  H    0.145358
    26  O   -0.552246
    27  C   -0.294988
    28  H    0.178077
    29  H    0.158348
    30  C   -0.484561
    31  H    0.210927
    32  H    0.124960
    33  H    0.161668
    34  C   -0.469136
    35  H    0.171816
    36  H    0.130668
    37  H    0.159014
    38  N   -0.607934
    39  H    0.355620
    40  C   -0.048509
    41  H    0.177345
    42  C    0.646919
    43  C   -0.392617
    44  H    0.164006
    45  H    0.164472
    46  O   -0.548426
    47  C    0.163391
    48  C   -0.185391
    49  H    0.132370
    50  C   -0.189477
    51  H    0.118019
    52  C   -0.133853
    53  H    0.165251
    54  C   -0.118922
    55  H    0.135302
    56  C   -0.126092
    57  H    0.149605
    58  N   -0.594825
    59  H    0.359269
    60  C   -0.068732
    61  H    0.176464
    62  C    0.630077
    63  C   -0.250688
    64  H    0.141543
    65  H    0.145992
    66  O   -0.548174
    67  C   -0.076732
    68  H    0.140843
    69  C   -0.442738
    70  H    0.145419
    71  H    0.139387
    72  H    0.132354
    73  C   -0.462763
    74  H    0.138480
    75  H    0.133565
    76  H    0.175299
    77  N   -0.625227
    78  H    0.357112
    79  C   -0.042187
    80  H    0.169145
    81  C    0.615453
    82  C   -0.268436
    83  H    0.159622
    84  H    0.200504
    85  O   -0.544928
    86  C   -0.380893
    87  H    0.195762
    88  H    0.186096
    89  C    0.584769
    90  O   -0.465578
    91  O   -0.560154
    92  N   -0.630932
    93  H    0.359181
    94  C   -0.053027
    95  H    0.201738
    96  C    0.613709
    97  C   -0.367326
    98  H    0.200544
    99  H    0.180639
   100  O   -0.548033
   101  C    0.625490
   102  N   -0.731062
   103  H    0.346021
   104  H    0.344624
   105  O   -0.529892
   106  N   -0.607623
   107  H    0.374346
   108  C   -0.075147
   109  H    0.202997
   110  C    0.614347
   111  C   -0.383827
   112  H    0.173214
   113  H    0.162447
   114  O   -0.559505
   115  C    0.145919
   116  C   -0.201264
   117  H    0.167362
   118  C   -0.187482
   119  H    0.136915
   120  C   -0.162724
   121  H    0.140168
   122  C   -0.193719
   123  H    0.119042
   124  O   -0.645793
   125  H    0.406751
   126  C    0.346780
   127  N   -0.623110
   128  H    0.379074
   129  C   -0.040009
   130  H    0.164389
   131  C    0.589253
   132  C   -0.289198
   133  H    0.146586
   134  H    0.171507
   135  O   -0.644915
   136  C   -0.270478
   137  H    0.149827
   138  H    0.168589
   139  C   -0.169989
   140  H    0.173435
   141  H    0.135908
   142  N   -0.604545
   143  H    0.401240
   144  N   -0.760159
   145  H    0.363165
   146  H    0.365000
   147  N   -0.759972
   148  H    0.344090
   149  H    0.419935
   150  C    0.775433
   151  O   -0.566288
   152  H    0.412678
 Sum of Mulliken charges =   1.00000

 Dipole moment (field-independent basis, Debye):
    X=            -21.2451    Y=             21.6460    Z=             20.5097  Tot=             36.6136
 Quadrupole moment (field-independent basis, Debye-Ang):
   XX=            253.3154   YY=           -299.0554   ZZ=           -333.5174
   XY=           -187.6148   XZ=           -256.9009   YZ=             89.4702

 Normal termination of Gaussian 16 at Fri Aug 12 04:46:06 2022.
