 Gaussian 16, Revision C.01,
 Gaussian 16:  ES64L-G16RevC.01  3-Jul-2019

 -------------------------------------------------------------------
 # B3LYP/6-31G* guess=read geom=check nosymm integral(ultrafinegrid)
 -------------------------------------------------------------------

 -----------------------------------------------------
 Candidate Structure: Conf:34 Charge calc in gas phase
 -----------------------------------------------------
 Structure from the checkpoint file:  "conf-34.chk"
 Charge =  1 Multiplicity = 1

                          Input orientation:
 ---------------------------------------------------------------------
 Center     Atomic      Atomic             Coordinates (Angstroms)
 Number     Number       Type             X           Y           Z
 ---------------------------------------------------------------------
      1          7           0      -10.793673    0.012873    7.786313
      2          1           0      -11.607847    0.558258    8.078848
      3          1           0      -10.911627   -0.302336    6.769335
      4          1           0      -10.702504   -0.796761    8.405627
      5          6           0       -9.518789    0.830484    7.691735
      6          1           0       -9.745207    1.836554    8.054529
      7          6           0       -9.254787    0.854162    6.157677
      8          6           0       -8.369898    0.212705    8.523084
      9          1           0       -7.498083    0.843575    8.306549
     10          8           0       -9.981468    0.143539    5.442726
     11          6           0       -8.653996    0.310186   10.030499
     12          1           0       -9.503342   -0.315834   10.337514
     13          1           0       -7.786747   -0.039693   10.597931
     14          1           0       -8.862308    1.340129   10.340587
     15          6           0       -8.024563   -1.222009    8.090037
     16          1           0       -8.825903   -1.938188    8.320153
     17          1           0       -7.805975   -1.292848    7.020041
     18          1           0       -7.140255   -1.565510    8.634027
     19          7           0       -8.270979    1.640522    5.745697
     20          1           0       -7.635532    2.087844    6.410531
     21          6           0       -7.700562    1.666918    4.390849
     22          1           0       -8.018966    0.759134    3.869036
     23          6           0       -6.175299    1.657952    4.667926
     24          6           0       -8.156203    2.923924    3.587699
     25          1           0       -7.768803    3.799567    4.129509
     26          8           0       -5.760177    2.161737    5.720858
     27          6           0       -9.696287    3.025220    3.546619
     28          1           0      -10.084469    2.966348    4.570598
     29          1           0      -10.100624    2.153638    3.013627
     30          6           0       -7.551178    2.917073    2.174400
     31          1           0       -7.900307    2.049150    1.599635
     32          1           0       -6.458731    2.897943    2.187123
     33          1           0       -7.850567    3.814352    1.627068
     34          6           0      -10.224871    4.315977    2.908457
     35          1           0      -11.314561    4.369995    3.004421
     36          1           0       -9.803964    5.203223    3.397093
     37          1           0       -9.990585    4.378712    1.841535
     38          7           0       -5.393124    1.089107    3.744276
     39          1           0       -5.757620    0.701257    2.875279
     40          6           0       -3.935501    1.058380    3.816635
     41          1           0       -3.583095    2.016350    4.210990
     42          6           0       -3.473748    0.862011    2.357370
     43          6           0       -3.455028   -0.084160    4.757736
     44          1           0       -3.767640   -1.039854    4.321348
     45          1           0       -4.005404    0.045735    5.696775
     46          8           0       -4.251260    0.365634    1.533483
     47          6           0       -1.965965   -0.085478    5.028377
     48          6           0       -1.135969   -1.080862    4.496899
     49          1           0       -1.570988   -1.869893    3.886956
     50          6           0       -1.388827    0.919904    5.819050
     51          1           0       -2.022062    1.690858    6.254925
     52          6           0        0.238084   -1.073089    4.743301
     53          1           0        0.879398   -1.843205    4.326451
     54          6           0       -0.014673    0.934636    6.061452
     55          1           0        0.416352    1.722072    6.673918
     56          6           0        0.801975   -0.061283    5.522067
     57          1           0        1.872817   -0.058337    5.700606
     58          7           0       -2.221288    1.249150    2.073013
     59          1           0       -1.605771    1.640251    2.781180
     60          6           0       -1.605913    1.073167    0.758378
     61          1           0       -1.916708    0.100600    0.365679
     62          6           0       -0.090078    1.110814    1.016093
     63          6           0       -2.049568    2.200261   -0.207215
     64          1           0       -1.692647    3.149317    0.212921
     65          1           0       -3.146160    2.224757   -0.181938
     66          8           0        0.367261    1.826688    1.908850
     67          6           0       -1.585193    2.074466   -1.672136
     68          1           0       -0.488959    1.996517   -1.684928
     69          6           0       -2.162498    0.831401   -2.368402
     70          1           0       -3.259607    0.846719   -2.349115
     71          1           0       -1.838933   -0.106103   -1.901291
     72          1           0       -1.846631    0.793060   -3.416976
     73          6           0       -1.968372    3.347652   -2.442736
     74          1           0       -3.057656    3.482246   -2.462104
     75          1           0       -1.622140    3.297657   -3.481350
     76          1           0       -1.528481    4.241069   -1.984640
     77          7           0        0.674394    0.343344    0.211814
     78          1           0        0.281311   -0.257541   -0.506360
     79          6           0        2.125299    0.286240    0.318989
     80          1           0        2.505539    1.306272    0.450074
     81          6           0        2.616184   -0.309277   -1.013288
     82          6           0        2.544737   -0.571812    1.539049
     83          1           0        2.263839   -1.614843    1.351991
     84          1           0        1.951140   -0.225606    2.388418
     85          8           0        1.868241   -1.008150   -1.702070
     86          6           0        4.027029   -0.479635    1.907308
     87          1           0        4.686921   -0.878265    1.129197
     88          1           0        4.332001    0.567598    2.047907
     89          6           0        4.337160   -1.204152    3.201057
     90          8           0        3.525353   -1.669277    3.974407
     91          8           0        5.669254   -1.271363    3.420785
     92          7           0        3.894260   -0.039434   -1.344325
     93          1           0        4.489895    0.566881   -0.786335
     94          6           0        4.561604   -0.612176   -2.502112
     95          1           0        4.300972   -1.671465   -2.582028
     96          6           0        6.071248   -0.437443   -2.228124
     97          6           0        4.128646    0.108958   -3.804765
     98          1           0        3.055654    0.312540   -3.725232
     99          1           0        4.641965    1.076538   -3.895538
    100          8           0        6.447548    0.377014   -1.375239
    101          6           0        4.374880   -0.711557   -5.066065
    102          7           0        3.724745   -0.269491   -6.172599
    103          1           0        3.845409   -0.777342   -7.038035
    104          1           0        3.085770    0.510826   -6.150659
    105          8           0        5.110383   -1.700061   -5.107268
    106          7           0        6.904894   -1.175140   -2.986220
    107          1           0        6.479604   -1.669134   -3.774936
    108          6           0        8.352339   -0.923226   -2.994484
    109          1           0        8.575776   -0.442673   -2.038032
    110          6           0        8.669991    0.075180   -4.139572
    111          6           0        9.150922   -2.235060   -3.119615
    112          1           0        8.622840   -2.989104   -2.525127
    113          1           0        9.129740   -2.562412   -4.164064
    114          8           0        9.389027   -0.210625   -5.094345
    115          6           0       10.583164   -2.124906   -2.631010
    116          6           0       11.634503   -1.771796   -3.490803
    117          1           0       11.413693   -1.560247   -4.531766
    118          6           0       10.891715   -2.373866   -1.288261
    119          1           0       10.099875   -2.658959   -0.598281
    120          6           0       12.943791   -1.671656   -3.029754
    121          1           0       13.756020   -1.402744   -3.698070
    122          6           0       12.198424   -2.274118   -0.810239
    123          1           0       12.414603   -2.477161    0.237497
    124          8           0       14.535320   -1.809709   -1.283855
    125          1           0       14.593023   -2.017622   -0.338419
    126          6           0       13.231162   -1.922088   -1.684048
    127          7           0        8.030127    1.266418   -4.025291
    128          1           0        7.426833    1.440639   -3.228134
    129          6           0        8.031084    2.274582   -5.079238
    130          1           0        9.045268    2.666790   -5.199061
    131          6           0        7.080451    3.392473   -4.617829
    132          6           0        7.525476    1.711462   -6.459202
    133          1           0        7.113026    0.719142   -6.263449
    134          1           0        6.680412    2.317570   -6.815378
    135          8           0        6.044122    3.124993   -4.032155
    136          6           0        8.597170    1.609317   -7.565838
    137          1           0        9.577382    1.445697   -7.107750
    138          1           0        8.400392    0.717615   -8.175004
    139          6           0        8.647024    2.807668   -8.528652
    140          1           0        9.452463    2.663471   -9.255749
    141          1           0        7.717415    2.868679   -9.106183
    142          7           0        8.808913    4.121889   -7.887329
    143          1           0        7.980042    4.434425   -7.393031
    144          7           0       11.136791    4.151937   -7.791831
    145          1           0       11.979215    4.480609   -7.340644
    146          1           0       11.159079    4.203900   -8.802027
    147          7           0        9.808974    5.000846   -6.004350
    148          1           0       10.675951    5.364384   -5.614520
    149          1           0        8.366084    4.764454   -5.269028
    150          6           0        9.943631    4.459409   -7.176829
    151          8           0        7.395191    4.636178   -4.951054
    152          1           0        5.786119   -1.732997    4.272783
 ---------------------------------------------------------------------

 SCF Done:  E(RB3LYP) =  -3586.62874456     A.U. after    2 cycles

 Alpha  occ. eigenvalues --  -19.26688 -19.24239 -19.21055 -19.20096 -19.19899
 Alpha  occ. eigenvalues --  -19.18924 -19.18384 -19.17432 -19.17153 -19.16973
 Alpha  occ. eigenvalues --  -19.16878 -19.16025 -19.15007 -14.59538 -14.49014
 Alpha  occ. eigenvalues --  -14.44670 -14.42221 -14.41381 -14.41372 -14.41203
 Alpha  occ. eigenvalues --  -14.41060 -14.40044 -14.39761 -14.38915 -14.35627
 Alpha  occ. eigenvalues --  -10.43265 -10.40369 -10.38171 -10.37063 -10.35510
 Alpha  occ. eigenvalues --  -10.34993 -10.34802 -10.34486 -10.34483 -10.34264
 Alpha  occ. eigenvalues --  -10.34191 -10.33754 -10.33723 -10.31895 -10.30989
 Alpha  occ. eigenvalues --  -10.30840 -10.30713 -10.28976 -10.28946 -10.28918
 Alpha  occ. eigenvalues --  -10.28651 -10.27094 -10.27052 -10.26822 -10.26688
 Alpha  occ. eigenvalues --  -10.26517 -10.26101 -10.25480 -10.25151 -10.24992
 Alpha  occ. eigenvalues --  -10.24897 -10.24809 -10.24102 -10.23963 -10.23939
 Alpha  occ. eigenvalues --  -10.23791 -10.23743 -10.23671 -10.23278 -10.23220
 Alpha  occ. eigenvalues --  -10.23181 -10.22200 -10.22113 -10.21930 -10.21867
 Alpha  occ. eigenvalues --  -10.21427 -10.21237 -10.21226 -10.20636 -10.20440
 Alpha  occ. eigenvalues --   -1.19031  -1.15258  -1.13553  -1.12899  -1.11487
 Alpha  occ. eigenvalues --   -1.10328  -1.09558  -1.09080  -1.08743  -1.08304
 Alpha  occ. eigenvalues --   -1.08067  -1.06650  -1.06197  -1.05686  -1.03888
 Alpha  occ. eigenvalues --   -1.03178  -1.01144  -0.98709  -0.98003  -0.97705
 Alpha  occ. eigenvalues --   -0.97034  -0.96047  -0.95220  -0.95204  -0.94375
 Alpha  occ. eigenvalues --   -0.90769  -0.90598  -0.90317  -0.87440  -0.86716
 Alpha  occ. eigenvalues --   -0.86501  -0.85543  -0.85177  -0.83653  -0.82855
 Alpha  occ. eigenvalues --   -0.82615  -0.81866  -0.81127  -0.80893  -0.79426
 Alpha  occ. eigenvalues --   -0.79087  -0.78682  -0.77903  -0.77587  -0.76767
 Alpha  occ. eigenvalues --   -0.75609  -0.74098  -0.73697  -0.73347  -0.73032
 Alpha  occ. eigenvalues --   -0.72885  -0.72707  -0.71599  -0.71543  -0.71090
 Alpha  occ. eigenvalues --   -0.70316  -0.69321  -0.68009  -0.66997  -0.66824
 Alpha  occ. eigenvalues --   -0.66449  -0.65597  -0.65161  -0.64768  -0.64485
 Alpha  occ. eigenvalues --   -0.64366  -0.64191  -0.63973  -0.63521  -0.63252
 Alpha  occ. eigenvalues --   -0.62914  -0.62854  -0.62360  -0.61971  -0.61654
 Alpha  occ. eigenvalues --   -0.61081  -0.60734  -0.60649  -0.59644  -0.59357
 Alpha  occ. eigenvalues --   -0.59265  -0.59149  -0.58416  -0.57873  -0.57658
 Alpha  occ. eigenvalues --   -0.57002  -0.56624  -0.56365  -0.55981  -0.55514
 Alpha  occ. eigenvalues --   -0.55182  -0.55017  -0.54553  -0.54357  -0.54088
 Alpha  occ. eigenvalues --   -0.53814  -0.53445  -0.53298  -0.52779  -0.52560
 Alpha  occ. eigenvalues --   -0.52499  -0.52279  -0.52156  -0.52057  -0.51892
 Alpha  occ. eigenvalues --   -0.51678  -0.51217  -0.51088  -0.50772  -0.50742
 Alpha  occ. eigenvalues --   -0.50438  -0.50321  -0.49958  -0.49785  -0.49695
 Alpha  occ. eigenvalues --   -0.49491  -0.49257  -0.49008  -0.49001  -0.48603
 Alpha  occ. eigenvalues --   -0.48324  -0.48253  -0.48171  -0.48082  -0.47782
 Alpha  occ. eigenvalues --   -0.47591  -0.47454  -0.47387  -0.47090  -0.46787
 Alpha  occ. eigenvalues --   -0.46712  -0.46596  -0.46467  -0.46258  -0.45939
 Alpha  occ. eigenvalues --   -0.45871  -0.45822  -0.45663  -0.45179  -0.45136
 Alpha  occ. eigenvalues --   -0.44872  -0.44626  -0.44391  -0.44293  -0.44167
 Alpha  occ. eigenvalues --   -0.44027  -0.43947  -0.43638  -0.43356  -0.43233
 Alpha  occ. eigenvalues --   -0.42949  -0.42829  -0.42817  -0.42372  -0.42204
 Alpha  occ. eigenvalues --   -0.42028  -0.41807  -0.41411  -0.41391  -0.41307
 Alpha  occ. eigenvalues --   -0.40941  -0.40773  -0.40757  -0.40690  -0.40437
 Alpha  occ. eigenvalues --   -0.40412  -0.39880  -0.39706  -0.39516  -0.39166
 Alpha  occ. eigenvalues --   -0.39130  -0.38777  -0.38662  -0.38440  -0.38433
 Alpha  occ. eigenvalues --   -0.38227  -0.37655  -0.37471  -0.37329  -0.37316
 Alpha  occ. eigenvalues --   -0.36573  -0.35592  -0.35130  -0.34797  -0.34459
 Alpha  occ. eigenvalues --   -0.33545  -0.33224  -0.32850  -0.32686  -0.32554
 Alpha  occ. eigenvalues --   -0.32003  -0.31831  -0.31760  -0.31750  -0.31289
 Alpha  occ. eigenvalues --   -0.30920  -0.30520  -0.30289  -0.30087  -0.29882
 Alpha  occ. eigenvalues --   -0.29700  -0.29075  -0.28992  -0.28227  -0.27610
 Alpha  occ. eigenvalues --   -0.27167  -0.23845
 Alpha virt. eigenvalues --   -0.12076  -0.11177  -0.07246  -0.06693  -0.05212
 Alpha virt. eigenvalues --   -0.04997  -0.04522  -0.04041  -0.03861  -0.03769
 Alpha virt. eigenvalues --   -0.03206  -0.02747  -0.02400  -0.02206  -0.02156

 Mulliken charges:
               1
     1  N   -0.763855
     2  H    0.415215
     3  H    0.435975
     4  H    0.409110
     5  C   -0.102141
     6  H    0.213408
     7  C    0.650329
     8  C   -0.127727
     9  H    0.195106
    10  O   -0.547392
    11  C   -0.461740
    12  H    0.138791
    13  H    0.199589
    14  H    0.172611
    15  C   -0.477737
    16  H    0.141790
    17  H    0.187522
    18  H    0.200790
    19  N   -0.596610
    20  H    0.372801
    21  C   -0.077398
    22  H    0.183657
    23  C    0.630735
    24  C   -0.072427
    25  H    0.143360
    26  O   -0.561061
    27  C   -0.250949
    28  H    0.117619
    29  H    0.149170
    30  C   -0.478976
    31  H    0.154977
    32  H    0.167750
    33  H    0.173838
    34  C   -0.453744
    35  H    0.155142
    36  H    0.150805
    37  H    0.163219
    38  N   -0.612635
    39  H    0.365736
    40  C   -0.050518
    41  H    0.183985
    42  C    0.627674
    43  C   -0.349573
    44  H    0.155490
    45  H    0.165705
    46  O   -0.557854
    47  C    0.153188
    48  C   -0.186978
    49  H    0.127100
    50  C   -0.199000
    51  H    0.130652
    52  C   -0.134437
    53  H    0.165228
    54  C   -0.121072
    55  H    0.136793
    56  C   -0.128694
    57  H    0.149431
    58  N   -0.619307
    59  H    0.366904
    60  C   -0.040486
    61  H    0.170958
    62  C    0.622721
    63  C   -0.256933
    64  H    0.148540
    65  H    0.156255
    66  O   -0.545983
    67  C   -0.086242
    68  H    0.133345
    69  C   -0.448032
    70  H    0.149709
    71  H    0.140559
    72  H    0.149087
    73  C   -0.443426
    74  H    0.141242
    75  H    0.145950
    76  H    0.148021
    77  N   -0.628589
    78  H    0.361024
    79  C   -0.043738
    80  H    0.175425
    81  C    0.619262
    82  C   -0.268932
    83  H    0.158455
    84  H    0.200913
    85  O   -0.549749
    86  C   -0.379177
    87  H    0.192079
    88  H    0.190089
    89  C    0.585335
    90  O   -0.465850
    91  O   -0.559413
    92  N   -0.630554
    93  H    0.364788
    94  C   -0.028500
    95  H    0.194703
    96  C    0.593035
    97  C   -0.415340
    98  H    0.186511
    99  H    0.233158
   100  O   -0.554826
   101  C    0.632970
   102  N   -0.744669
   103  H    0.352209
   104  H    0.350047
   105  O   -0.535249
   106  N   -0.614047
   107  H    0.385690
   108  C   -0.074743
   109  H    0.197019
   110  C    0.628418
   111  C   -0.356923
   112  H    0.149958
   113  H    0.168563
   114  O   -0.529991
   115  C    0.145619
   116  C   -0.183835
   117  H    0.159939
   118  C   -0.188287
   119  H    0.122190
   120  C   -0.161279
   121  H    0.137698
   122  C   -0.193114
   123  H    0.116135
   124  O   -0.643026
   125  H    0.406491
   126  C    0.350010
   127  N   -0.645697
   128  H    0.369700
   129  C   -0.000430
   130  H    0.175036
   131  C    0.548704
   132  C   -0.297109
   133  H    0.177090
   134  H    0.139327
   135  O   -0.480758
   136  C   -0.264354
   137  H    0.184513
   138  H    0.145983
   139  C   -0.159966
   140  H    0.151743
   141  H    0.155312
   142  N   -0.587051
   143  H    0.335409
   144  N   -0.740956
   145  H    0.341005
   146  H    0.347306
   147  N   -0.740204
   148  H    0.294244
   149  H    0.465879
   150  C    0.668933
   151  O   -0.609637
   152  H    0.413424
 Sum of Mulliken charges =   1.00000

 Dipole moment (field-independent basis, Debye):
    X=            -30.0119    Y=              5.0726    Z=             22.1165  Tot=             37.6243
 Quadrupole moment (field-independent basis, Debye-Ang):
   XX=             58.9041   YY=           -432.7028   ZZ=            -92.5160
   XY=             15.0168   XZ=           -364.0254   YZ=            -33.6773

 Normal termination of Gaussian 16 at Fri Aug 12 04:46:31 2022.
