 Gaussian 16, Revision C.01,
 Gaussian 16:  ES64L-G16RevC.01  3-Jul-2019

 -------------------------------------------------------------------
 # B3LYP/6-31G* guess=read geom=check nosymm integral(ultrafinegrid)
 -------------------------------------------------------------------

 ------------------------------------------------------
 Candidate Structure: Conf:727 Charge calc in gas phase
 ------------------------------------------------------
 Structure from the checkpoint file:  "conf-727.chk"
 Charge =  1 Multiplicity = 1

                          Input orientation:
 ---------------------------------------------------------------------
 Center     Atomic      Atomic             Coordinates (Angstroms)
 Number     Number       Type             X           Y           Z
 ---------------------------------------------------------------------
      1          7           0       -5.365055   -2.308975    8.992505
      2          1           0       -6.108955   -2.960627    9.257034
      3          1           0       -4.719257   -2.785281    8.290071
      4          1           0       -4.855036   -2.033913    9.836483
      5          6           0       -5.868647   -1.121532    8.188191
      6          1           0       -6.956366   -1.089104    8.288374
      7          6           0       -5.448374   -1.515999    6.741420
      8          6           0       -5.244363    0.193056    8.729126
      9          1           0       -5.456755    0.186704    9.809736
     10          8           0       -4.620458   -2.435586    6.626589
     11          6           0       -3.721634    0.256819    8.527158
     12          1           0       -3.461520    0.302843    7.464531
     13          1           0       -3.326015    1.157288    9.005558
     14          1           0       -3.187655   -0.597663    8.961867
     15          6           0       -5.945714    1.432157    8.148172
     16          1           0       -5.731814    1.577460    7.084450
     17          1           0       -7.032773    1.385084    8.283044
     18          1           0       -5.591294    2.323896    8.673651
     19          7           0       -6.013818   -0.846328    5.744923
     20          1           0       -6.587126   -0.023484    5.928221
     21          6           0       -5.624622   -0.932159    4.328918
     22          1           0       -4.675693   -1.470849    4.270207
     23          6           0       -5.456906    0.546833    3.910479
     24          6           0       -6.719149   -1.656528    3.488474
     25          1           0       -7.641228   -1.075749    3.634446
     26          8           0       -6.157393    1.408012    4.460405
     27          6           0       -7.000987   -3.090631    3.994104
     28          1           0       -7.890485   -3.446654    3.458757
     29          1           0       -7.291345   -3.048340    5.052208
     30          6           0       -6.388584   -1.638278    1.986214
     31          1           0       -5.406646   -2.076204    1.772743
     32          1           0       -6.398861   -0.626118    1.573473
     33          1           0       -7.133434   -2.224483    1.438041
     34          6           0       -5.868564   -4.110445    3.816143
     35          1           0       -6.190099   -5.093266    4.177599
     36          1           0       -5.588547   -4.230336    2.764596
     37          1           0       -4.972242   -3.834077    4.381496
     38          7           0       -4.541185    0.807904    2.968845
     39          1           0       -4.034067    0.070955    2.480465
     40          6           0       -4.348834    2.127921    2.382275
     41          1           0       -5.330307    2.571645    2.182510
     42          6           0       -3.595431    1.874831    1.060760
     43          6           0       -3.556510    3.079052    3.334130
     44          1           0       -2.489329    2.841363    3.271003
     45          1           0       -3.890248    2.844013    4.349658
     46          8           0       -3.157104    0.753217    0.795973
     47          6           0       -3.795129    4.552022    3.066629
     48          6           0       -2.815729    5.355677    2.464216
     49          1           0       -1.869471    4.913378    2.162021
     50          6           0       -5.020161    5.133536    3.430919
     51          1           0       -5.781404    4.517151    3.905497
     52          6           0       -3.059890    6.713690    2.235060
     53          1           0       -2.289970    7.326609    1.774098
     54          6           0       -5.261686    6.487053    3.200180
     55          1           0       -6.213078    6.923938    3.491479
     56          6           0       -4.279928    7.281958    2.602091
     57          1           0       -4.465946    8.337819    2.426401
     58          7           0       -3.445273    2.940933    0.243692
     59          1           0       -3.651018    3.859053    0.623081
     60          6           0       -2.514596    2.887539   -0.883108
     61          1           0       -2.795507    2.028188   -1.498524
     62          6           0       -1.077823    2.697710   -0.344711
     63          6           0       -2.641500    4.197873   -1.684925
     64          1           0       -2.333030    5.020698   -1.025878
     65          1           0       -3.706492    4.348919   -1.909686
     66          8           0       -0.680318    3.312629    0.645088
     67          6           0       -1.836356    4.274568   -2.997389
     68          1           0       -0.780869    4.073598   -2.766630
     69          6           0       -2.303900    3.243290   -4.036498
     70          1           0       -3.365595    3.382958   -4.277362
     71          1           0       -2.173424    2.209695   -3.695442
     72          1           0       -1.736715    3.349864   -4.967875
     73          6           0       -1.925998    5.696502   -3.572782
     74          1           0       -2.963032    5.956809   -3.820529
     75          1           0       -1.333847    5.786012   -4.490249
     76          1           0       -1.554753    6.441500   -2.859651
     77          7           0       -0.299258    1.846897   -1.050478
     78          1           0       -0.668703    1.299757   -1.819807
     79          6           0        1.082413    1.561327   -0.695579
     80          1           0        1.585017    2.501252   -0.456153
     81          6           0        1.731711    0.926540   -1.932344
     82          6           0        1.131124    0.635347    0.554029
     83          1           0        0.616921   -0.301303    0.309526
     84          1           0        0.533337    1.141321    1.317905
     85          8           0        1.024323    0.421649   -2.822230
     86          6           0        2.518150    0.288081    1.139281
     87          1           0        2.380605   -0.288617    2.057393
     88          1           0        3.099062   -0.329533    0.445093
     89          6           0        3.378033    1.497345    1.428379
     90          8           0        3.731590    2.310542    0.590200
     91          8           0        3.737747    1.599292    2.719054
     92          7           0        3.074873    0.937657   -1.967970
     93          1           0        3.586565    1.341298   -1.178034
     94          6           0        3.851298    0.141844   -2.906102
     95          1           0        3.212401   -0.678962   -3.249248
     96          6           0        5.031518   -0.484494   -2.113537
     97          6           0        4.356326    0.954491   -4.135580
     98          1           0        4.329301    2.021839   -3.884494
     99          1           0        5.401293    0.715149   -4.346087
    100          8           0        5.235884   -0.177472   -0.938562
    101          6           0        3.607379    0.767321   -5.454939
    102          7           0        2.284552    0.559518   -5.401737
    103          1           0        1.797900    0.436919   -6.280547
    104          1           0        1.761104    0.482563   -4.522967
    105          8           0        4.219576    0.825706   -6.539216
    106          7           0        5.772997   -1.357146   -2.814358
    107          1           0        5.561237   -1.616318   -3.775430
    108          6           0        6.977304   -2.009183   -2.321724
    109          1           0        7.583829   -1.266149   -1.792456
    110          6           0        7.743449   -2.490922   -3.580123
    111          6           0        6.672060   -3.161284   -1.321135
    112          1           0        7.633051   -3.583984   -1.007524
    113          1           0        6.223013   -2.697107   -0.436860
    114          8           0        7.133657   -2.531432   -4.679664
    115          6           0        5.763094   -4.243386   -1.858809
    116          6           0        4.377303   -4.188591   -1.648715
    117          1           0        3.961805   -3.370653   -1.063610
    118          6           0        6.268178   -5.325254   -2.591491
    119          1           0        7.338247   -5.403893   -2.764610
    120          6           0        3.520725   -5.163367   -2.153596
    121          1           0        2.449474   -5.120399   -1.981796
    122          6           0        5.425456   -6.310754   -3.103197
    123          1           0        5.842109   -7.144138   -3.666281
    124          8           0        3.165807   -7.165822   -3.361830
    125          1           0        3.661248   -7.850578   -3.837664
    126          6           0        4.046109   -6.231061   -2.887997
    127          7           0        8.998026   -2.832981   -3.346975
    128          1           0        9.485760   -2.589052   -2.453599
    129          6           0       10.084977   -3.295186   -4.220344
    130          1           0       10.114448   -4.393031   -4.171822
    131          6           0       11.409226   -2.757964   -3.502466
    132          6           0       10.006159   -2.888938   -5.687605
    133          1           0       10.915634   -3.286595   -6.147885
    134          1           0        9.139100   -3.362901   -6.163563
    135          8           0       12.424193   -2.731941   -4.214241
    136          6           0        9.948330   -1.370771   -5.897538
    137          1           0        9.215955   -0.933160   -5.209894
    138          1           0       10.919596   -0.935898   -5.642660
    139          6           0        9.540627   -1.014387   -7.336731
    140          1           0       10.406067   -0.943110   -8.001059
    141          1           0        8.883930   -1.785484   -7.753392
    142          7           0        8.809484    0.259537   -7.456555
    143          1           0        9.347001    1.112704   -7.534100
    144          7           0        6.774331   -0.630763   -6.732302
    145          1           0        5.774357   -0.454961   -6.654142
    146          1           0        7.154318   -1.391100   -6.151705
    147          7           0        6.896662    1.582492   -7.381381
    148          1           0        5.902538    1.632939   -7.154448
    149          1           0        7.258033    2.214328   -8.081291
    150          6           0        7.504945    0.390980   -7.182244
    151          8           0       11.225447   -2.434077   -2.295052
    152          1           0        4.316787    2.383435    2.788909
 ---------------------------------------------------------------------

 SCF Done:  E(RB3LYP) =  -3586.61497752     A.U. after    2 cycles

 Alpha  occ. eigenvalues --  -19.27394 -19.26358 -19.22123 -19.21359 -19.20783
 Alpha  occ. eigenvalues --  -19.20460 -19.20347 -19.19796 -19.18226 -19.17763
 Alpha  occ. eigenvalues --  -19.15582 -19.05913 -19.04944 -14.60418 -14.50035
 Alpha  occ. eigenvalues --  -14.45681 -14.45107 -14.44125 -14.43834 -14.43259
 Alpha  occ. eigenvalues --  -14.42930 -14.42746 -14.42681 -14.41203 -14.37234
 Alpha  occ. eigenvalues --  -10.44156 -10.41156 -10.40599 -10.39144 -10.38933
 Alpha  occ. eigenvalues --  -10.37377 -10.37216 -10.36936 -10.35361 -10.35119
 Alpha  occ. eigenvalues --  -10.35075 -10.34572 -10.32294 -10.32155 -10.31307
 Alpha  occ. eigenvalues --  -10.30948 -10.30559 -10.30467 -10.30223 -10.29530
 Alpha  occ. eigenvalues --  -10.28361 -10.28178 -10.27593 -10.27559 -10.27347
 Alpha  occ. eigenvalues --  -10.27224 -10.26585 -10.26580 -10.26477 -10.26413
 Alpha  occ. eigenvalues --  -10.25831 -10.25650 -10.25516 -10.25515 -10.25460
 Alpha  occ. eigenvalues --  -10.25370 -10.25296 -10.25088 -10.23883 -10.23787
 Alpha  occ. eigenvalues --  -10.23300 -10.22786 -10.22626 -10.22425 -10.22356
 Alpha  occ. eigenvalues --  -10.22302 -10.22056 -10.21765 -10.21403 -10.19603
 Alpha  occ. eigenvalues --   -1.19795  -1.17320  -1.14413  -1.13862  -1.12317
 Alpha  occ. eigenvalues --   -1.11949  -1.11015  -1.09918  -1.09555  -1.09331
 Alpha  occ. eigenvalues --   -1.09166  -1.08108  -1.06549  -1.06327  -1.02232
 Alpha  occ. eigenvalues --   -1.00495  -1.00088  -0.99243  -0.99155  -0.98857
 Alpha  occ. eigenvalues --   -0.97894  -0.97707  -0.96593  -0.95624  -0.93965
 Alpha  occ. eigenvalues --   -0.92253  -0.91242  -0.90343  -0.88710  -0.88407
 Alpha  occ. eigenvalues --   -0.87183  -0.86936  -0.86538  -0.85479  -0.83427
 Alpha  occ. eigenvalues --   -0.82989  -0.82447  -0.81916  -0.81773  -0.80800
 Alpha  occ. eigenvalues --   -0.80675  -0.80051  -0.79233  -0.78140  -0.77829
 Alpha  occ. eigenvalues --   -0.76563  -0.75937  -0.74996  -0.74548  -0.74443
 Alpha  occ. eigenvalues --   -0.74188  -0.73195  -0.72832  -0.72192  -0.71993
 Alpha  occ. eigenvalues --   -0.70929  -0.69878  -0.69590  -0.68952  -0.68390
 Alpha  occ. eigenvalues --   -0.67376  -0.67008  -0.66783  -0.66722  -0.66305
 Alpha  occ. eigenvalues --   -0.66190  -0.65847  -0.65563  -0.65218  -0.64733
 Alpha  occ. eigenvalues --   -0.64647  -0.64486  -0.63549  -0.63225  -0.62852
 Alpha  occ. eigenvalues --   -0.62614  -0.62210  -0.61653  -0.61508  -0.60720
 Alpha  occ. eigenvalues --   -0.60105  -0.59208  -0.58869  -0.58265  -0.58248
 Alpha  occ. eigenvalues --   -0.57776  -0.57389  -0.57204  -0.56782  -0.56755
 Alpha  occ. eigenvalues --   -0.56520  -0.56393  -0.56245  -0.56000  -0.55762
 Alpha  occ. eigenvalues --   -0.55561  -0.54669  -0.54278  -0.54116  -0.53538
 Alpha  occ. eigenvalues --   -0.53514  -0.53459  -0.53131  -0.53019  -0.52699
 Alpha  occ. eigenvalues --   -0.52413  -0.52342  -0.52243  -0.51937  -0.51794
 Alpha  occ. eigenvalues --   -0.51547  -0.51047  -0.50950  -0.50873  -0.50735
 Alpha  occ. eigenvalues --   -0.50685  -0.50463  -0.49877  -0.49651  -0.49557
 Alpha  occ. eigenvalues --   -0.49472  -0.49212  -0.48802  -0.48735  -0.48626
 Alpha  occ. eigenvalues --   -0.48350  -0.48264  -0.48209  -0.48162  -0.47878
 Alpha  occ. eigenvalues --   -0.47768  -0.47623  -0.47603  -0.47501  -0.47415
 Alpha  occ. eigenvalues --   -0.47265  -0.46899  -0.46778  -0.46565  -0.46467
 Alpha  occ. eigenvalues --   -0.46137  -0.45820  -0.45698  -0.45573  -0.45158
 Alpha  occ. eigenvalues --   -0.44972  -0.44754  -0.44462  -0.44150  -0.44074
 Alpha  occ. eigenvalues --   -0.43830  -0.43780  -0.43676  -0.43330  -0.43287
 Alpha  occ. eigenvalues --   -0.42721  -0.42479  -0.42221  -0.42161  -0.42057
 Alpha  occ. eigenvalues --   -0.41921  -0.41719  -0.41618  -0.41376  -0.41328
 Alpha  occ. eigenvalues --   -0.41280  -0.40701  -0.40525  -0.40225  -0.39618
 Alpha  occ. eigenvalues --   -0.39526  -0.39354  -0.39026  -0.38948  -0.38335
 Alpha  occ. eigenvalues --   -0.38188  -0.37893  -0.37018  -0.36592  -0.36348
 Alpha  occ. eigenvalues --   -0.36079  -0.36023  -0.35832  -0.35611  -0.35172
 Alpha  occ. eigenvalues --   -0.35022  -0.34822  -0.34608  -0.34438  -0.34271
 Alpha  occ. eigenvalues --   -0.33952  -0.33628  -0.33176  -0.32799  -0.32022
 Alpha  occ. eigenvalues --   -0.31769  -0.31609  -0.31288  -0.30977  -0.30944
 Alpha  occ. eigenvalues --   -0.29596  -0.28550  -0.28003  -0.25123  -0.21114
 Alpha  occ. eigenvalues --   -0.20837  -0.19160
 Alpha virt. eigenvalues --   -0.12907  -0.11725  -0.08446  -0.07331  -0.07202
 Alpha virt. eigenvalues --   -0.06714  -0.06183  -0.06000  -0.05931  -0.05833
 Alpha virt. eigenvalues --   -0.05473  -0.05266  -0.04146  -0.03792  -0.03674

 Mulliken charges:
               1
     1  N   -0.761728
     2  H    0.417125
     3  H    0.436701
     4  H    0.412178
     5  C   -0.107923
     6  H    0.210858
     7  C    0.652250
     8  C   -0.111154
     9  H    0.158966
    10  O   -0.544464
    11  C   -0.468892
    12  H    0.185102
    13  H    0.195470
    14  H    0.142552
    15  C   -0.487367
    16  H    0.195591
    17  H    0.164122
    18  H    0.190267
    19  N   -0.591212
    20  H    0.374752
    21  C   -0.085374
    22  H    0.189917
    23  C    0.634668
    24  C   -0.073328
    25  H    0.144925
    26  O   -0.559107
    27  C   -0.257525
    28  H    0.156818
    29  H    0.114867
    30  C   -0.477676
    31  H    0.160926
    32  H    0.166396
    33  H    0.170274
    34  C   -0.468561
    35  H    0.156843
    36  H    0.161819
    37  H    0.162062
    38  N   -0.616585
    39  H    0.367797
    40  C   -0.051491
    41  H    0.192050
    42  C    0.626919
    43  C   -0.354878
    44  H    0.176535
    45  H    0.168629
    46  O   -0.547284
    47  C    0.118133
    48  C   -0.224727
    49  H    0.187148
    50  C   -0.185120
    51  H    0.143664
    52  C   -0.134850
    53  H    0.145064
    54  C   -0.128955
    55  H    0.141230
    56  C   -0.126860
    57  H    0.144348
    58  N   -0.613292
    59  H    0.356841
    60  C   -0.041825
    61  H    0.167810
    62  C    0.644870
    63  C   -0.294794
    64  H    0.156727
    65  H    0.151582
    66  O   -0.549208
    67  C   -0.083366
    68  H    0.137864
    69  C   -0.450058
    70  H    0.149217
    71  H    0.137155
    72  H    0.152342
    73  C   -0.444852
    74  H    0.146764
    75  H    0.150666
    76  H    0.148880
    77  N   -0.615930
    78  H    0.359214
    79  C   -0.049525
    80  H    0.207987
    81  C    0.604064
    82  C   -0.278419
    83  H    0.161890
    84  H    0.186565
    85  O   -0.572680
    86  C   -0.385670
    87  H    0.177857
    88  H    0.209857
    89  C    0.622027
    90  O   -0.479928
    91  O   -0.552437
    92  N   -0.615556
    93  H    0.407259
    94  C   -0.087135
    95  H    0.195780
    96  C    0.613828
    97  C   -0.371177
    98  H    0.202630
    99  H    0.184224
   100  O   -0.536154
   101  C    0.594109
   102  N   -0.757167
   103  H    0.349861
   104  H    0.414554
   105  O   -0.569605
   106  N   -0.609178
   107  H    0.346057
   108  C   -0.038539
   109  H    0.188085
   110  C    0.624723
   111  C   -0.372735
   112  H    0.176818
   113  H    0.169595
   114  O   -0.622238
   115  C    0.168486
   116  C   -0.198019
   117  H    0.115930
   118  C   -0.183298
   119  H    0.150680
   120  C   -0.159376
   121  H    0.129757
   122  C   -0.193113
   123  H    0.126160
   124  O   -0.645443
   125  H    0.409572
   126  C    0.349747
   127  N   -0.610927
   128  H    0.367620
   129  C   -0.075434
   130  H    0.150244
   131  C    0.589793
   132  C   -0.263157
   133  H    0.173983
   134  H    0.127205
   135  O   -0.580434
   136  C   -0.282915
   137  H    0.133522
   138  H    0.189841
   139  C   -0.170952
   140  H    0.180905
   141  H    0.179503
   142  N   -0.591663
   143  H    0.351928
   144  N   -0.811879
   145  H    0.384624
   146  H    0.435173
   147  N   -0.791977
   148  H    0.401965
   149  H    0.352689
   150  C    0.773436
   151  O   -0.611834
   152  H    0.419517
 Sum of Mulliken charges =   1.00000

 Dipole moment (field-independent basis, Debye):
    X=            -34.8296    Y=              4.0605    Z=             22.7277  Tot=             41.7868
 Quadrupole moment (field-independent basis, Debye-Ang):
   XX=           -500.9567   YY=           -390.6958   ZZ=            -30.6262
   XY=            103.6539   XZ=           -227.5725   YZ=            -85.5865

 Normal termination of Gaussian 16 at Fri Aug 12 04:46:58 2022.
