 Gaussian 16, Revision C.01,
 Gaussian 16:  ES64L-G16RevC.01  3-Jul-2019

 -------------------------------------------------------------------
 # B3LYP/6-31G* guess=read geom=check nosymm integral(ultrafinegrid)
 -------------------------------------------------------------------

 ------------------------------------------------------
 Candidate Structure: Conf:126 Charge calc in gas phase
 ------------------------------------------------------
 Structure from the checkpoint file:  "conf-126.chk"
 Charge =  1 Multiplicity = 1

                          Input orientation:
 ---------------------------------------------------------------------
 Center     Atomic      Atomic             Coordinates (Angstroms)
 Number     Number       Type             X           Y           Z
 ---------------------------------------------------------------------
      1          7           0       -1.707816   -3.729548    6.641613
      2          1           0       -2.183434   -4.511790    7.098322
      3          1           0       -1.531008   -3.968481    5.619524
      4          1           0       -0.823873   -3.548949    7.125676
      5          6           0       -2.570547   -2.483355    6.521745
      6          1           0       -3.468628   -2.643882    7.124222
      7          6           0       -2.927099   -2.477222    5.007592
      8          6           0       -1.790218   -1.252606    7.059671
      9          1           0       -1.511618   -1.536163    8.087265
     10          8           0       -2.300310   -3.266061    4.270597
     11          6           0       -0.508437   -0.948864    6.267116
     12          1           0       -0.710203   -0.548283    5.269162
     13          1           0        0.072900   -0.191603    6.801542
     14          1           0        0.147834   -1.820216    6.140254
     15          6           0       -2.692766   -0.013996    7.175616
     16          1           0       -2.964679    0.395651    6.198405
     17          1           0       -3.611431   -0.224878    7.736242
     18          1           0       -2.153970    0.771410    7.713574
     19          7           0       -3.877631   -1.647611    4.611485
     20          1           0       -4.346294   -1.004097    5.251905
     21          6           0       -4.234869   -1.393384    3.209371
     22          1           0       -3.316117   -1.440991    2.621577
     23          6           0       -4.766773    0.059767    3.226904
     24          6           0       -5.252776   -2.443941    2.671940
     25          1           0       -4.800752   -3.416613    2.913624
     26          8           0       -5.240705    0.522756    4.272807
     27          6           0       -5.412676   -2.388629    1.137327
     28          1           0       -5.829198   -1.417724    0.839824
     29          1           0       -6.176013   -3.130521    0.870743
     30          6           0       -6.613355   -2.353120    3.378083
     31          1           0       -7.131768   -1.418265    3.138586
     32          1           0       -6.516137   -2.406480    4.468068
     33          1           0       -7.256095   -3.180988    3.061291
     34          6           0       -4.140469   -2.683277    0.331251
     35          1           0       -4.370470   -2.729580   -0.737828
     36          1           0       -3.364118   -1.919103    0.454360
     37          1           0       -3.706586   -3.648969    0.619445
     38          7           0       -4.640862    0.713327    2.065433
     39          1           0       -4.214574    0.254874    1.259525
     40          6           0       -5.004628    2.097936    1.769808
     41          1           0       -6.094176    2.216349    1.826921
     42          6           0       -4.535541    2.280864    0.298798
     43          6           0       -4.332908    3.103676    2.753507
     44          1           0       -3.268078    3.182721    2.511904
     45          1           0       -4.413475    2.656794    3.748098
     46          8           0       -4.093440    1.311527   -0.326944
     47          6           0       -4.964464    4.482314    2.785154
     48          6           0       -4.273521    5.608394    2.310705
     49          1           0       -3.278454    5.489915    1.886633
     50          6           0       -6.250317    4.656806    3.320755
     51          1           0       -6.788383    3.796379    3.713681
     52          6           0       -4.860322    6.876584    2.366510
     53          1           0       -4.310103    7.738538    1.999143
     54          6           0       -6.834765    5.921356    3.374479
     55          1           0       -7.829509    6.038909    3.795663
     56          6           0       -6.140528    7.036106    2.896491
     57          1           0       -6.594885    8.021859    2.941505
     58          7           0       -4.574276    3.523780   -0.227327
     59          1           0       -4.793392    4.299032    0.389935
     60          6           0       -3.752559    3.838997   -1.409428
     61          1           0       -3.975246    3.083007   -2.165275
     62          6           0       -2.270380    3.746406   -0.967356
     63          6           0       -4.102959    5.242269   -1.918053
     64          1           0       -3.899114    5.953433   -1.107410
     65          1           0       -5.182946    5.273175   -2.116821
     66          8           0       -1.822266    4.507177   -0.107391
     67          6           0       -3.335110    5.692371   -3.177271
     68          1           0       -2.260248    5.652695   -2.948312
     69          6           0       -3.600835    4.788579   -4.391422
     70          1           0       -4.672572    4.749808   -4.626088
     71          1           0       -3.252800    3.761464   -4.234349
     72          1           0       -3.082091    5.171404   -5.277381
     73          6           0       -3.686975    7.152354   -3.500665
     74          1           0       -4.752992    7.256493   -3.740772
     75          1           0       -3.116133    7.511057   -4.364369
     76          1           0       -3.467509    7.814065   -2.654745
     77          7           0       -1.551422    2.755528   -1.541111
     78          1           0       -1.965522    2.141909   -2.234645
     79          6           0       -0.181126    2.433939   -1.191952
     80          1           0        0.336768    3.360214   -0.923524
     81          6           0        0.454175    1.746943   -2.416510
     82          6           0       -0.070983    1.400736   -0.035430
     83          1           0        0.991394    1.214699    0.161713
     84          1           0       -0.497419    0.454868   -0.386281
     85          8           0       -0.246618    1.250871   -3.294780
     86          6           0       -0.774956    1.796919    1.273784
     87          1           0       -0.397959    2.739500    1.674480
     88          1           0       -1.845074    1.903595    1.077383
     89          6           0       -0.591481    0.719989    2.318091
     90          8           0       -0.039091    0.859738    3.392462
     91          8           0       -1.100713   -0.470081    1.916388
     92          7           0        1.808020    1.640241   -2.374677
     93          1           0        2.297181    1.936914   -1.531860
     94          6           0        2.499937    0.536335   -3.028662
     95          1           0        1.764351   -0.231115   -3.286327
     96          6           0        3.480992   -0.022687   -1.962733
     97          6           0        3.190813    0.976822   -4.337911
     98          1           0        2.545394    1.719839   -4.820498
     99          1           0        4.147498    1.474799   -4.133150
    100          8           0        3.695359    0.623384   -0.928568
    101          6           0        3.411468   -0.187244   -5.304753
    102          7           0        3.837827    0.161764   -6.545702
    103          1           0        3.992848   -0.572435   -7.222903
    104          1           0        3.944694    1.121565   -6.837097
    105          8           0        3.213017   -1.358805   -4.990977
    106          7           0        4.038323   -1.215253   -2.238030
    107          1           0        3.887613   -1.626138   -3.162613
    108          6           0        5.048694   -1.817374   -1.380875
    109          1           0        5.329378   -1.063109   -0.641899
    110          6           0        6.261805   -2.197746   -2.253888
    111          6           0        4.541322   -3.099081   -0.672482
    112          1           0        4.299557   -3.835172   -1.447911
    113          1           0        5.391109   -3.515154   -0.112765
    114          8           0        6.100895   -2.594301   -3.407060
    115          6           0        3.354994   -2.940553    0.261735
    116          6           0        3.287774   -1.922536    1.225987
    117          1           0        4.061272   -1.162573    1.269345
    118          6           0        2.311239   -3.872872    0.226306
    119          1           0        2.330582   -4.668813   -0.513815
    120          6           0        2.227609   -1.842072    2.126512
    121          1           0        2.173661   -1.043403    2.860297
    122          6           0        1.241931   -3.811344    1.123039
    123          1           0        0.440609   -4.546292    1.070677
    124          8           0        0.169821   -2.665296    2.991880
    125          1           0       -0.501655   -3.351673    2.842792
    126          6           0        1.209849   -2.794377    2.073145
    127          7           0        7.460740   -2.117503   -1.637572
    128          1           0        7.564948   -1.733270   -0.704008
    129          6           0        8.715302   -2.568172   -2.230403
    130          1           0        8.536679   -3.497697   -2.775652
    131          6           0        9.728905   -2.832670   -1.097163
    132          6           0        9.265831   -1.496634   -3.216552
    133          1           0        8.593228   -1.484038   -4.079620
    134          1           0        9.157910   -0.515083   -2.733550
    135          8           0       10.571554   -3.726417   -1.262059
    136          6           0       10.729731   -1.706438   -3.679434
    137          1           0       11.045030   -2.734022   -3.470558
    138          1           0       10.801858   -1.556554   -4.763815
    139          6           0       11.735885   -0.727280   -3.043407
    140          1           0       12.731928   -0.882848   -3.469661
    141          1           0       11.460005    0.305116   -3.286226
    142          7           0       11.813653   -0.809968   -1.577212
    143          1           0       10.911484   -0.728198   -1.097352
    144          7           0       13.904120   -1.855364   -1.334303
    145          1           0       14.387648   -2.653499   -0.949653
    146          1           0       14.158708   -1.600236   -2.275765
    147          7           0       12.317489   -1.899929    0.377328
    148          1           0       12.934560   -2.509807    0.895751
    149          1           0       11.279950   -2.043437    0.491006
    150          6           0       12.670715   -1.556544   -0.864687
    151          8           0        9.673235   -1.988832   -0.122043
    152          1           0       -0.729279   -1.175086    2.503674
 ---------------------------------------------------------------------

 SCF Done:  E(RB3LYP) =  -3586.63940418     A.U. after    3 cycles

 Alpha  occ. eigenvalues --  -19.26446 -19.26341 -19.24650 -19.20739 -19.19947
 Alpha  occ. eigenvalues --  -19.19755 -19.17438 -19.17193 -19.16881 -19.16876
 Alpha  occ. eigenvalues --  -19.14714 -19.13104 -19.11804 -14.59092 -14.48699
 Alpha  occ. eigenvalues --  -14.45052 -14.44199 -14.43257 -14.42962 -14.41505
 Alpha  occ. eigenvalues --  -14.41473 -14.41340 -14.40736 -14.40094 -14.39073
 Alpha  occ. eigenvalues --  -10.43023 -10.39910 -10.39770 -10.37932 -10.37787
 Alpha  occ. eigenvalues --  -10.36525 -10.34916 -10.34330 -10.34125 -10.33861
 Alpha  occ. eigenvalues --  -10.33278 -10.32759 -10.32056 -10.31706 -10.31255
 Alpha  occ. eigenvalues --  -10.30092 -10.29587 -10.29253 -10.29246 -10.28797
 Alpha  occ. eigenvalues --  -10.28675 -10.28088 -10.28055 -10.27742 -10.26013
 Alpha  occ. eigenvalues --  -10.25847 -10.25683 -10.25662 -10.25322 -10.25300
 Alpha  occ. eigenvalues --  -10.25283 -10.25206 -10.25150 -10.24918 -10.24814
 Alpha  occ. eigenvalues --  -10.24735 -10.24674 -10.24591 -10.24591 -10.24493
 Alpha  occ. eigenvalues --  -10.24480 -10.24393 -10.24295 -10.24290 -10.24081
 Alpha  occ. eigenvalues --  -10.24043 -10.23768 -10.22945 -10.22047 -10.21823
 Alpha  occ. eigenvalues --   -1.18554  -1.15832  -1.13346  -1.13105  -1.12541
 Alpha  occ. eigenvalues --   -1.11566  -1.09631  -1.08996  -1.08661  -1.08589
 Alpha  occ. eigenvalues --   -1.08262  -1.06881  -1.06684  -1.05488  -1.05196
 Alpha  occ. eigenvalues --   -1.00961  -0.99433  -0.98375  -0.97922  -0.97776
 Alpha  occ. eigenvalues --   -0.97002  -0.96867  -0.96199  -0.96024  -0.95052
 Alpha  occ. eigenvalues --   -0.93859  -0.91424  -0.91182  -0.89816  -0.87013
 Alpha  occ. eigenvalues --   -0.85939  -0.85528  -0.85255  -0.84676  -0.84036
 Alpha  occ. eigenvalues --   -0.82978  -0.81917  -0.81075  -0.80642  -0.80074
 Alpha  occ. eigenvalues --   -0.79923  -0.79696  -0.79524  -0.78904  -0.78047
 Alpha  occ. eigenvalues --   -0.77572  -0.74364  -0.73643  -0.73555  -0.73072
 Alpha  occ. eigenvalues --   -0.72885  -0.72636  -0.72131  -0.71231  -0.70861
 Alpha  occ. eigenvalues --   -0.69960  -0.69789  -0.68933  -0.67928  -0.67868
 Alpha  occ. eigenvalues --   -0.67238  -0.66218  -0.65538  -0.65495  -0.65453
 Alpha  occ. eigenvalues --   -0.65283  -0.65186  -0.65123  -0.64921  -0.64488
 Alpha  occ. eigenvalues --   -0.63964  -0.63605  -0.63424  -0.62072  -0.61735
 Alpha  occ. eigenvalues --   -0.61564  -0.61481  -0.61143  -0.61017  -0.60704
 Alpha  occ. eigenvalues --   -0.60000  -0.59496  -0.59096  -0.58280  -0.57496
 Alpha  occ. eigenvalues --   -0.57333  -0.57030  -0.56359  -0.56017  -0.55741
 Alpha  occ. eigenvalues --   -0.55394  -0.55255  -0.55201  -0.54788  -0.54525
 Alpha  occ. eigenvalues --   -0.54247  -0.53826  -0.53666  -0.53438  -0.53344
 Alpha  occ. eigenvalues --   -0.52981  -0.52944  -0.52484  -0.52196  -0.52086
 Alpha  occ. eigenvalues --   -0.51703  -0.51368  -0.51254  -0.51156  -0.51001
 Alpha  occ. eigenvalues --   -0.50910  -0.50540  -0.50436  -0.50257  -0.50060
 Alpha  occ. eigenvalues --   -0.49831  -0.49748  -0.49370  -0.49216  -0.49000
 Alpha  occ. eigenvalues --   -0.48773  -0.48745  -0.48522  -0.48361  -0.48247
 Alpha  occ. eigenvalues --   -0.48056  -0.47943  -0.47785  -0.47729  -0.47630
 Alpha  occ. eigenvalues --   -0.47422  -0.47257  -0.47060  -0.46912  -0.46753
 Alpha  occ. eigenvalues --   -0.46349  -0.46118  -0.45848  -0.45785  -0.45714
 Alpha  occ. eigenvalues --   -0.45694  -0.45618  -0.45438  -0.45157  -0.44810
 Alpha  occ. eigenvalues --   -0.44776  -0.44388  -0.44166  -0.44059  -0.43833
 Alpha  occ. eigenvalues --   -0.43584  -0.43480  -0.43123  -0.43056  -0.42731
 Alpha  occ. eigenvalues --   -0.42280  -0.42062  -0.41968  -0.41800  -0.41712
 Alpha  occ. eigenvalues --   -0.41601  -0.41281  -0.41188  -0.41118  -0.41015
 Alpha  occ. eigenvalues --   -0.40762  -0.40644  -0.40490  -0.40153  -0.39917
 Alpha  occ. eigenvalues --   -0.39838  -0.39762  -0.39492  -0.39440  -0.39103
 Alpha  occ. eigenvalues --   -0.38908  -0.38792  -0.37927  -0.37861  -0.37455
 Alpha  occ. eigenvalues --   -0.37437  -0.37291  -0.37285  -0.35412  -0.34743
 Alpha  occ. eigenvalues --   -0.34476  -0.34043  -0.33441  -0.33127  -0.32618
 Alpha  occ. eigenvalues --   -0.32414  -0.32145  -0.31824  -0.31209  -0.31004
 Alpha  occ. eigenvalues --   -0.30773  -0.30748  -0.30367  -0.30127  -0.30062
 Alpha  occ. eigenvalues --   -0.29807  -0.29425  -0.28733  -0.28382  -0.28071
 Alpha  occ. eigenvalues --   -0.27556  -0.25249
 Alpha virt. eigenvalues --   -0.11865  -0.10382  -0.07435  -0.06201  -0.06139
 Alpha virt. eigenvalues --   -0.05998  -0.05796  -0.05696  -0.05130  -0.05017
 Alpha virt. eigenvalues --   -0.04987  -0.03922  -0.03331  -0.03179  -0.02902

 Mulliken charges:
               1
     1  N   -0.760978
     2  H    0.413506
     3  H    0.432265
     4  H    0.413080
     5  C   -0.107325
     6  H    0.208656
     7  C    0.667017
     8  C   -0.110708
     9  H    0.152673
    10  O   -0.578023
    11  C   -0.485521
    12  H    0.216829
    13  H    0.189843
    14  H    0.134463
    15  C   -0.476769
    16  H    0.188659
    17  H    0.159770
    18  H    0.190672
    19  N   -0.603734
    20  H    0.380984
    21  C   -0.088877
    22  H    0.201858
    23  C    0.645194
    24  C   -0.075557
    25  H    0.142085
    26  O   -0.563410
    27  C   -0.272822
    28  H    0.151500
    29  H    0.152938
    30  C   -0.460009
    31  H    0.168185
    32  H    0.136014
    33  H    0.162246
    34  C   -0.469140
    35  H    0.171090
    36  H    0.164259
    37  H    0.141124
    38  N   -0.650497
    39  H    0.391530
    40  C   -0.036240
    41  H    0.191902
    42  C    0.618922
    43  C   -0.387032
    44  H    0.176393
    45  H    0.200044
    46  O   -0.547630
    47  C    0.123822
    48  C   -0.232438
    49  H    0.182132
    50  C   -0.178146
    51  H    0.138874
    52  C   -0.128916
    53  H    0.146521
    54  C   -0.127741
    55  H    0.142654
    56  C   -0.127081
    57  H    0.144237
    58  N   -0.615198
    59  H    0.362369
    60  C   -0.043550
    61  H    0.171040
    62  C    0.627546
    63  C   -0.286719
    64  H    0.156126
    65  H    0.147286
    66  O   -0.553853
    67  C   -0.083832
    68  H    0.142173
    69  C   -0.451311
    70  H    0.144978
    71  H    0.144357
    72  H    0.152876
    73  C   -0.444558
    74  H    0.144196
    75  H    0.149709
    76  H    0.146797
    77  N   -0.592477
    78  H    0.360187
    79  C   -0.060534
    80  H    0.181936
    81  C    0.598731
    82  C   -0.290705
    83  H    0.173232
    84  H    0.177519
    85  O   -0.525488
    86  C   -0.339116
    87  H    0.187306
    88  H    0.175435
    89  C    0.562407
    90  O   -0.474329
    91  O   -0.612693
    92  N   -0.608494
    93  H    0.358086
    94  C   -0.058911
    95  H    0.206444
    96  C    0.601200
    97  C   -0.378543
    98  H    0.190340
    99  H    0.181934
   100  O   -0.558777
   101  C    0.629528
   102  N   -0.747266
   103  H    0.356099
   104  H    0.345231
   105  O   -0.513456
   106  N   -0.609746
   107  H    0.398877
   108  C   -0.073158
   109  H    0.173996
   110  C    0.619021
   111  C   -0.362566
   112  H    0.169593
   113  H    0.169615
   114  O   -0.538580
   115  C    0.189685
   116  C   -0.179691
   117  H    0.156108
   118  C   -0.200336
   119  H    0.142461
   120  C   -0.175494
   121  H    0.156807
   122  C   -0.179109
   123  H    0.123863
   124  O   -0.694936
   125  H    0.425309
   126  C    0.327039
   127  N   -0.616574
   128  H    0.343949
   129  C   -0.003339
   130  H    0.172585
   131  C    0.568465
   132  C   -0.295948
   133  H    0.176679
   134  H    0.131272
   135  O   -0.569066
   136  C   -0.273881
   137  H    0.189146
   138  H    0.146536
   139  C   -0.170082
   140  H    0.140232
   141  H    0.175514
   142  N   -0.587911
   143  H    0.376529
   144  N   -0.758571
   145  H    0.365321
   146  H    0.365960
   147  N   -0.746920
   148  H    0.338454
   149  H    0.409853
   150  C    0.777322
   151  O   -0.651294
   152  H    0.448403
 Sum of Mulliken charges =   1.00000

 Dipole moment (field-independent basis, Debye):
    X=              3.7097    Y=             -6.6550    Z=             16.7994  Tot=             18.4464
 Quadrupole moment (field-independent basis, Debye-Ang):
   XX=           -140.1645   YY=           -375.7641   ZZ=           -237.9562
   XY=              2.9490   XZ=           -103.9607   YZ=           -105.5217

 Normal termination of Gaussian 16 at Fri Aug 12 04:48:27 2022.
