 Gaussian 16, Revision C.01,
 Gaussian 16:  ES64L-G16RevC.01  3-Jul-2019

 -------------------------------------------------------------------
 # B3LYP/6-31G* guess=read geom=check nosymm integral(ultrafinegrid)
 -------------------------------------------------------------------

 ------------------------------------------------------
 Candidate Structure: Conf:966 Charge calc in gas phase
 ------------------------------------------------------
 Structure from the checkpoint file:  "conf-966.chk"
 Charge =  1 Multiplicity = 1

                          Input orientation:
 ---------------------------------------------------------------------
 Center     Atomic      Atomic             Coordinates (Angstroms)
 Number     Number       Type             X           Y           Z
 ---------------------------------------------------------------------
      1          7           0       -4.391268   -1.850402   -2.939024
      2          1           0       -4.568380   -1.283603   -2.069540
      3          1           0       -4.598071   -1.245486   -3.740158
      4          1           0       -4.948256   -2.712157   -3.018186
      5          6           0       -2.918969   -2.175763   -2.834080
      6          1           0       -2.879887   -3.101566   -2.251774
      7          6           0       -2.370477   -1.031260   -1.930741
      8          6           0       -2.261248   -2.383291   -4.202195
      9          1           0       -1.259530   -2.789298   -4.027125
     10          1           0       -2.122118   -1.418122   -4.703909
     11          8           0       -3.210802   -0.393058   -1.277592
     12          6           0       -3.019999   -3.332385   -5.164475
     13          1           0       -3.937678   -2.858906   -5.533028
     14          1           0       -2.383328   -3.528418   -6.029715
     15          6           0       -3.377766   -4.673930   -4.552083
     16          8           0       -2.779020   -5.705992   -4.682219
     17          8           0       -4.511385   -4.576632   -3.769574
     18          7           0       -1.054560   -0.882424   -1.901988
     19          1           0       -0.443839   -1.308072   -2.608660
     20          6           0       -0.315011    0.161886   -1.184677
     21          1           0       -0.950672    1.047845   -1.097607
     22          6           0        0.895789    0.449152   -2.114257
     23          6           0        0.172270   -0.302403    0.206749
     24          1           0        0.864454    0.459214    0.589368
     25          1           0        0.769733   -1.212153    0.059809
     26          8           0        1.138796   -0.331524   -3.046565
     27          6           0       -0.915892   -0.560414    1.268480
     28          1           0       -1.636492   -1.283120    0.858754
     29          6           0       -0.271721   -1.194296    2.511697
     30          1           0        0.462865   -0.515593    2.962600
     31          1           0       -1.027641   -1.416978    3.272795
     32          1           0        0.245257   -2.129595    2.266535
     33          6           0       -1.682552    0.716813    1.642161
     34          1           0       -0.998882    1.486650    2.022337
     35          1           0       -2.233267    1.130973    0.791483
     36          1           0       -2.414299    0.508211    2.430617
     37          7           0        1.614082    1.533416   -1.811547
     38          1           0        1.459729    2.057555   -0.944478
     39          6           0        2.953591    1.815580   -2.326154
     40          1           0        3.483460    0.870832   -2.482689
     41          6           0        3.677146    2.648251   -1.233524
     42          6           0        2.958188    2.587862   -3.664193
     43          1           0        2.483396    1.955088   -4.423236
     44          1           0        4.007098    2.710137   -3.952972
     45          8           0        4.889500    2.904015   -1.512153
     46          6           0        2.239894    3.950033   -3.661985
     47          1           0        2.094850    4.267175   -4.705265
     48          1           0        1.229589    3.827203   -3.250262
     49          6           0        2.878683    5.118581   -2.890057
     50          1           0        3.035621    4.874817   -1.840838
     51          1           0        2.183385    5.968651   -2.919691
     52          7           0        4.155564    5.576990   -3.465307
     53          1           0        4.136321    5.843070   -4.441734
     54          7           0        5.560427    5.365048   -1.614356
     55          1           0        6.355431    5.739371   -1.113068
     56          1           0        5.251219    4.340210   -1.385559
     57          7           0        6.145447    6.741961   -3.408608
     58          1           0        7.077001    6.868610   -3.041614
     59          1           0        5.807184    7.444862   -4.049445
     60          6           0        5.285688    5.882469   -2.799633
     61          8           0        2.993504    3.063650   -0.276047
     62          1           0       -4.696457   -5.472886   -3.424452
 ---------------------------------------------------------------------

 SCF Done:  E(RB3LYP) =  -1447.39974367     A.U. after    1 cycles

 Alpha  occ. eigenvalues --  -19.33405 -19.27064 -19.25643 -19.20199 -19.14827
 Alpha  occ. eigenvalues --  -19.14747 -14.59387 -14.48109 -14.47459 -14.47038
 Alpha  occ. eigenvalues --  -14.43686 -14.42594 -10.45242 -10.42746 -10.42613
 Alpha  occ. eigenvalues --  -10.40573 -10.36953 -10.35326 -10.34289 -10.32905
 Alpha  occ. eigenvalues --  -10.32636 -10.30670 -10.27899 -10.26897 -10.26589
 Alpha  occ. eigenvalues --  -10.26367 -10.25010 -10.23819 -10.23816  -1.23410
 Alpha  occ. eigenvalues --   -1.18206  -1.14844  -1.13358  -1.11844  -1.11023
 Alpha  occ. eigenvalues --   -1.08312  -1.04763  -1.00780  -1.00468  -0.98855
 Alpha  occ. eigenvalues --   -0.98092  -0.95371  -0.89742  -0.87679  -0.86732
 Alpha  occ. eigenvalues --   -0.83767  -0.80863  -0.79820  -0.75327  -0.75040
 Alpha  occ. eigenvalues --   -0.74657  -0.74301  -0.73512  -0.72428  -0.71367
 Alpha  occ. eigenvalues --   -0.69668  -0.68559  -0.67552  -0.65914  -0.65253
 Alpha  occ. eigenvalues --   -0.64583  -0.63329  -0.62913  -0.61522  -0.60995
 Alpha  occ. eigenvalues --   -0.60958  -0.59824  -0.59469  -0.58770  -0.57552
 Alpha  occ. eigenvalues --   -0.57320  -0.55957  -0.55417  -0.55279  -0.54544
 Alpha  occ. eigenvalues --   -0.54226  -0.53464  -0.52335  -0.52107  -0.51433
 Alpha  occ. eigenvalues --   -0.51207  -0.50658  -0.50477  -0.50106  -0.49687
 Alpha  occ. eigenvalues --   -0.48834  -0.48282  -0.47455  -0.46714  -0.45917
 Alpha  occ. eigenvalues --   -0.45635  -0.45301  -0.45212  -0.44799  -0.44103
 Alpha  occ. eigenvalues --   -0.43426  -0.42051  -0.41255  -0.40623  -0.40371
 Alpha  occ. eigenvalues --   -0.40107  -0.39809  -0.39606  -0.39403  -0.37918
 Alpha  occ. eigenvalues --   -0.37589  -0.35075  -0.34313  -0.33278  -0.30625
 Alpha  occ. eigenvalues --   -0.29476  -0.29024
 Alpha virt. eigenvalues --   -0.12990  -0.11556  -0.09521  -0.07675  -0.05869
 Alpha virt. eigenvalues --   -0.05695  -0.04183  -0.02898  -0.02379  -0.01883
 Alpha virt. eigenvalues --   -0.00762  -0.00466  -0.00146   0.00110   0.01012

 Mulliken charges:
               1
     1  N   -0.756233
     2  H    0.430458
     3  H    0.405382
     4  H    0.428697
     5  C   -0.122257
     6  H    0.232900
     7  C    0.657650
     8  C   -0.322474
     9  H    0.220745
    10  H    0.196986
    11  O   -0.547244
    12  C   -0.363462
    13  H    0.172387
    14  H    0.229774
    15  C    0.581158
    16  O   -0.396603
    17  O   -0.608848
    18  N   -0.606980
    19  H    0.376355
    20  C   -0.084573
    21  H    0.188140
    22  C    0.620427
    23  C   -0.263541
    24  H    0.172055
    25  H    0.149069
    26  O   -0.560588
    27  C   -0.070210
    28  H    0.115629
    29  C   -0.447347
    30  H    0.157614
    31  H    0.152221
    32  H    0.144176
    33  C   -0.458743
    34  H    0.151693
    35  H    0.154097
    36  H    0.153023
    37  N   -0.609329
    38  H    0.361073
    39  C   -0.046880
    40  H    0.175862
    41  C    0.602381
    42  C   -0.265132
    43  H    0.153181
    44  H    0.164533
    45  O   -0.625968
    46  C   -0.288740
    47  H    0.132282
    48  H    0.154613
    49  C   -0.164238
    50  H    0.228520
    51  H    0.160931
    52  N   -0.590645
    53  H    0.341545
    54  N   -0.756674
    55  H    0.343722
    56  H    0.446981
    57  N   -0.762864
    58  H    0.366638
    59  H    0.361360
    60  C    0.768273
    61  O   -0.571915
    62  H    0.438958
 Sum of Mulliken charges =   1.00000

 Dipole moment (field-independent basis, Debye):
    X=             -6.4873    Y=              5.1797    Z=            -18.8131  Tot=             20.5632
 Quadrupole moment (field-independent basis, Debye-Ang):
   XX=            -47.6005   YY=            -47.7903   ZZ=            -96.7037
   XY=            120.6476   XZ=             14.3180   YZ=            -35.8488

 Normal termination of Gaussian 16 at Thu May 26 19:10:56 2022.
