 Gaussian 16, Revision C.01,
 Gaussian 16:  ES64L-G16RevC.01  3-Jul-2019

 -------------------------------------------------------------------
 # B3LYP/6-31G* guess=read geom=check nosymm integral(ultrafinegrid)
 -------------------------------------------------------------------

 ------------------------------------------------------
 Candidate Structure: Conf:217 Charge calc in gas phase
 ------------------------------------------------------
 Structure from the checkpoint file:  "conf-217.chk"
 Charge =  1 Multiplicity = 1

                          Input orientation:
 ---------------------------------------------------------------------
 Center     Atomic      Atomic             Coordinates (Angstroms)
 Number     Number       Type             X           Y           Z
 ---------------------------------------------------------------------
      1          7           0       -3.627515   -1.105159   -3.505007
      2          1           0       -4.224356   -1.842395   -3.117932
      3          1           0       -3.784192   -0.206795   -2.938737
      4          1           0       -3.858940   -0.978895   -4.493964
      5          6           0       -2.152586   -1.337161   -3.241470
      6          1           0       -1.988112   -2.405300   -3.080578
      7          6           0       -1.932279   -0.485905   -1.953343
      8          6           0       -1.342438   -0.802803   -4.442964
      9          1           0       -1.489522    0.282516   -4.500484
     10          1           0       -1.758237   -1.232665   -5.362489
     11          8           0       -2.756772    0.423908   -1.754054
     12          6           0        0.162849   -1.128200   -4.386271
     13          1           0        0.650730   -0.795140   -3.462771
     14          1           0        0.320348   -2.215794   -4.423596
     15          6           0        0.962165   -0.548518   -5.536124
     16          8           0        2.174822   -0.426139   -5.529844
     17          8           0        0.200431   -0.201989   -6.586897
     18          7           0       -0.877345   -0.793363   -1.222439
     19          1           0       -0.187292   -1.473762   -1.565617
     20          6           0       -0.211154    0.085087   -0.245792
     21          1           0       -0.608663    1.095158   -0.367286
     22          6           0        1.273171    0.012693   -0.699551
     23          6           0       -0.439037   -0.419131    1.197393
     24          1           0        0.020781   -1.412643    1.285871
     25          1           0       -1.521776   -0.558722    1.322456
     26          8           0        1.615186   -0.942558   -1.440659
     27          6           0        0.077730    0.494777    2.331012
     28          1           0        1.154102    0.660024    2.199416
     29          6           0       -0.611681    1.868026    2.338591
     30          1           0       -1.699640    1.764419    2.446943
     31          1           0       -0.244810    2.470714    3.175129
     32          1           0       -0.414916    2.446448    1.428376
     33          6           0       -0.120269   -0.217070    3.678444
     34          1           0       -1.184262   -0.399741    3.878931
     35          1           0        0.398047   -1.182891    3.703500
     36          1           0        0.273113    0.393781    4.497476
     37          7           0        2.072547    0.974065   -0.284167
     38          1           0        1.838640    1.708528    0.420315
     39          6           0        3.522814    1.016581   -0.440927
     40          1           0        3.947864    0.064704   -0.096944
     41          6           0        3.997652    2.183078    0.531110
     42          6           0        3.948706    1.259324   -1.897635
     43          1           0        3.747747    2.306551   -2.162389
     44          1           0        3.326499    0.625693   -2.547699
     45          8           0        5.199143    2.491493    0.450827
     46          6           0        5.439175    0.949653   -2.085889
     47          1           0        5.973836    1.479706   -1.289056
     48          1           0        5.621185   -0.125679   -1.954429
     49          6           0        6.002156    1.397721   -3.430096
     50          1           0        7.051619    1.087615   -3.508245
     51          1           0        5.948137    2.489649   -3.525120
     52          7           0        5.245385    0.788707   -4.549325
     53          1           0        4.372491    0.326849   -4.314445
     54          7           0        6.740260    1.394754   -6.218600
     55          1           0        6.882650    1.688611   -7.173708
     56          1           0        7.394376    1.739813   -5.531743
     57          7           0        4.692562    0.461632   -6.779927
     58          1           0        5.043233    0.203589   -7.691369
     59          1           0        3.791027    0.081016   -6.496690
     60          6           0        5.557656    0.879447   -5.833876
     61          8           0        3.069685    2.650032    1.247437
     62          1           0        0.780863    0.156963   -7.284946
 ---------------------------------------------------------------------

 SCF Done:  E(RB3LYP) =  -1447.35839855     A.U. after    3 cycles

 Alpha  occ. eigenvalues --  -19.34381 -19.28992 -19.26764 -19.19805 -19.10140
 Alpha  occ. eigenvalues --  -19.09161 -14.60732 -14.51344 -14.50531 -14.50415
 Alpha  occ. eigenvalues --  -14.48683 -14.41347 -10.47299 -10.47182 -10.43440
 Alpha  occ. eigenvalues --  -10.41853 -10.36307 -10.36090 -10.34319 -10.33453
 Alpha  occ. eigenvalues --  -10.32663 -10.28159 -10.26422 -10.25977 -10.25577
 Alpha  occ. eigenvalues --  -10.25119 -10.24804 -10.22578 -10.22526  -1.25329
 Alpha  occ. eigenvalues --   -1.19376  -1.16227  -1.15685  -1.14265  -1.11209
 Alpha  occ. eigenvalues --   -1.05377  -1.04715  -1.03961  -1.03346  -0.98237
 Alpha  occ. eigenvalues --   -0.96148  -0.94532  -0.89718  -0.88190  -0.87623
 Alpha  occ. eigenvalues --   -0.83500  -0.81593  -0.80130  -0.77935  -0.75852
 Alpha  occ. eigenvalues --   -0.74796  -0.74580  -0.73868  -0.73410  -0.72856
 Alpha  occ. eigenvalues --   -0.72689  -0.70558  -0.69296  -0.67086  -0.66206
 Alpha  occ. eigenvalues --   -0.65518  -0.64519  -0.64077  -0.63074  -0.62662
 Alpha  occ. eigenvalues --   -0.62220  -0.61373  -0.61157  -0.59257  -0.58781
 Alpha  occ. eigenvalues --   -0.58382  -0.57771  -0.56781  -0.55969  -0.54496
 Alpha  occ. eigenvalues --   -0.54248  -0.54023  -0.53243  -0.52825  -0.52204
 Alpha  occ. eigenvalues --   -0.51542  -0.51246  -0.50569  -0.50126  -0.49433
 Alpha  occ. eigenvalues --   -0.48500  -0.48315  -0.47082  -0.46327  -0.45536
 Alpha  occ. eigenvalues --   -0.44150  -0.43743  -0.43264  -0.42791  -0.42618
 Alpha  occ. eigenvalues --   -0.42408  -0.42236  -0.41642  -0.41153  -0.40798
 Alpha  occ. eigenvalues --   -0.40254  -0.39378  -0.39231  -0.38621  -0.38144
 Alpha  occ. eigenvalues --   -0.37647  -0.37285  -0.34152  -0.32156  -0.25247
 Alpha  occ. eigenvalues --   -0.25052  -0.23406
 Alpha virt. eigenvalues --   -0.13711  -0.12593  -0.11645  -0.11245  -0.07586
 Alpha virt. eigenvalues --   -0.07108  -0.06363  -0.05633  -0.04588  -0.03289
 Alpha virt. eigenvalues --   -0.02700  -0.02007  -0.01562  -0.00286   0.00768

 Mulliken charges:
               1
     1  N   -0.755949
     2  H    0.418925
     3  H    0.435519
     4  H    0.409702
     5  C   -0.117464
     6  H    0.212228
     7  C    0.640422
     8  C   -0.290584
     9  H    0.197358
    10  H    0.182091
    11  O   -0.539343
    12  C   -0.410177
    13  H    0.251396
    14  H    0.208195
    15  C    0.609754
    16  O   -0.479408
    17  O   -0.541816
    18  N   -0.580771
    19  H    0.365644
    20  C   -0.095908
    21  H    0.194842
    22  C    0.625798
    23  C   -0.248374
    24  H    0.146802
    25  H    0.144969
    26  O   -0.595420
    27  C   -0.098749
    28  H    0.170289
    29  C   -0.451338
    30  H    0.135533
    31  H    0.175803
    32  H    0.145128
    33  C   -0.447895
    34  H    0.138035
    35  H    0.144789
    36  H    0.165818
    37  N   -0.618001
    38  H    0.388039
    39  C   -0.064457
    40  H    0.156994
    41  C    0.594177
    42  C   -0.281034
    43  H    0.146272
    44  H    0.120622
    45  O   -0.570640
    46  C   -0.320247
    47  H    0.242650
    48  H    0.146960
    49  C   -0.164285
    50  H    0.170366
    51  H    0.192091
    52  N   -0.608796
    53  H    0.383528
    54  N   -0.758571
    55  H    0.377482
    56  H    0.392165
    57  N   -0.799124
    58  H    0.365484
    59  H    0.402610
    60  C    0.814452
    61  O   -0.601760
    62  H    0.427178
 Sum of Mulliken charges =   1.00000

 Dipole moment (field-independent basis, Debye):
    X=             -1.7854    Y=             -7.9072    Z=            -36.2537  Tot=             37.1490
 Quadrupole moment (field-independent basis, Debye-Ang):
   XX=            -62.2547   YY=           -177.7054   ZZ=             31.4746
   XY=             15.5540   XZ=            -85.0431   YZ=            -11.5030

 Normal termination of Gaussian 16 at Thu May 26 19:02:35 2022.
