 Gaussian 16, Revision C.01,
 Gaussian 16:  ES64L-G16RevC.01  3-Jul-2019

 -------------------------------------------------------------------
 # B3LYP/6-31G* guess=read geom=check nosymm integral(ultrafinegrid)
 -------------------------------------------------------------------

 ------------------------------------------------------
 Candidate Structure: Conf:315 Charge calc in gas phase
 ------------------------------------------------------
 Structure from the checkpoint file:  "conf-315.chk"
 Charge =  1 Multiplicity = 1

                          Input orientation:
 ---------------------------------------------------------------------
 Center     Atomic      Atomic             Coordinates (Angstroms)
 Number     Number       Type             X           Y           Z
 ---------------------------------------------------------------------
      1          7           0       -3.795341   -1.102943   -3.163026
      2          1           0       -4.361949   -1.932196   -2.971014
      3          1           0       -3.839582   -0.412029   -2.326525
      4          1           0       -4.144155   -0.658148   -4.015845
      5          6           0       -2.301888   -1.370405   -3.194014
      6          1           0       -2.154142   -2.438875   -3.012750
      7          6           0       -1.806224   -0.545785   -1.963053
      8          6           0       -1.669572   -0.943057   -4.521137
      9          1           0       -0.581863   -0.993260   -4.412949
     10          1           0       -1.889758    0.115217   -4.710287
     11          8           0       -2.666253    0.126145   -1.359089
     12          6           0       -2.088222   -1.803206   -5.718547
     13          1           0       -1.853062   -2.862072   -5.548762
     14          1           0       -3.167523   -1.764570   -5.919437
     15          6           0       -1.368951   -1.360383   -6.984422
     16          8           0       -0.528686   -0.492419   -7.027885
     17          8           0       -1.790597   -2.066554   -8.049827
     18          7           0       -0.526142   -0.631612   -1.667033
     19          1           0        0.152359   -1.178627   -2.212585
     20          6           0        0.158960    0.071111   -0.574534
     21          1           0       -0.172264    1.113414   -0.568473
     22          6           0        1.651550   -0.033212   -0.981851
     23          6           0       -0.152257   -0.603699    0.785602
     24          1           0        0.271942   -1.616102    0.760481
     25          1           0       -1.243279   -0.713575    0.843356
     26          8           0        1.982560   -0.883705   -1.824157
     27          6           0        0.326912    0.129044    2.057811
     28          1           0        1.416427    0.248614    2.020342
     29          6           0       -0.300723    1.524084    2.205474
     30          1           0       -1.396786    1.464442    2.226609
     31          1           0        0.029799    1.992370    3.138048
     32          1           0       -0.018867    2.205589    1.393778
     33          6           0        0.003729   -0.738689    3.284670
     34          1           0       -1.078927   -0.886343    3.392347
     35          1           0        0.473254   -1.726776    3.212976
     36          1           0        0.367871   -0.262036    4.200762
     37          7           0        2.485417    0.811324   -0.377340
     38          1           0        2.186720    1.430791    0.381068
     39          6           0        3.945299    0.729830   -0.405196
     40          1           0        4.234081   -0.318734   -0.514089
     41          6           0        4.426479    1.240339    0.993402
     42          6           0        4.508383    1.562574   -1.590279
     43          1           0        3.886544    2.460374   -1.685775
     44          1           0        4.364629    0.986329   -2.513338
     45          8           0        5.604609    0.875830    1.302750
     46          6           0        5.967589    2.036484   -1.471992
     47          1           0        6.210110    2.635041   -2.360775
     48          1           0        6.053344    2.707947   -0.611063
     49          6           0        7.005933    0.915315   -1.319947
     50          1           0        7.089344    0.316517   -2.232399
     51          1           0        6.726038    0.257624   -0.496506
     52          7           0        8.355834    1.437878   -1.037110
     53          1           0        8.865515    1.823934   -1.821640
     54          7           0        8.065251    1.709538    1.267828
     55          1           0        8.505770    1.861367    2.165104
     56          1           0        7.027937    1.445713    1.287567
     57          7           0       10.063359    2.325292    0.238413
     58          1           0       10.443168    2.575851    1.140129
     59          1           0       10.744702    2.027126   -0.445787
     60          6           0        8.801714    1.809693    0.176343
     61          8           0        3.623814    1.924395    1.649415
     62          1           0       -1.288936   -1.750286   -8.826092
 ---------------------------------------------------------------------

 SCF Done:  E(RB3LYP) =  -1447.39492251     A.U. after    2 cycles

 Alpha  occ. eigenvalues --  -19.29654 -19.26254 -19.24303 -19.19571 -19.14073
 Alpha  occ. eigenvalues --  -19.13867 -14.59028 -14.48154 -14.47846 -14.47588
 Alpha  occ. eigenvalues --  -14.45274 -14.42305 -10.43448 -10.42771 -10.42708
 Alpha  occ. eigenvalues --  -10.40458 -10.36480 -10.33807 -10.33080 -10.32605
 Alpha  occ. eigenvalues --  -10.32175 -10.30457 -10.27701 -10.26551 -10.26113
 Alpha  occ. eigenvalues --  -10.25366 -10.25280 -10.23247 -10.23046  -1.20729
 Alpha  occ. eigenvalues --   -1.18602  -1.12859  -1.11954  -1.11877  -1.11322
 Alpha  occ. eigenvalues --   -1.07373  -1.04800  -1.01444  -1.00090  -0.99217
 Alpha  occ. eigenvalues --   -0.98111  -0.94497  -0.89088  -0.87034  -0.86637
 Alpha  occ. eigenvalues --   -0.83169  -0.80662  -0.78669  -0.75743  -0.74598
 Alpha  occ. eigenvalues --   -0.73991  -0.73554  -0.72828  -0.71821  -0.70286
 Alpha  occ. eigenvalues --   -0.69330  -0.69084  -0.67446  -0.65845  -0.65261
 Alpha  occ. eigenvalues --   -0.63983  -0.63478  -0.62483  -0.61107  -0.60733
 Alpha  occ. eigenvalues --   -0.60054  -0.59152  -0.58600  -0.58074  -0.57841
 Alpha  occ. eigenvalues --   -0.56034  -0.55410  -0.55214  -0.53884  -0.53815
 Alpha  occ. eigenvalues --   -0.53350  -0.52866  -0.52540  -0.51679  -0.51476
 Alpha  occ. eigenvalues --   -0.50263  -0.49987  -0.49285  -0.48713  -0.48618
 Alpha  occ. eigenvalues --   -0.48349  -0.48189  -0.47560  -0.46186  -0.45413
 Alpha  occ. eigenvalues --   -0.44555  -0.44245  -0.44122  -0.43142  -0.42977
 Alpha  occ. eigenvalues --   -0.42822  -0.41948  -0.41255  -0.41128  -0.40427
 Alpha  occ. eigenvalues --   -0.39828  -0.39122  -0.38602  -0.38268  -0.37990
 Alpha  occ. eigenvalues --   -0.37051  -0.35781  -0.34012  -0.32803  -0.29901
 Alpha  occ. eigenvalues --   -0.28353  -0.28174
 Alpha virt. eigenvalues --   -0.11487  -0.11046  -0.09120  -0.07804  -0.06010
 Alpha virt. eigenvalues --   -0.05229  -0.04728  -0.03693  -0.01616  -0.00743
 Alpha virt. eigenvalues --   -0.00688  -0.00086   0.00075   0.00486   0.00915

 Mulliken charges:
               1
     1  N   -0.766116
     2  H    0.412938
     3  H    0.439584
     4  H    0.408400
     5  C   -0.107598
     6  H    0.216488
     7  C    0.660664
     8  C   -0.301445
     9  H    0.223532
    10  H    0.191193
    11  O   -0.554532
    12  C   -0.375629
    13  H    0.203238
    14  H    0.168730
    15  C    0.596319
    16  O   -0.437720
    17  O   -0.557558
    18  N   -0.610768
    19  H    0.376063
    20  C   -0.068593
    21  H    0.189187
    22  C    0.620218
    23  C   -0.258660
    24  H    0.148454
    25  H    0.152622
    26  O   -0.565325
    27  C   -0.100745
    28  H    0.165482
    29  C   -0.451082
    30  H    0.142324
    31  H    0.170386
    32  H    0.138729
    33  C   -0.447290
    34  H    0.138623
    35  H    0.145935
    36  H    0.162716
    37  N   -0.614004
    38  H    0.371872
    39  C   -0.052733
    40  H    0.167422
    41  C    0.592498
    42  C   -0.272227
    43  H    0.153862
    44  H    0.154322
    45  O   -0.631679
    46  C   -0.272893
    47  H    0.135856
    48  H    0.165947
    49  C   -0.175163
    50  H    0.164860
    51  H    0.219491
    52  N   -0.596394
    53  H    0.348368
    54  N   -0.776276
    55  H    0.353602
    56  H    0.463130
    57  N   -0.764589
    58  H    0.365156
    59  H    0.364392
    60  C    0.786849
    61  O   -0.551502
    62  H    0.431072
 Sum of Mulliken charges =   1.00000

 Dipole moment (field-independent basis, Debye):
    X=              7.2077    Y=             -2.3102    Z=            -15.4854  Tot=             17.2362
 Quadrupole moment (field-independent basis, Debye-Ang):
   XX=             93.9103   YY=           -156.9292   ZZ=           -100.2736
   XY=             62.7766   XZ=             36.6187   YZ=             19.3548

 Normal termination of Gaussian 16 at Thu May 26 19:02:26 2022.
