 Gaussian 16, Revision C.01,
 Gaussian 16:  ES64L-G16RevC.01  3-Jul-2019

 -------------------------------------------------------------------
 # B3LYP/6-31G* guess=read geom=check nosymm integral(ultrafinegrid)
 -------------------------------------------------------------------

 ------------------------------------------------------
 Candidate Structure: Conf:535 Charge calc in gas phase
 ------------------------------------------------------
 Structure from the checkpoint file:  "conf-535.chk"
 Charge =  1 Multiplicity = 1

                          Input orientation:
 ---------------------------------------------------------------------
 Center     Atomic      Atomic             Coordinates (Angstroms)
 Number     Number       Type             X           Y           Z
 ---------------------------------------------------------------------
      1          7           0       -0.081145   -2.507033   -3.137754
      2          1           0        0.406936   -1.568228   -2.992136
      3          1           0        0.408419   -3.184360   -2.539546
      4          1           0       -0.033182   -2.817285   -4.111852
      5          6           0       -1.505444   -2.347446   -2.613814
      6          1           0       -2.005684   -1.675729   -3.317911
      7          6           0       -1.202979   -1.678151   -1.250933
      8          6           0       -2.229729   -3.684079   -2.495308
      9          1           0       -3.214231   -3.481775   -2.060608
     10          1           0       -1.693851   -4.306310   -1.768868
     11          8           0       -0.588230   -2.339655   -0.426465
     12          6           0       -2.412062   -4.423690   -3.832955
     13          1           0       -2.974645   -3.794116   -4.535450
     14          1           0       -1.458268   -4.686178   -4.301580
     15          6           0       -3.168270   -5.735688   -3.677935
     16          8           0       -2.776580   -6.806889   -4.070248
     17          8           0       -4.349139   -5.545629   -3.046860
     18          7           0       -1.507185   -0.355245   -1.149923
     19          1           0       -1.946428    0.041566   -1.971374
     20          6           0       -0.569879    0.571455   -0.495515
     21          1           0       -1.018632    1.563984   -0.610681
     22          6           0        0.753479    0.571716   -1.325602
     23          6           0       -0.355349    0.306218    1.009580
     24          1           0        0.260090    1.124983    1.405408
     25          1           0        0.222423   -0.613218    1.130343
     26          8           0        0.881143   -0.127900   -2.358783
     27          6           0       -1.647116    0.214217    1.845922
     28          1           0       -2.244010   -0.616581    1.446136
     29          6           0       -1.287307   -0.123346    3.300895
     30          1           0       -0.688148    0.675408    3.756253
     31          1           0       -2.191378   -0.246452    3.907005
     32          1           0       -0.710912   -1.053092    3.364771
     33          6           0       -2.494844    1.493056    1.775659
     34          1           0       -1.925311    2.364928    2.123723
     35          1           0       -2.852149    1.705100    0.760598
     36          1           0       -3.380165    1.403926    2.414370
     37          7           0        1.705332    1.389465   -0.897763
     38          1           0        1.629761    1.916538   -0.024269
     39          6           0        3.062640    1.491782   -1.434269
     40          1           0        3.384360    0.512500   -1.794839
     41          6           0        3.963897    1.949403   -0.257394
     42          6           0        3.130066    2.525478   -2.593277
     43          1           0        2.563662    3.412130   -2.278774
     44          1           0        2.588954    2.106511   -3.448519
     45          8           0        5.192317    1.669089   -0.399534
     46          6           0        4.575196    2.903677   -3.002116
     47          1           0        5.263565    2.165288   -2.587347
     48          1           0        4.675972    2.865319   -4.093094
     49          6           0        5.052649    4.318727   -2.592182
     50          1           0        4.702815    5.051283   -3.327765
     51          1           0        6.145205    4.353795   -2.592781
     52          7           0        4.604894    4.849594   -1.291210
     53          1           0        3.697803    5.294102   -1.274102
     54          7           0        6.272546    3.998368    0.088823
     55          1           0        6.813703    4.160252    0.930092
     56          1           0        6.025080    2.973633   -0.108065
     57          7           0        4.964642    5.798631    0.792774
     58          1           0        5.033655    5.553375    1.771383
     59          1           0        4.306938    6.531269    0.565505
     60          6           0        5.275118    4.854620   -0.128052
     61          8           0        3.409055    2.620811    0.641258
     62          1           0       -4.785673   -6.417426   -2.986654
 ---------------------------------------------------------------------

 SCF Done:  E(RB3LYP) =  -1447.39021518     A.U. after    3 cycles

 Alpha  occ. eigenvalues --  -19.29158 -19.25238 -19.23802 -19.23431 -19.16456
 Alpha  occ. eigenvalues --  -19.16391 -14.58218 -14.48733 -14.48246 -14.48044
 Alpha  occ. eigenvalues --  -14.45772 -14.44458 -10.43336 -10.42432 -10.41993
 Alpha  occ. eigenvalues --  -10.40156 -10.39767 -10.35005 -10.34385 -10.32956
 Alpha  occ. eigenvalues --  -10.32427 -10.32314 -10.30216 -10.27815 -10.27639
 Alpha  occ. eigenvalues --  -10.27084 -10.26795 -10.25274 -10.24391  -1.20002
 Alpha  occ. eigenvalues --   -1.17830  -1.14513  -1.12522  -1.12009  -1.11159
 Alpha  occ. eigenvalues --   -1.09808  -1.05306  -1.02688  -1.01762  -1.00925
 Alpha  occ. eigenvalues --   -0.99133  -0.93812  -0.90371  -0.88031  -0.86913
 Alpha  occ. eigenvalues --   -0.84682  -0.82183  -0.77695  -0.76971  -0.75950
 Alpha  occ. eigenvalues --   -0.74652  -0.73654  -0.73403  -0.71021  -0.70777
 Alpha  occ. eigenvalues --   -0.69959  -0.68996  -0.68619  -0.66933  -0.66001
 Alpha  occ. eigenvalues --   -0.65463  -0.63887  -0.63050  -0.62982  -0.60603
 Alpha  occ. eigenvalues --   -0.60005  -0.58906  -0.58667  -0.58113  -0.57565
 Alpha  occ. eigenvalues --   -0.57028  -0.56677  -0.55921  -0.55224  -0.54723
 Alpha  occ. eigenvalues --   -0.54023  -0.53932  -0.53241  -0.52554  -0.51871
 Alpha  occ. eigenvalues --   -0.51821  -0.50887  -0.50687  -0.49922  -0.49293
 Alpha  occ. eigenvalues --   -0.49116  -0.48302  -0.47912  -0.47751  -0.47518
 Alpha  occ. eigenvalues --   -0.46798  -0.46274  -0.45742  -0.45273  -0.44428
 Alpha  occ. eigenvalues --   -0.43515  -0.42836  -0.42202  -0.41608  -0.41276
 Alpha  occ. eigenvalues --   -0.40858  -0.40424  -0.39441  -0.38833  -0.38430
 Alpha  occ. eigenvalues --   -0.37254  -0.36859  -0.36680  -0.36268  -0.32148
 Alpha  occ. eigenvalues --   -0.30871  -0.30470
 Alpha virt. eigenvalues --   -0.13159  -0.09336  -0.09181  -0.08923  -0.08476
 Alpha virt. eigenvalues --   -0.05646  -0.04908  -0.03415  -0.02465  -0.01326
 Alpha virt. eigenvalues --   -0.00880  -0.00759  -0.00386   0.00744   0.00927

 Mulliken charges:
               1
     1  N   -0.763862
     2  H    0.461411
     3  H    0.414188
     4  H    0.405322
     5  C   -0.110382
     6  H    0.189080
     7  C    0.608535
     8  C   -0.285280
     9  H    0.214434
    10  H    0.199064
    11  O   -0.492260
    12  C   -0.370048
    13  H    0.189932
    14  H    0.165446
    15  C    0.580564
    16  O   -0.426849
    17  O   -0.558096
    18  N   -0.558784
    19  H    0.339405
    20  C   -0.105855
    21  H    0.185058
    22  C    0.654723
    23  C   -0.269941
    24  H    0.152806
    25  H    0.183878
    26  O   -0.620360
    27  C   -0.071771
    28  H    0.139847
    29  C   -0.449630
    30  H    0.149071
    31  H    0.156201
    32  H    0.155627
    33  C   -0.454334
    34  H    0.146092
    35  H    0.130706
    36  H    0.163832
    37  N   -0.597291
    38  H    0.367316
    39  C   -0.037951
    40  H    0.170612
    41  C    0.599284
    42  C   -0.268968
    43  H    0.118873
    44  H    0.157998
    45  O   -0.605875
    46  C   -0.293809
    47  H    0.206930
    48  H    0.150732
    49  C   -0.151320
    50  H    0.167210
    51  H    0.196390
    52  N   -0.579709
    53  H    0.346463
    54  N   -0.743395
    55  H    0.345823
    56  H    0.429981
    57  N   -0.749651
    58  H    0.374969
    59  H    0.358073
    60  C    0.758159
    61  O   -0.599508
    62  H    0.430892
 Sum of Mulliken charges =   1.00000

 Dipole moment (field-independent basis, Debye):
    X=              1.7196    Y=              6.2874    Z=            -10.4224  Tot=             12.2929
 Quadrupole moment (field-independent basis, Debye-Ang):
   XX=           -116.3192   YY=            -79.5650   ZZ=           -126.2501
   XY=             68.5849   XZ=              9.2564   YZ=             19.1039

 Normal termination of Gaussian 16 at Thu May 26 19:11:23 2022.
