 Gaussian 16, Revision C.01,
 Gaussian 16:  ES64L-G16RevC.01  3-Jul-2019

 -------------------------------------------------------------------
 # B3LYP/6-31G* guess=read geom=check nosymm integral(ultrafinegrid)
 -------------------------------------------------------------------

 ------------------------------------------------------
 Candidate Structure: Conf:497 Charge calc in gas phase
 ------------------------------------------------------
 Structure from the checkpoint file:  "conf-497.chk"
 Charge =  1 Multiplicity = 1

                          Input orientation:
 ---------------------------------------------------------------------
 Center     Atomic      Atomic             Coordinates (Angstroms)
 Number     Number       Type             X           Y           Z
 ---------------------------------------------------------------------
      1          7           0       -4.682108   -1.339773   -2.598793
      2          1           0       -5.120293   -2.221366   -2.320583
      3          1           0       -4.685470   -0.650354   -1.767918
      4          1           0       -5.199387   -0.954401   -3.393053
      5          6           0       -3.188887   -1.450341   -2.849067
      6          1           0       -2.914234   -2.505658   -2.769194
      7          6           0       -2.599864   -0.639910   -1.651450
      8          6           0       -2.798207   -0.875985   -4.214973
      9          1           0       -1.706820   -0.803747   -4.256817
     10          1           0       -3.155545    0.158705   -4.293045
     11          8           0       -3.414883   -0.030682   -0.934707
     12          6           0       -3.287872   -1.706988   -5.406036
     13          1           0       -2.921481   -2.740251   -5.346784
     14          1           0       -4.382636   -1.780268   -5.460181
     15          6           0       -2.801645   -1.112541   -6.720185
     16          8           0       -2.058326   -0.163539   -6.809949
     17          8           0       -3.306447   -1.787730   -7.769050
     18          7           0       -1.287614   -0.679396   -1.508408
     19          1           0       -0.679158   -1.079971   -2.232940
     20          6           0       -0.483516    0.149593   -0.601641
     21          1           0       -1.024806    1.078584   -0.402879
     22          6           0        0.802031    0.434133   -1.423296
     23          6           0       -0.132084   -0.575445    0.716110
     24          1           0        0.607122    0.040566    1.245071
     25          1           0        0.379172   -1.511156    0.452554
     26          8           0        1.041730   -0.254126   -2.429487
     27          6           0       -1.305505   -0.873453    1.671080
     28          1           0       -2.068889   -1.437642    1.115043
     29          6           0       -0.810767   -1.763855    2.822070
     30          1           0       -0.040806   -1.251042    3.411706
     31          1           0       -1.632453   -2.017437    3.500809
     32          1           0       -0.378494   -2.700963    2.451482
     33          6           0       -1.957931    0.406847    2.213395
     34          1           0       -1.224101    1.025073    2.745797
     35          1           0       -2.406855    1.011293    1.418713
     36          1           0       -2.756142    0.159954    2.922235
     37          7           0        1.577366    1.411901   -0.959538
     38          1           0        1.419333    1.868200   -0.053386
     39          6           0        2.924064    1.709071   -1.436175
     40          1           0        3.484699    0.765756   -1.488533
     41          6           0        3.574792    2.570670   -0.291820
     42          6           0        2.926524    2.366089   -2.852677
     43          1           0        3.182043    3.430203   -2.772479
     44          1           0        1.899839    2.325960   -3.225042
     45          8           0        4.760120    2.986229   -0.528629
     46          6           0        3.827269    1.670522   -3.903996
     47          1           0        3.853258    0.594443   -3.695450
     48          1           0        3.372647    1.780344   -4.895587
     49          6           0        5.263971    2.210582   -4.026797
     50          1           0        5.247889    3.203336   -4.497778
     51          1           0        5.843852    1.546530   -4.681249
     52          7           0        5.894948    2.313603   -2.719268
     53          1           0        5.289400    2.636255   -1.879056
     54          7           0        8.147525    1.934676   -3.292398
     55          1           0        8.992584    1.467294   -2.996264
     56          1           0        7.922471    1.869050   -4.273480
     57          7           0        7.475890    2.139180   -1.071255
     58          1           0        8.402642    2.444010   -0.806437
     59          1           0        6.714364    2.405280   -0.441014
     60          6           0        7.155115    2.133695   -2.389937
     61          8           0        2.902460    2.754106    0.729442
     62          1           0       -2.953393   -1.373700   -8.580379
 ---------------------------------------------------------------------

 SCF Done:  E(RB3LYP) =  -1447.40050190     A.U. after    3 cycles

 Alpha  occ. eigenvalues --  -19.30081 -19.26933 -19.24736 -19.20609 -19.15984
 Alpha  occ. eigenvalues --  -19.15052 -14.59806 -14.48821 -14.47317 -14.44996
 Alpha  occ. eigenvalues --  -14.44209 -14.42960 -10.43427 -10.43213 -10.42159
 Alpha  occ. eigenvalues --  -10.41065 -10.37291 -10.34319 -10.33568 -10.33507
 Alpha  occ. eigenvalues --  -10.33331 -10.31714 -10.29072 -10.27317 -10.26869
 Alpha  occ. eigenvalues --  -10.26745 -10.26033 -10.24188 -10.24039  -1.21160
 Alpha  occ. eigenvalues --   -1.19263  -1.13626  -1.12391  -1.12221  -1.10871
 Alpha  occ. eigenvalues --   -1.08861  -1.05538  -1.01395  -1.00098  -0.99092
 Alpha  occ. eigenvalues --   -0.98853  -0.95059  -0.89976  -0.87683  -0.87155
 Alpha  occ. eigenvalues --   -0.84200  -0.81070  -0.79217  -0.75678  -0.75170
 Alpha  occ. eigenvalues --   -0.74893  -0.74136  -0.72799  -0.72609  -0.70775
 Alpha  occ. eigenvalues --   -0.70087  -0.68335  -0.67632  -0.66397  -0.64931
 Alpha  occ. eigenvalues --   -0.64007  -0.63888  -0.63153  -0.61288  -0.60471
 Alpha  occ. eigenvalues --   -0.60244  -0.59706  -0.58767  -0.58425  -0.58223
 Alpha  occ. eigenvalues --   -0.57185  -0.56238  -0.55796  -0.55496  -0.54128
 Alpha  occ. eigenvalues --   -0.53784  -0.53396  -0.52512  -0.52148  -0.51614
 Alpha  occ. eigenvalues --   -0.50991  -0.50750  -0.50147  -0.49946  -0.49127
 Alpha  occ. eigenvalues --   -0.48896  -0.48467  -0.48002  -0.47039  -0.46343
 Alpha  occ. eigenvalues --   -0.46086  -0.45946  -0.45151  -0.43911  -0.43192
 Alpha  occ. eigenvalues --   -0.42426  -0.42375  -0.42275  -0.41655  -0.40982
 Alpha  occ. eigenvalues --   -0.40763  -0.40201  -0.39948  -0.38432  -0.38299
 Alpha  occ. eigenvalues --   -0.38004  -0.34796  -0.34769  -0.33441  -0.31210
 Alpha  occ. eigenvalues --   -0.30536  -0.29402
 Alpha virt. eigenvalues --   -0.12096  -0.11697  -0.09615  -0.06969  -0.06590
 Alpha virt. eigenvalues --   -0.06065  -0.04310  -0.03563  -0.02064  -0.01373
 Alpha virt. eigenvalues --   -0.00914  -0.00718   0.00396   0.00491   0.01219

 Mulliken charges:
               1
     1  N   -0.763469
     2  H    0.414855
     3  H    0.438811
     4  H    0.410268
     5  C   -0.110605
     6  H    0.216023
     7  C    0.654715
     8  C   -0.305089
     9  H    0.227204
    10  H    0.192558
    11  O   -0.545801
    12  C   -0.376151
    13  H    0.203643
    14  H    0.169149
    15  C    0.596673
    16  O   -0.437406
    17  O   -0.557006
    18  N   -0.591382
    19  H    0.372682
    20  C   -0.088782
    21  H    0.194807
    22  C    0.628147
    23  C   -0.262112
    24  H    0.172885
    25  H    0.146692
    26  O   -0.570356
    27  C   -0.069867
    28  H    0.111978
    29  C   -0.447129
    30  H    0.158090
    31  H    0.153416
    32  H    0.142420
    33  C   -0.459475
    34  H    0.155869
    35  H    0.155393
    36  H    0.153580
    37  N   -0.622633
    38  H    0.368917
    39  C   -0.057884
    40  H    0.164351
    41  C    0.617184
    42  C   -0.294962
    43  H    0.166175
    44  H    0.166371
    45  O   -0.638218
    46  C   -0.277947
    47  H    0.165896
    48  H    0.154785
    49  C   -0.152455
    50  H    0.176249
    51  H    0.143120
    52  N   -0.625467
    53  H    0.451420
    54  N   -0.759198
    55  H    0.366754
    56  H    0.368142
    57  N   -0.773704
    58  H    0.354199
    59  H    0.404041
    60  C    0.756906
    61  O   -0.538829
    62  H    0.431559
 Sum of Mulliken charges =   1.00000

 Dipole moment (field-independent basis, Debye):
    X=             -2.0440    Y=             -6.0464    Z=            -19.3281  Tot=             20.3547
 Quadrupole moment (field-independent basis, Debye-Ang):
   XX=             31.1350   YY=           -164.8729   ZZ=            -88.3277
   XY=             46.5458   XZ=             -2.6446   YZ=              3.6406

 Normal termination of Gaussian 16 at Thu May 26 19:11:19 2022.
