 Gaussian 16, Revision C.01,
 Gaussian 16:  ES64L-G16RevC.01  3-Jul-2019

 -------------------------------------------------------------------
 # B3LYP/6-31G* guess=read geom=check nosymm integral(ultrafinegrid)
 -------------------------------------------------------------------

 ------------------------------------------------------
 Candidate Structure: Conf:950 Charge calc in gas phase
 ------------------------------------------------------
 Structure from the checkpoint file:  "conf-950.chk"
 Charge =  1 Multiplicity = 1

                          Input orientation:
 ---------------------------------------------------------------------
 Center     Atomic      Atomic             Coordinates (Angstroms)
 Number     Number       Type             X           Y           Z
 ---------------------------------------------------------------------
      1          7           0       -3.705860   -0.867970   -3.335671
      2          1           0       -3.844820   -1.882833   -3.330606
      3          1           0       -4.071482   -0.464856   -2.406481
      4          1           0       -4.199314   -0.474250   -4.141505
      5          6           0       -2.246387   -0.466941   -3.254500
      6          1           0       -1.638080   -1.340678   -3.502242
      7          6           0       -2.111251   -0.090992   -1.742064
      8          6           0       -1.973227    0.689211   -4.235382
      9          1           0       -2.570653    1.560412   -3.938460
     10          1           0       -2.308393    0.385379   -5.233456
     11          8           0       -3.175985    0.087888   -1.124457
     12          6           0       -0.485769    1.073065   -4.313223
     13          1           0       -0.112163    1.465267   -3.363446
     14          1           0        0.120222    0.185643   -4.549723
     15          6           0       -0.148834    2.097254   -5.382565
     16          8           0        0.801918    2.855256   -5.322538
     17          8           0       -0.981153    2.057253   -6.431614
     18          7           0       -0.887809   -0.009394   -1.250854
     19          1           0       -0.073715   -0.061434   -1.858855
     20          6           0       -0.515649    0.352909    0.124871
     21          1           0       -1.349327    0.899288    0.572247
     22          6           0        0.725526    1.268132    0.004784
     23          6           0       -0.172014   -0.909231    0.954750
     24          1           0        0.319754   -0.584861    1.881812
     25          1           0        0.583594   -1.475912    0.391739
     26          8           0        1.291066    1.370304   -1.117493
     27          6           0       -1.359415   -1.828922    1.301624
     28          1           0       -1.870129   -2.118723    0.368377
     29          6           0       -0.824837   -3.111325    1.959372
     30          1           0       -0.298614   -2.878729    2.892420
     31          1           0       -1.643773   -3.798716    2.199032
     32          1           0       -0.121903   -3.638825    1.303456
     33          6           0       -2.383016   -1.135980    2.214114
     34          1           0       -1.903863   -0.782959    3.135028
     35          1           0       -2.863814   -0.280079    1.726896
     36          1           0       -3.178881   -1.833495    2.498721
     37          7           0        1.119536    1.826760    1.140558
     38          1           0        0.688213    1.457601    2.033550
     39          6           0        2.527400    2.006971    1.559540
     40          1           0        3.179241    1.499032    0.840499
     41          6           0        2.597704    1.225250    2.960811
     42          6           0        3.011025    3.443480    1.767064
     43          1           0        3.933938    3.341151    2.346117
     44          1           0        2.301313    3.985544    2.407666
     45          8           0        3.715650    1.175851    3.472638
     46          6           0        3.304118    4.248135    0.491944
     47          1           0        3.964284    5.094015    0.726805
     48          1           0        3.848213    3.616737   -0.223429
     49          6           0        2.033271    4.792391   -0.168087
     50          1           0        1.562463    5.548567    0.467644
     51          1           0        1.291131    4.006193   -0.317566
     52          7           0        2.279966    5.432195   -1.473002
     53          1           0        2.716442    6.345556   -1.457658
     54          7           0        2.055005    3.487310   -2.748809
     55          1           0        1.808703    3.109036   -3.661088
     56          1           0        1.969292    2.843125   -1.948805
     57          7           0        2.506103    5.507776   -3.777375
     58          1           0        2.463702    5.039434   -4.671813
     59          1           0        2.346728    6.504908   -3.783829
     60          6           0        2.274091    4.793007   -2.648335
     61          8           0        1.469948    0.784878    3.351012
     62          1           0       -0.672634    2.711136   -7.089790
 ---------------------------------------------------------------------

 SCF Done:  E(RB3LYP) =  -1447.36382146     A.U. after    3 cycles

 Alpha  occ. eigenvalues --  -19.34980 -19.29664 -19.28173 -19.22411 -19.11489
 Alpha  occ. eigenvalues --  -19.10032 -14.61598 -14.50723 -14.50271 -14.50198
 Alpha  occ. eigenvalues --  -14.48239 -14.42039 -10.48076 -10.46153 -10.44980
 Alpha  occ. eigenvalues --  -10.43158 -10.38103 -10.37461 -10.36260 -10.33866
 Alpha  occ. eigenvalues --  -10.33030 -10.28963 -10.27028 -10.26729 -10.26545
 Alpha  occ. eigenvalues --  -10.26396 -10.24324 -10.23747 -10.23596  -1.26071
 Alpha  occ. eigenvalues --   -1.20752  -1.16971  -1.15311  -1.14648  -1.12807
 Alpha  occ. eigenvalues --   -1.07133  -1.04469  -1.04124  -1.02318  -0.99390
 Alpha  occ. eigenvalues --   -0.97679  -0.95586  -0.90927  -0.88848  -0.87974
 Alpha  occ. eigenvalues --   -0.84732  -0.81983  -0.81210  -0.77284  -0.76787
 Alpha  occ. eigenvalues --   -0.75701  -0.75059  -0.74657  -0.74275  -0.73696
 Alpha  occ. eigenvalues --   -0.72032  -0.71617  -0.69330  -0.68023  -0.66679
 Alpha  occ. eigenvalues --   -0.66093  -0.65070  -0.63873  -0.63681  -0.62983
 Alpha  occ. eigenvalues --   -0.62660  -0.62305  -0.61439  -0.60578  -0.60037
 Alpha  occ. eigenvalues --   -0.58175  -0.57942  -0.57462  -0.56356  -0.55681
 Alpha  occ. eigenvalues --   -0.55287  -0.54817  -0.54103  -0.53718  -0.52969
 Alpha  occ. eigenvalues --   -0.52581  -0.52326  -0.51704  -0.51001  -0.50776
 Alpha  occ. eigenvalues --   -0.49053  -0.48646  -0.47775  -0.47064  -0.46404
 Alpha  occ. eigenvalues --   -0.45775  -0.45420  -0.44678  -0.43684  -0.43428
 Alpha  occ. eigenvalues --   -0.42805  -0.42736  -0.42075  -0.41114  -0.41020
 Alpha  occ. eigenvalues --   -0.40797  -0.40294  -0.39862  -0.39470  -0.39013
 Alpha  occ. eigenvalues --   -0.38313  -0.38002  -0.36246  -0.34129  -0.26435
 Alpha  occ. eigenvalues --   -0.26264  -0.23957
 Alpha virt. eigenvalues --   -0.14717  -0.13643  -0.12720  -0.10287  -0.08355
 Alpha virt. eigenvalues --   -0.07936  -0.07239  -0.06180  -0.05259  -0.03435
 Alpha virt. eigenvalues --   -0.02981  -0.02446  -0.01590  -0.00859  -0.00547

 Mulliken charges:
               1
     1  N   -0.761623
     2  H    0.421453
     3  H    0.440682
     4  H    0.412496
     5  C   -0.113789
     6  H    0.217289
     7  C    0.652254
     8  C   -0.294670
     9  H    0.194644
    10  H    0.197960
    11  O   -0.538907
    12  C   -0.409109
    13  H    0.218556
    14  H    0.210325
    15  C    0.618450
    16  O   -0.478819
    17  O   -0.543094
    18  N   -0.574710
    19  H    0.362420
    20  C   -0.104418
    21  H    0.203667
    22  C    0.610482
    23  C   -0.289577
    24  H    0.230286
    25  H    0.133415
    26  O   -0.619914
    27  C   -0.066881
    28  H    0.086008
    29  C   -0.448873
    30  H    0.179654
    31  H    0.147893
    32  H    0.138459
    33  C   -0.463143
    34  H    0.178536
    35  H    0.143050
    36  H    0.150395
    37  N   -0.585996
    38  H    0.372159
    39  C   -0.104154
    40  H    0.150562
    41  C    0.602922
    42  C   -0.271527
    43  H    0.200897
    44  H    0.142464
    45  O   -0.541478
    46  C   -0.269986
    47  H    0.147880
    48  H    0.148291
    49  C   -0.178806
    50  H    0.184273
    51  H    0.187563
    52  N   -0.593567
    53  H    0.357055
    54  N   -0.826565
    55  H    0.390346
    56  H    0.434884
    57  N   -0.767931
    58  H    0.378121
    59  H    0.368095
    60  C    0.800838
    61  O   -0.606674
    62  H    0.439486
 Sum of Mulliken charges =   1.00000

 Dipole moment (field-independent basis, Debye):
    X=            -11.3508    Y=             10.7584    Z=            -31.1275  Tot=             34.8354
 Quadrupole moment (field-independent basis, Debye-Ang):
   XX=           -141.8839   YY=            -70.3623   ZZ=            -95.8857
   XY=             41.5845   XZ=              7.4030   YZ=            -42.2634

 Normal termination of Gaussian 16 at Thu May 26 19:11:20 2022.
