 Gaussian 16, Revision C.01,
 Gaussian 16:  ES64L-G16RevC.01  3-Jul-2019

 -------------------------------------------------------------------
 # B3LYP/6-31G* guess=read geom=check nosymm integral(ultrafinegrid)
 -------------------------------------------------------------------

 ------------------------------------------------------
 Candidate Structure: Conf:448 Charge calc in gas phase
 ------------------------------------------------------
 Structure from the checkpoint file:  "conf-448.chk"
 Charge =  1 Multiplicity = 1

                          Input orientation:
 ---------------------------------------------------------------------
 Center     Atomic      Atomic             Coordinates (Angstroms)
 Number     Number       Type             X           Y           Z
 ---------------------------------------------------------------------
      1          7           0       -2.935486   -2.725968   -2.678720
      2          1           0       -3.165077   -3.536577   -2.096689
      3          1           0       -3.291008   -1.837386   -2.194703
      4          1           0       -3.365810   -2.850908   -3.599181
      5          6           0       -1.446640   -2.437203   -2.744428
      6          1           0       -0.910173   -3.324251   -2.398298
      7          6           0       -1.312722   -1.251512   -1.740536
      8          6           0       -1.057434   -2.081046   -4.192168
      9          1           0       -1.547999   -1.145470   -4.482076
     10          1           0       -1.445333   -2.871496   -4.849325
     11          8           0       -2.365617   -0.672410   -1.415674
     12          6           0        0.460780   -1.966862   -4.416291
     13          1           0        0.888090   -1.147885   -3.825135
     14          1           0        0.979290   -2.885308   -4.126249
     15          6           0        0.824297   -1.702778   -5.869834
     16          8           0        1.738633   -2.224699   -6.456249
     17          8           0        0.003292   -0.778529   -6.427624
     18          7           0       -0.094823   -0.951741   -1.328558
     19          1           0        0.747001   -1.428169   -1.670205
     20          6           0        0.271847    0.189761   -0.481911
     21          1           0       -0.347755    1.045044   -0.766073
     22          6           0        1.756738    0.437666   -0.857261
     23          6           0        0.051865   -0.160145    1.012528
     24          1           0        0.741447   -0.973790    1.272744
     25          1           0       -0.965360   -0.566848    1.089677
     26          8           0        2.366739   -0.435372   -1.495586
     27          6           0        0.190344    0.984358    2.040005
     28          1           0        1.210486    1.385890    2.002772
     29          6           0       -0.789997    2.137589    1.773398
     30          1           0       -1.828389    1.781753    1.772126
     31          1           0       -0.698387    2.902354    2.551384
     32          1           0       -0.608764    2.637599    0.813800
     33          6           0       -0.021484    0.413586    3.451598
     34          1           0       -1.035200    0.008617    3.567558
     35          1           0        0.690224   -0.390793    3.670459
     36          1           0        0.114286    1.193700    4.207866
     37          7           0        2.291466    1.592681   -0.454418
     38          1           0        1.790216    2.235517    0.161101
     39          6           0        3.727004    1.880122   -0.446489
     40          1           0        4.274853    0.951005   -0.268501
     41          6           0        3.995381    2.885832    0.707801
     42          6           0        4.237545    2.502212   -1.768981
     43          1           0        4.092709    1.779091   -2.578238
     44          1           0        5.317002    2.633032   -1.640781
     45          8           0        5.193918    3.110646    0.959755
     46          6           0        3.558897    3.850635   -2.122970
     47          1           0        2.959250    3.748275   -3.035513
     48          1           0        2.847194    4.116698   -1.335324
     49          6           0        4.500942    5.040950   -2.395617
     50          1           0        3.909036    5.923416   -2.672412
     51          1           0        5.138824    4.819142   -3.255405
     52          7           0        5.436535    5.408790   -1.313619
     53          1           0        6.423242    5.415397   -1.537664
     54          7           0        3.885474    5.921758    0.381119
     55          1           0        3.532196    5.252859    1.098763
     56          1           0        3.200526    6.053309   -0.352915
     57          7           0        6.151376    5.701591    0.865825
     58          1           0        5.840265    5.909152    1.808419
     59          1           0        6.755028    4.884498    0.852367
     60          6           0        5.136869    5.644420   -0.032909
     61          8           0        2.968774    3.471747    1.186331
     62          1           0        0.312693   -0.645055   -7.344585
 ---------------------------------------------------------------------

 SCF Done:  E(RB3LYP) =  -1447.38553883     A.U. after    3 cycles

 Alpha  occ. eigenvalues --  -19.29734 -19.26958 -19.23823 -19.21173 -19.16091
 Alpha  occ. eigenvalues --  -19.14899 -14.60267 -14.49239 -14.48484 -14.45460
 Alpha  occ. eigenvalues --  -14.45219 -14.43828 -10.43662 -10.42878 -10.42417
 Alpha  occ. eigenvalues --  -10.41372 -10.38009 -10.34913 -10.33953 -10.33403
 Alpha  occ. eigenvalues --  -10.33371 -10.32390 -10.28980 -10.27947 -10.27859
 Alpha  occ. eigenvalues --  -10.26694 -10.26390 -10.24764 -10.24217  -1.20480
 Alpha  occ. eigenvalues --   -1.19421  -1.14055  -1.12835  -1.11654  -1.11596
 Alpha  occ. eigenvalues --   -1.08754  -1.05868  -1.01417  -1.01045  -0.99653
 Alpha  occ. eigenvalues --   -0.98686  -0.95109  -0.90034  -0.88038  -0.87418
 Alpha  occ. eigenvalues --   -0.84474  -0.82214  -0.79092  -0.76558  -0.75711
 Alpha  occ. eigenvalues --   -0.75192  -0.74166  -0.72945  -0.72617  -0.71114
 Alpha  occ. eigenvalues --   -0.70667  -0.69207  -0.67527  -0.66522  -0.65361
 Alpha  occ. eigenvalues --   -0.64329  -0.63549  -0.63429  -0.61741  -0.61074
 Alpha  occ. eigenvalues --   -0.60022  -0.58683  -0.58465  -0.58331  -0.57309
 Alpha  occ. eigenvalues --   -0.57135  -0.56406  -0.56147  -0.55616  -0.54995
 Alpha  occ. eigenvalues --   -0.54571  -0.53706  -0.52985  -0.52413  -0.52026
 Alpha  occ. eigenvalues --   -0.51005  -0.50718  -0.50136  -0.49929  -0.49507
 Alpha  occ. eigenvalues --   -0.49205  -0.48704  -0.48232  -0.47630  -0.46655
 Alpha  occ. eigenvalues --   -0.46146  -0.45480  -0.45062  -0.44459  -0.44257
 Alpha  occ. eigenvalues --   -0.43236  -0.42619  -0.42177  -0.41761  -0.41592
 Alpha  occ. eigenvalues --   -0.41439  -0.40457  -0.39945  -0.38547  -0.38228
 Alpha  occ. eigenvalues --   -0.37351  -0.36983  -0.35434  -0.34310  -0.31204
 Alpha  occ. eigenvalues --   -0.30613  -0.28947
 Alpha virt. eigenvalues --   -0.12418  -0.11526  -0.09882  -0.09029  -0.06995
 Alpha virt. eigenvalues --   -0.06864  -0.04830  -0.03339  -0.02231  -0.01563
 Alpha virt. eigenvalues --   -0.01165  -0.01089  -0.00615   0.00682   0.01109

 Mulliken charges:
               1
     1  N   -0.760145
     2  H    0.417356
     3  H    0.435794
     4  H    0.412627
     5  C   -0.108398
     6  H    0.215955
     7  C    0.650395
     8  C   -0.301363
     9  H    0.206633
    10  H    0.176959
    11  O   -0.547336
    12  C   -0.376549
    13  H    0.214523
    14  H    0.197469
    15  C    0.577680
    16  O   -0.425187
    17  O   -0.566188
    18  N   -0.603931
    19  H    0.379544
    20  C   -0.080455
    21  H    0.190042
    22  C    0.623250
    23  C   -0.254743
    24  H    0.152040
    25  H    0.152430
    26  O   -0.560084
    27  C   -0.102398
    28  H    0.162361
    29  C   -0.451783
    30  H    0.147567
    31  H    0.168419
    32  H    0.132654
    33  C   -0.448041
    34  H    0.141877
    35  H    0.150229
    36  H    0.163030
    37  N   -0.613297
    38  H    0.374745
    39  C   -0.063979
    40  H    0.179074
    41  C    0.596180
    42  C   -0.267826
    43  H    0.161578
    44  H    0.160672
    45  O   -0.595253
    46  C   -0.287718
    47  H    0.156310
    48  H    0.153969
    49  C   -0.166636
    50  H    0.174856
    51  H    0.180652
    52  N   -0.561480
    53  H    0.362887
    54  N   -0.728733
    55  H    0.400664
    56  H    0.347610
    57  N   -0.702360
    58  H    0.368359
    59  H    0.379129
    60  C    0.706968
    61  O   -0.627000
    62  H    0.428392
 Sum of Mulliken charges =   1.00000

 Dipole moment (field-independent basis, Debye):
    X=             -1.9134    Y=              0.5794    Z=            -13.2036  Tot=             13.3541
 Quadrupole moment (field-independent basis, Debye-Ang):
   XX=           -104.7696   YY=            -82.8329   ZZ=           -121.8660
   XY=             85.5049   XZ=             15.7038   YZ=              4.8795

 Normal termination of Gaussian 16 at Thu May 26 19:11:48 2022.
