 Gaussian 16, Revision C.01,
 Gaussian 16:  ES64L-G16RevC.01  3-Jul-2019

 -------------------------------------------------------------------
 # B3LYP/6-31G* guess=read geom=check nosymm integral(ultrafinegrid)
 -------------------------------------------------------------------

 ------------------------------------------------------
 Candidate Structure: Conf:472 Charge calc in gas phase
 ------------------------------------------------------
 Structure from the checkpoint file:  "conf-472.chk"
 Charge =  1 Multiplicity = 1

                          Input orientation:
 ---------------------------------------------------------------------
 Center     Atomic      Atomic             Coordinates (Angstroms)
 Number     Number       Type             X           Y           Z
 ---------------------------------------------------------------------
      1          7           0       -3.960620   -2.487857   -2.478347
      2          1           0       -4.043635   -3.503314   -2.390346
      3          1           0       -4.114332   -2.012665   -1.515694
      4          1           0       -4.653243   -2.160375   -3.156518
      5          6           0       -2.552497   -2.009103   -2.780324
      6          1           0       -1.914465   -2.893146   -2.867531
      7          6           0       -2.198712   -1.219543   -1.479581
      8          6           0       -2.496650   -1.159639   -4.052939
      9          1           0       -1.506035   -0.698528   -4.111646
     10          1           0       -3.198325   -0.320383   -3.966885
     11          8           0       -3.102552   -1.113387   -0.626980
     12          6           0       -2.753626   -1.946743   -5.342625
     13          1           0       -2.037841   -2.771433   -5.454674
     14          1           0       -3.749907   -2.408800   -5.373127
     15          6           0       -2.628264   -1.045907   -6.562817
     16          8           0       -2.320126    0.122441   -6.523548
     17          8           0       -2.904357   -1.723727   -7.692037
     18          7           0       -0.976683   -0.735928   -1.394609
     19          1           0       -0.273200   -0.826296   -2.139189
     20          6           0       -0.430471    0.051446   -0.282021
     21          1           0       -1.161159    0.816181   -0.003229
     22          6           0        0.833967    0.697020   -0.906924
     23          6           0       -0.116541   -0.863826    0.928924
     24          1           0        0.680211   -1.556070    0.626633
     25          1           0       -1.015176   -1.467801    1.111046
     26          8           0        1.285515    0.225685   -1.963281
     27          6           0        0.273282   -0.169867    2.252304
     28          1           0        1.174572    0.434485    2.093193
     29          6           0       -0.834886    0.754232    2.781513
     30          1           0       -1.770990    0.201442    2.934302
     31          1           0       -0.540334    1.189559    3.741796
     32          1           0       -1.048402    1.592494    2.107261
     33          6           0        0.621480   -1.244170    3.295015
     34          1           0       -0.246462   -1.879572    3.514795
     35          1           0        1.434689   -1.892257    2.948050
     36          1           0        0.941688   -0.781023    4.234173
     37          7           0        1.361001    1.724966   -0.243414
     38          1           0        1.007791    2.038664    0.663881
     39          6           0        2.668563    2.322329   -0.514909
     40          1           0        3.343779    1.549485   -0.894058
     41          6           0        3.168454    2.858106    0.859773
     42          6           0        2.530695    3.459754   -1.562855
     43          1           0        2.043084    4.320062   -1.084558
     44          1           0        1.834881    3.096491   -2.327789
     45          8           0        4.414985    3.117743    0.912846
     46          6           0        3.803521    3.905944   -2.307143
     47          1           0        4.295546    3.027303   -2.744543
     48          1           0        3.488482    4.522839   -3.162011
     49          6           0        4.885361    4.665226   -1.525592
     50          1           0        5.717029    4.901437   -2.201466
     51          1           0        5.251202    4.044697   -0.710836
     52          7           0        4.392571    5.934783   -0.959751
     53          1           0        3.933948    6.566262   -1.604430
     54          7           0        4.894069    5.619801    1.304253
     55          1           0        5.071840    6.054124    2.199617
     56          1           0        4.728615    4.549481    1.282555
     57          7           0        4.275674    7.718994    0.493960
     58          1           0        4.293137    8.088454    1.433315
     59          1           0        4.463866    8.382827   -0.243748
     60          6           0        4.538937    6.395641    0.294690
     61          8           0        2.311052    3.033334    1.743178
     62          1           0       -2.797180   -1.102981   -8.438691
 ---------------------------------------------------------------------

 SCF Done:  E(RB3LYP) =  -1447.39740797     A.U. after    1 cycles

 Alpha  occ. eigenvalues --  -19.29770 -19.26462 -19.24429 -19.19930 -19.14938
 Alpha  occ. eigenvalues --  -19.14650 -14.59261 -14.48372 -14.47381 -14.47103
 Alpha  occ. eigenvalues --  -14.44203 -14.42627 -10.42926 -10.42899 -10.42832
 Alpha  occ. eigenvalues --  -10.40645 -10.36827 -10.33979 -10.33215 -10.32931
 Alpha  occ. eigenvalues --  -10.32762 -10.29873 -10.28187 -10.26861 -10.26513
 Alpha  occ. eigenvalues --  -10.25678 -10.25619 -10.23663 -10.23360  -1.20852
 Alpha  occ. eigenvalues --   -1.18803  -1.13096  -1.12079  -1.11696  -1.11171
 Alpha  occ. eigenvalues --   -1.08275  -1.05044  -1.00793  -1.00502  -0.98904
 Alpha  occ. eigenvalues --   -0.98286  -0.94675  -0.89363  -0.87245  -0.86659
 Alpha  occ. eigenvalues --   -0.83471  -0.80870  -0.78834  -0.75583  -0.74842
 Alpha  occ. eigenvalues --   -0.74328  -0.73747  -0.72508  -0.72043  -0.70430
 Alpha  occ. eigenvalues --   -0.69574  -0.68706  -0.67352  -0.65749  -0.64892
 Alpha  occ. eigenvalues --   -0.64204  -0.63751  -0.62766  -0.60905  -0.60784
 Alpha  occ. eigenvalues --   -0.59759  -0.59303  -0.58616  -0.58295  -0.58033
 Alpha  occ. eigenvalues --   -0.55937  -0.55624  -0.55059  -0.54292  -0.54184
 Alpha  occ. eigenvalues --   -0.53238  -0.52899  -0.52355  -0.51722  -0.50735
 Alpha  occ. eigenvalues --   -0.50470  -0.50397  -0.49572  -0.49253  -0.48865
 Alpha  occ. eigenvalues --   -0.48815  -0.48509  -0.48124  -0.46848  -0.45669
 Alpha  occ. eigenvalues --   -0.44854  -0.44578  -0.44201  -0.43414  -0.43334
 Alpha  occ. eigenvalues --   -0.42641  -0.42068  -0.41483  -0.41059  -0.40794
 Alpha  occ. eigenvalues --   -0.40016  -0.39482  -0.38974  -0.38121  -0.37913
 Alpha  occ. eigenvalues --   -0.37332  -0.35219  -0.34350  -0.33181  -0.30535
 Alpha  occ. eigenvalues --   -0.29398  -0.28904
 Alpha virt. eigenvalues --   -0.11675  -0.11244  -0.09261  -0.07371  -0.06200
 Alpha virt. eigenvalues --   -0.05540  -0.04270  -0.03892  -0.01737  -0.00932
 Alpha virt. eigenvalues --   -0.00791  -0.00256   0.00032   0.00774   0.01011

 Mulliken charges:
               1
     1  N   -0.765675
     2  H    0.413555
     3  H    0.439152
     4  H    0.408742
     5  C   -0.107888
     6  H    0.217052
     7  C    0.660380
     8  C   -0.301515
     9  H    0.223114
    10  H    0.191197
    11  O   -0.554230
    12  C   -0.375754
    13  H    0.204122
    14  H    0.168741
    15  C    0.596587
    16  O   -0.438345
    17  O   -0.557115
    18  N   -0.611602
    19  H    0.376743
    20  C   -0.068248
    21  H    0.188664
    22  C    0.625226
    23  C   -0.259433
    24  H    0.149710
    25  H    0.153931
    26  O   -0.565625
    27  C   -0.099761
    28  H    0.162629
    29  C   -0.451491
    30  H    0.143871
    31  H    0.168884
    32  H    0.138165
    33  C   -0.447441
    34  H    0.139670
    35  H    0.147761
    36  H    0.162289
    37  N   -0.615057
    38  H    0.372803
    39  C   -0.049064
    40  H    0.169441
    41  C    0.596473
    42  C   -0.262138
    43  H    0.139082
    44  H    0.159130
    45  O   -0.623306
    46  C   -0.285695
    47  H    0.166372
    48  H    0.134553
    49  C   -0.162367
    50  H    0.162020
    51  H    0.235540
    52  N   -0.600953
    53  H    0.342508
    54  N   -0.765291
    55  H    0.347679
    56  H    0.449297
    57  N   -0.763618
    58  H    0.364676
    59  H    0.361036
    60  C    0.777536
    61  O   -0.558091
    62  H    0.431371
 Sum of Mulliken charges =   1.00000

 Dipole moment (field-independent basis, Debye):
    X=             -5.0847    Y=              5.2169    Z=            -12.9936  Tot=             14.8965
 Quadrupole moment (field-independent basis, Debye-Ang):
   XX=            -87.5639   YY=            -16.2220   ZZ=           -111.9963
   XY=            108.0546   XZ=             38.9879   YZ=             26.3119

 Normal termination of Gaussian 16 at Thu May 26 19:10:59 2022.
