 Gaussian 16, Revision C.01,
 Gaussian 16:  ES64L-G16RevC.01  3-Jul-2019

 -------------------------------------------------------------------
 # B3LYP/6-31G* guess=read geom=check nosymm integral(ultrafinegrid)
 -------------------------------------------------------------------

 -----------------------------------------------------
 Candidate Structure: Conf:14 Charge calc in gas phase
 -----------------------------------------------------
 Structure from the checkpoint file:  "conf-14.chk"
 Charge =  1 Multiplicity = 1

                          Input orientation:
 ---------------------------------------------------------------------
 Center     Atomic      Atomic             Coordinates (Angstroms)
 Number     Number       Type             X           Y           Z
 ---------------------------------------------------------------------
      1          7           0       -4.481903   -1.539296   -2.610126
      2          1           0       -4.783513   -2.336765   -2.042285
      3          1           0       -4.563511   -0.652307   -2.021281
      4          1           0       -5.066349   -1.493299   -3.449513
      5          6           0       -2.993892   -1.550840   -2.911827
      6          1           0       -2.628390   -2.575512   -2.808661
      7          6           0       -2.440300   -0.608752   -1.801614
      8          6           0       -2.768606   -1.014612   -4.338360
      9          1           0       -3.092012    0.033823   -4.373866
     10          1           0       -3.407628   -1.579399   -5.027507
     11          8           0       -3.257983    0.170115   -1.281395
     12          6           0       -1.313772   -1.135852   -4.827269
     13          1           0       -0.608042   -0.567434   -4.218423
     14          1           0       -1.001001   -2.188997   -4.797321
     15          6           0       -1.142413   -0.659382   -6.262045
     16          8           0       -0.247582    0.047579   -6.652938
     17          8           0       -2.117506   -1.148854   -7.068610
     18          7           0       -1.152355   -0.716112   -1.518340
     19          1           0       -0.526761   -1.279447   -2.105284
     20          6           0       -0.359694    0.231514   -0.723969
     21          1           0       -0.871664    1.197633   -0.722809
     22          6           0        0.978064    0.327092   -1.507826
     23          6           0       -0.118422   -0.262545    0.718816
     24          1           0        0.611049    0.413386    1.183783
     25          1           0        0.369384   -1.244635    0.657081
     26          8           0        1.217257   -0.508894   -2.396873
     27          6           0       -1.362463   -0.354790    1.625008
     28          1           0       -2.110581   -0.983498    1.119062
     29          6           0       -0.982698   -1.047549    2.943309
     30          1           0       -0.231961   -0.464429    3.490834
     31          1           0       -1.857155   -1.154956    3.594459
     32          1           0       -0.566840   -2.047068    2.769681
     33          6           0       -1.995349    1.019008    1.892488
     34          1           0       -1.272325    1.698243    2.361682
     35          1           0       -2.367152    1.489129    0.976326
     36          1           0       -2.846713    0.922730    2.575529
     37          7           0        1.795470    1.309908   -1.141231
     38          1           0        1.602931    1.938391   -0.354362
     39          6           0        3.175026    1.482040   -1.597931
     40          1           0        3.654887    0.499322   -1.655676
     41          6           0        3.856473    2.332658   -0.472995
     42          6           0        3.190969    2.137743   -3.012372
     43          1           0        2.962717    3.207561   -2.913475
     44          1           0        2.348547    1.692709   -3.549967
     45          8           0        5.133167    2.361781   -0.497232
     46          6           0        4.454546    1.924806   -3.888371
     47          1           0        5.019459    1.052167   -3.535994
     48          1           0        4.137814    1.680536   -4.908587
     49          6           0        5.415754    3.118087   -4.010725
     50          1           0        4.877666    4.005999   -4.368482
     51          1           0        6.192759    2.878973   -4.749279
     52          7           0        6.021743    3.398266   -2.709352
     53          1           0        5.778795    2.725389   -1.942425
     54          7           0        6.614112    5.629058   -3.068019
     55          1           0        6.861770    6.532902   -2.693196
     56          1           0        6.918283    5.433650   -4.010365
     57          7           0        6.359265    4.767251   -0.905669
     58          1           0        6.782361    5.574241   -0.473579
     59          1           0        5.939658    4.008871   -0.337151
     60          6           0        6.342716    4.597715   -2.231736
     61          8           0        3.106102    2.909366    0.329226
     62          1           0       -1.926565   -0.825696   -7.970398
 ---------------------------------------------------------------------

 SCF Done:  E(RB3LYP) =  -1447.40164031     A.U. after    1 cycles

 Alpha  occ. eigenvalues --  -19.29543 -19.26678 -19.23685 -19.20627 -19.15789
 Alpha  occ. eigenvalues --  -19.15110 -14.60302 -14.48912 -14.47394 -14.44900
 Alpha  occ. eigenvalues --  -14.44050 -14.43122 -10.43405 -10.42226 -10.42109
 Alpha  occ. eigenvalues --  -10.41176 -10.37424 -10.34642 -10.33424 -10.33377
 Alpha  occ. eigenvalues --  -10.31958 -10.31245 -10.28926 -10.27371 -10.26900
 Alpha  occ. eigenvalues --  -10.26859 -10.26078 -10.24239 -10.24205  -1.20283
 Alpha  occ. eigenvalues --   -1.19165  -1.13982  -1.12261  -1.11399  -1.10853
 Alpha  occ. eigenvalues --   -1.08755  -1.05521  -1.01181  -1.00030  -0.99001
 Alpha  occ. eigenvalues --   -0.98795  -0.94872  -0.89811  -0.87138  -0.86916
 Alpha  occ. eigenvalues --   -0.84239  -0.81018  -0.78861  -0.75525  -0.75194
 Alpha  occ. eigenvalues --   -0.74833  -0.73982  -0.72784  -0.72679  -0.70850
 Alpha  occ. eigenvalues --   -0.70273  -0.68534  -0.67318  -0.66509  -0.65071
 Alpha  occ. eigenvalues --   -0.64691  -0.63835  -0.63540  -0.61103  -0.59653
 Alpha  occ. eigenvalues --   -0.59550  -0.59176  -0.59002  -0.58030  -0.56927
 Alpha  occ. eigenvalues --   -0.56569  -0.56109  -0.55733  -0.55216  -0.54525
 Alpha  occ. eigenvalues --   -0.53854  -0.53213  -0.52318  -0.52093  -0.51441
 Alpha  occ. eigenvalues --   -0.50699  -0.50495  -0.50125  -0.49527  -0.48848
 Alpha  occ. eigenvalues --   -0.48458  -0.48061  -0.47754  -0.47230  -0.46488
 Alpha  occ. eigenvalues --   -0.46406  -0.45517  -0.45216  -0.43994  -0.43274
 Alpha  occ. eigenvalues --   -0.42608  -0.41735  -0.41639  -0.41320  -0.41011
 Alpha  occ. eigenvalues --   -0.40746  -0.40262  -0.40057  -0.38363  -0.37935
 Alpha  occ. eigenvalues --   -0.37205  -0.34914  -0.34640  -0.33652  -0.30898
 Alpha  occ. eigenvalues --   -0.30335  -0.29493
 Alpha virt. eigenvalues --   -0.12332  -0.11334  -0.09112  -0.06729  -0.06671
 Alpha virt. eigenvalues --   -0.06185  -0.04570  -0.03353  -0.02069  -0.01129
 Alpha virt. eigenvalues --   -0.01117  -0.00638   0.00448   0.01067   0.01527

 Mulliken charges:
               1
     1  N   -0.755365
     2  H    0.417758
     3  H    0.434214
     4  H    0.412635
     5  C   -0.115595
     6  H    0.213182
     7  C    0.649065
     8  C   -0.301926
     9  H    0.191824
    10  H    0.193356
    11  O   -0.542072
    12  C   -0.380731
    13  H    0.221925
    14  H    0.193374
    15  C    0.579485
    16  O   -0.428116
    17  O   -0.567357
    18  N   -0.586588
    19  H    0.374062
    20  C   -0.093814
    21  H    0.194367
    22  C    0.636344
    23  C   -0.261151
    24  H    0.172448
    25  H    0.149322
    26  O   -0.568993
    27  C   -0.068820
    28  H    0.109128
    29  C   -0.447174
    30  H    0.158582
    31  H    0.152813
    32  H    0.144408
    33  C   -0.460425
    34  H    0.154504
    35  H    0.155714
    36  H    0.153390
    37  N   -0.613002
    38  H    0.366761
    39  C   -0.057510
    40  H    0.172123
    41  C    0.600735
    42  C   -0.274589
    43  H    0.146365
    44  H    0.170914
    45  O   -0.633036
    46  C   -0.307038
    47  H    0.170402
    48  H    0.164727
    49  C   -0.144613
    50  H    0.162905
    51  H    0.163656
    52  N   -0.613540
    53  H    0.412558
    54  N   -0.755715
    55  H    0.364134
    56  H    0.371217
    57  N   -0.777165
    58  H    0.351837
    59  H    0.419575
    60  C    0.773454
    61  O   -0.547410
    62  H    0.428483
 Sum of Mulliken charges =   1.00000

 Dipole moment (field-independent basis, Debye):
    X=             -4.1720    Y=              2.4825    Z=            -17.3997  Tot=             18.0643
 Quadrupole moment (field-independent basis, Debye-Ang):
   XX=            -24.0996   YY=            -93.7968   ZZ=            -99.6594
   XY=            105.1529   XZ=              3.1407   YZ=            -15.0113

 Normal termination of Gaussian 16 at Thu May 26 19:02:18 2022.
