 Gaussian 16, Revision C.01,
 Gaussian 16:  ES64L-G16RevC.01  3-Jul-2019

 -------------------------------------------------------------------
 # B3LYP/6-31G* guess=read geom=check nosymm integral(ultrafinegrid)
 -------------------------------------------------------------------

 ------------------------------------------------------
 Candidate Structure: Conf:364 Charge calc in gas phase
 ------------------------------------------------------
 Structure from the checkpoint file:  "conf-364.chk"
 Charge =  1 Multiplicity = 1

                          Input orientation:
 ---------------------------------------------------------------------
 Center     Atomic      Atomic             Coordinates (Angstroms)
 Number     Number       Type             X           Y           Z
 ---------------------------------------------------------------------
      1          7           0       -4.247459   -0.875371   -3.587422
      2          1           0       -4.855018   -1.678271   -3.406217
      3          1           0       -4.253030   -0.206063   -2.739960
      4          1           0       -4.585119   -0.394083   -4.425127
      5          6           0       -2.770911   -1.223838   -3.648922
      6          1           0       -2.683004   -2.303427   -3.496863
      7          6           0       -2.206628   -0.460087   -2.408081
      8          6           0       -2.132711   -0.802548   -4.974452
      9          1           0       -1.051703   -0.957139   -4.902094
     10          1           0       -2.261021    0.278757   -5.115101
     11          8           0       -3.012223    0.242735   -1.773272
     12          6           0       -2.645295   -1.571471   -6.198228
     13          1           0       -2.637406   -2.654910   -6.013534
     14          1           0       -3.675685   -1.314763   -6.472053
     15          6           0       -1.752379   -1.316451   -7.406319
     16          8           0       -0.631915   -0.865071   -7.343358
     17          8           0       -2.365239   -1.680718   -8.545004
     18          7           0       -0.924276   -0.629957   -2.129745
     19          1           0       -0.299360   -1.123144   -2.767229
     20          6           0       -0.180670    0.083160   -1.080944
     21          1           0       -0.692740    1.027104   -0.882415
     22          6           0        1.218772    0.346857   -1.662905
     23          6           0       -0.033564   -0.739772    0.222302
     24          1           0        0.695017   -0.213799    0.854406
     25          1           0        0.420965   -1.703990   -0.045351
     26          8           0        1.631123   -0.406772   -2.598841
     27          6           0       -1.325200   -0.976975    1.029973
     28          1           0       -2.072811   -1.440893    0.367843
     29          6           0       -1.031511   -1.965090    2.170231
     30          1           0       -0.283926   -1.554547    2.859407
     31          1           0       -1.938050   -2.173463    2.748901
     32          1           0       -0.647796   -2.919627    1.789993
     33          6           0       -1.913806    0.330640    1.580913
     34          1           0       -1.182403    0.852542    2.209700
     35          1           0       -2.230283    1.011694    0.783791
     36          1           0       -2.795389    0.123775    2.197873
     37          7           0        1.886100    1.319580   -1.079389
     38          1           0        1.566199    1.664906   -0.126949
     39          6           0        3.343691    1.462750   -0.975396
     40          1           0        3.829096    0.528106   -1.262630
     41          6           0        3.589207    1.666670    0.593239
     42          6           0        3.914279    2.660592   -1.743748
     43          1           0        4.955141    2.758589   -1.413806
     44          1           0        3.396637    3.562421   -1.393168
     45          8           0        4.773790    1.689980    0.931312
     46          6           0        3.840320    2.642582   -3.280292
     47          1           0        2.799104    2.538669   -3.617957
     48          1           0        4.180215    3.614715   -3.658266
     49          6           0        4.699144    1.578469   -3.978844
     50          1           0        5.714909    1.598430   -3.565978
     51          1           0        4.764168    1.787411   -5.053382
     52          7           0        4.129407    0.235318   -3.783699
     53          1           0        3.129497    0.186036   -3.543436
     54          7           0        6.108093   -1.018035   -3.789664
     55          1           0        6.667281   -1.675521   -3.264149
     56          1           0        6.607782   -0.262603   -4.235211
     57          7           0        4.140468   -1.890274   -2.914896
     58          1           0        4.514169   -2.827284   -2.917060
     59          1           0        3.181456   -1.725685   -2.611876
     60          6           0        4.798486   -0.874140   -3.497563
     61          8           0        2.511174    1.784771    1.252983
     62          1           0       -1.740332   -1.526393   -9.280188
 ---------------------------------------------------------------------

 SCF Done:  E(RB3LYP) =  -1447.36881067     A.U. after    2 cycles

 Alpha  occ. eigenvalues --  -19.31429 -19.28074 -19.26061 -19.23328 -19.12176
 Alpha  occ. eigenvalues --  -19.10721 -14.60823 -14.50437 -14.50107 -14.49032
 Alpha  occ. eigenvalues --  -14.48516 -14.43381 -10.45672 -10.44701 -10.44563
 Alpha  occ. eigenvalues --  -10.42348 -10.38913 -10.35702 -10.34820 -10.34219
 Alpha  occ. eigenvalues --  -10.33543 -10.29698 -10.27882 -10.27634 -10.27467
 Alpha  occ. eigenvalues --  -10.26982 -10.25293 -10.24242 -10.23987  -1.22505
 Alpha  occ. eigenvalues --   -1.20488  -1.14718  -1.14412  -1.13716  -1.13376
 Alpha  occ. eigenvalues --   -1.06924  -1.05224  -1.03461  -1.02537  -1.00509
 Alpha  occ. eigenvalues --   -0.96416  -0.96302  -0.90699  -0.88617  -0.88300
 Alpha  occ. eigenvalues --   -0.84949  -0.81957  -0.80438  -0.77376  -0.75666
 Alpha  occ. eigenvalues --   -0.75361  -0.75078  -0.74878  -0.73680  -0.72155
 Alpha  occ. eigenvalues --   -0.71693  -0.71128  -0.69575  -0.67970  -0.66439
 Alpha  occ. eigenvalues --   -0.65049  -0.64373  -0.63598  -0.62783  -0.62717
 Alpha  occ. eigenvalues --   -0.62615  -0.60791  -0.60501  -0.59831  -0.59309
 Alpha  occ. eigenvalues --   -0.58779  -0.58106  -0.56944  -0.56755  -0.54811
 Alpha  occ. eigenvalues --   -0.54525  -0.53864  -0.53269  -0.53090  -0.52452
 Alpha  occ. eigenvalues --   -0.52260  -0.52038  -0.51104  -0.50523  -0.50205
 Alpha  occ. eigenvalues --   -0.50109  -0.48947  -0.47936  -0.47369  -0.46704
 Alpha  occ. eigenvalues --   -0.45853  -0.45241  -0.44100  -0.43692  -0.43445
 Alpha  occ. eigenvalues --   -0.42791  -0.42527  -0.41921  -0.41370  -0.41205
 Alpha  occ. eigenvalues --   -0.40827  -0.40430  -0.40088  -0.39793  -0.39489
 Alpha  occ. eigenvalues --   -0.38962  -0.37800  -0.37067  -0.35256  -0.27116
 Alpha  occ. eigenvalues --   -0.26930  -0.24712
 Alpha virt. eigenvalues --   -0.13427  -0.12636  -0.10866  -0.10041  -0.08502
 Alpha virt. eigenvalues --   -0.07639  -0.05798  -0.05491  -0.03532  -0.02958
 Alpha virt. eigenvalues --   -0.02195  -0.01955  -0.00938   0.00019   0.00061

 Mulliken charges:
               1
     1  N   -0.763628
     2  H    0.416711
     3  H    0.442145
     4  H    0.411760
     5  C   -0.111200
     6  H    0.217760
     7  C    0.660702
     8  C   -0.306180
     9  H    0.220282
    10  H    0.190963
    11  O   -0.540401
    12  C   -0.378840
    13  H    0.200380
    14  H    0.177318
    15  C    0.598561
    16  O   -0.441650
    17  O   -0.552232
    18  N   -0.592194
    19  H    0.362562
    20  C   -0.082785
    21  H    0.204497
    22  C    0.608500
    23  C   -0.273992
    24  H    0.207704
    25  H    0.128987
    26  O   -0.643184
    27  C   -0.070019
    28  H    0.101616
    29  C   -0.448031
    30  H    0.170434
    31  H    0.153117
    32  H    0.136182
    33  C   -0.463254
    34  H    0.174530
    35  H    0.150315
    36  H    0.152342
    37  N   -0.563067
    38  H    0.380224
    39  C   -0.118625
    40  H    0.125647
    41  C    0.608456
    42  C   -0.258859
    43  H    0.179060
    44  H    0.161832
    45  O   -0.552430
    46  C   -0.304461
    47  H    0.148954
    48  H    0.169722
    49  C   -0.151467
    50  H    0.167725
    51  H    0.179496
    52  N   -0.602342
    53  H    0.404199
    54  N   -0.755165
    55  H    0.377987
    56  H    0.380912
    57  N   -0.778718
    58  H    0.365219
    59  H    0.403180
    60  C    0.786729
    61  O   -0.607493
    62  H    0.433508
 Sum of Mulliken charges =   1.00000

 Dipole moment (field-independent basis, Debye):
    X=             -6.6623    Y=            -10.9756    Z=            -29.3964  Tot=             32.0780
 Quadrupole moment (field-independent basis, Debye-Ang):
   XX=            -55.9645   YY=           -152.0442   ZZ=            -56.7289
   XY=             -7.6328   XZ=             -9.8342   YZ=             17.2713

 Normal termination of Gaussian 16 at Thu May 26 19:02:29 2022.
