 Gaussian 16, Revision C.01,
 Gaussian 16:  ES64L-G16RevC.01  3-Jul-2019

 -------------------------------------------------------------------
 # B3LYP/6-31G* guess=read geom=check nosymm integral(ultrafinegrid)
 -------------------------------------------------------------------

 ------------------------------------------------------
 Candidate Structure: Conf:883 Charge calc in gas phase
 ------------------------------------------------------
 Structure from the checkpoint file:  "conf-883.chk"
 Charge =  1 Multiplicity = 1

                          Input orientation:
 ---------------------------------------------------------------------
 Center     Atomic      Atomic             Coordinates (Angstroms)
 Number     Number       Type             X           Y           Z
 ---------------------------------------------------------------------
      1          7           0       -2.532693   -0.478952   -3.891735
      2          1           0       -2.970076   -1.350406   -4.205452
      3          1           0       -3.140469   -0.043584   -3.115118
      4          1           0       -2.441243    0.147427   -4.694854
      5          6           0       -1.247487   -0.699775   -3.120668
      6          1           0       -0.879362   -1.706228   -3.332755
      7          6           0       -1.719412   -0.532397   -1.642781
      8          6           0       -0.193524    0.378297   -3.422053
      9          1           0        0.558994    0.312435   -2.627665
     10          1           0       -0.657299    1.366343   -3.307362
     11          8           0       -2.814864    0.032580   -1.475270
     12          6           0        0.506901    0.268136   -4.779345
     13          1           0        1.015120   -0.697446   -4.890818
     14          1           0       -0.181144    0.342273   -5.633655
     15          6           0        1.548094    1.361665   -4.953996
     16          8           0        1.740275    2.271483   -4.166536
     17          8           0        2.231066    1.206152   -6.089950
     18          7           0       -0.855748   -0.952201   -0.737090
     19          1           0        0.085682   -1.227647   -1.060951
     20          6           0       -0.687813   -0.428983    0.629436
     21          1           0       -1.305304    0.466393    0.739025
     22          6           0        0.829236   -0.053896    0.656058
     23          6           0       -1.034629   -1.464883    1.713460
     24          1           0       -0.754861   -1.034355    2.683534
     25          1           0       -0.386447   -2.339226    1.566197
     26          8           0        1.546354   -0.433377   -0.301472
     27          6           0       -2.508443   -1.914937    1.759418
     28          1           0       -2.774224   -2.309357    0.766493
     29          6           0       -2.663133   -3.057484    2.775214
     30          1           0       -2.409061   -2.719445    3.787303
     31          1           0       -3.695266   -3.424238    2.796980
     32          1           0       -2.009987   -3.903902    2.532568
     33          6           0       -3.466847   -0.759546    2.087306
     34          1           0       -3.205277   -0.292835    3.045322
     35          1           0       -3.462248    0.016611    1.314033
     36          1           0       -4.495837   -1.127017    2.169808
     37          7           0        1.240641    0.631815    1.704733
     38          1           0        0.663606    0.852870    2.551699
     39          6           0        2.627592    0.842612    2.132346
     40          1           0        3.124352   -0.133042    2.195457
     41          6           0        2.498821    1.447598    3.598981
     42          6           0        3.451161    1.741070    1.200641
     43          1           0        3.282158    1.421036    0.162509
     44          1           0        4.507388    1.562687    1.428624
     45          8           0        3.555877    1.884646    4.078596
     46          6           0        3.180086    3.241122    1.387022
     47          1           0        2.099045    3.438718    1.428753
     48          1           0        3.590128    3.530860    2.359470
     49          6           0        3.814839    4.090517    0.284317
     50          1           0        4.827738    3.745025    0.056676
     51          1           0        3.909300    5.146418    0.558058
     52          7           0        3.061845    4.031143   -0.991404
     53          1           0        3.179041    3.195351   -1.551510
     54          7           0        1.641104    5.805701   -0.492796
     55          1           0        1.062210    6.563365   -0.823669
     56          1           0        1.965228    5.850915    0.461947
     57          7           0        1.467298    4.725370   -2.531290
     58          1           0        0.558395    5.143000   -2.669802
     59          1           0        1.712444    3.964269   -3.159679
     60          6           0        2.058734    4.837093   -1.325172
     61          8           0        1.319604    1.423913    4.052988
     62          1           0        2.890916    1.923251   -6.161284
 ---------------------------------------------------------------------

 SCF Done:  E(RB3LYP) =  -1447.34672755     A.U. after    3 cycles

 Alpha  occ. eigenvalues --  -19.34509 -19.29878 -19.27713 -19.20264 -19.10146
 Alpha  occ. eigenvalues --  -19.08829 -14.61383 -14.52139 -14.51794 -14.51542
 Alpha  occ. eigenvalues --  -14.48695 -14.41339 -10.48274 -10.48104 -10.43959
 Alpha  occ. eigenvalues --  -10.42269 -10.36635 -10.36352 -10.36218 -10.34156
 Alpha  occ. eigenvalues --  -10.33128 -10.27943 -10.26656 -10.26289 -10.26233
 Alpha  occ. eigenvalues --  -10.25808 -10.24704 -10.23885 -10.23585  -1.25897
 Alpha  occ. eigenvalues --   -1.20041  -1.17035  -1.16677  -1.14876  -1.11552
 Alpha  occ. eigenvalues --   -1.05797  -1.05776  -1.04881  -1.03261  -0.98200
 Alpha  occ. eigenvalues --   -0.97003  -0.94457  -0.90912  -0.88656  -0.88327
 Alpha  occ. eigenvalues --   -0.84195  -0.82034  -0.81222  -0.78876  -0.75699
 Alpha  occ. eigenvalues --   -0.74992  -0.74865  -0.74604  -0.74294  -0.74222
 Alpha  occ. eigenvalues --   -0.73770  -0.71061  -0.69624  -0.68035  -0.66659
 Alpha  occ. eigenvalues --   -0.66610  -0.65401  -0.65279  -0.63968  -0.63200
 Alpha  occ. eigenvalues --   -0.62686  -0.62147  -0.61920  -0.59609  -0.59306
 Alpha  occ. eigenvalues --   -0.58889  -0.58347  -0.57351  -0.56921  -0.55386
 Alpha  occ. eigenvalues --   -0.54807  -0.53712  -0.53405  -0.53163  -0.52880
 Alpha  occ. eigenvalues --   -0.52180  -0.51799  -0.51343  -0.50789  -0.50285
 Alpha  occ. eigenvalues --   -0.49635  -0.48276  -0.47142  -0.46937  -0.46375
 Alpha  occ. eigenvalues --   -0.45853  -0.44754  -0.44482  -0.43744  -0.43475
 Alpha  occ. eigenvalues --   -0.43030  -0.42439  -0.42147  -0.41482  -0.40606
 Alpha  occ. eigenvalues --   -0.40556  -0.39884  -0.39727  -0.39434  -0.39233
 Alpha  occ. eigenvalues --   -0.38251  -0.37427  -0.34339  -0.32297  -0.25238
 Alpha  occ. eigenvalues --   -0.24992  -0.23171
 Alpha virt. eigenvalues --   -0.14905  -0.13039  -0.12538  -0.12128  -0.08316
 Alpha virt. eigenvalues --   -0.07990  -0.05875  -0.05692  -0.05579  -0.04473
 Alpha virt. eigenvalues --   -0.04185  -0.02889  -0.02403  -0.01484  -0.01074

 Mulliken charges:
               1
     1  N   -0.758775
     2  H    0.419264
     3  H    0.434042
     4  H    0.406098
     5  C   -0.121088
     6  H    0.218402
     7  C    0.635038
     8  C   -0.309000
     9  H    0.235951
    10  H    0.172246
    11  O   -0.539828
    12  C   -0.376375
    13  H    0.221245
    14  H    0.180967
    15  C    0.612566
    16  O   -0.490661
    17  O   -0.531585
    18  N   -0.564131
    19  H    0.366832
    20  C   -0.102787
    21  H    0.186241
    22  C    0.620945
    23  C   -0.262725
    24  H    0.185783
    25  H    0.148778
    26  O   -0.596516
    27  C   -0.070908
    28  H    0.113115
    29  C   -0.447215
    30  H    0.161676
    31  H    0.151399
    32  H    0.145524
    33  C   -0.461676
    34  H    0.159620
    35  H    0.145381
    36  H    0.153496
    37  N   -0.612448
    38  H    0.372412
    39  C   -0.079210
    40  H    0.163322
    41  C    0.590130
    42  C   -0.263954
    43  H    0.113297
    44  H    0.169019
    45  O   -0.577548
    46  C   -0.278506
    47  H    0.134217
    48  H    0.224059
    49  C   -0.203365
    50  H    0.197496
    51  H    0.170985
    52  N   -0.577390
    53  H    0.368760
    54  N   -0.758698
    55  H    0.379522
    56  H    0.400779
    57  N   -0.789944
    58  H    0.362909
    59  H    0.411609
    60  C    0.811305
    61  O   -0.606010
    62  H    0.435914
 Sum of Mulliken charges =   1.00000

 Dipole moment (field-independent basis, Debye):
    X=             -5.0938    Y=             10.3654    Z=            -29.9770  Tot=             32.1249
 Quadrupole moment (field-independent basis, Debye-Ang):
   XX=           -150.0542   YY=            -78.3668   ZZ=           -125.3638
   XY=             29.0586   XZ=            -13.6102   YZ=            -35.0989

 Normal termination of Gaussian 16 at Thu May 26 19:11:17 2022.
