 Gaussian 16, Revision C.01,
 Gaussian 16:  ES64L-G16RevC.01  3-Jul-2019

 -------------------------------------------------------------------
 # B3LYP/6-31G* guess=read geom=check nosymm integral(ultrafinegrid)
 -------------------------------------------------------------------

 ------------------------------------------------------
 Candidate Structure: Conf:649 Charge calc in gas phase
 ------------------------------------------------------
 Structure from the checkpoint file:  "conf-649.chk"
 Charge =  1 Multiplicity = 1

                          Input orientation:
 ---------------------------------------------------------------------
 Center     Atomic      Atomic             Coordinates (Angstroms)
 Number     Number       Type             X           Y           Z
 ---------------------------------------------------------------------
      1          7           0       -0.197237   -3.215269   -2.424681
      2          1           0        0.419108   -2.339957   -2.372333
      3          1           0        0.139108   -3.848958   -1.689119
      4          1           0       -0.129777   -3.685014   -3.331923
      5          6           0       -1.615621   -2.785791   -2.068584
      6          1           0       -1.969181   -2.187892   -2.914033
      7          6           0       -1.311864   -1.934982   -0.809040
      8          6           0       -2.508211   -3.995157   -1.816230
      9          1           0       -2.108145   -4.560397   -0.968791
     10          1           0       -2.492139   -4.650591   -2.696749
     11          8           0       -0.889182   -2.527800    0.172361
     12          6           0       -3.953693   -3.569594   -1.509833
     13          1           0       -3.974140   -2.972885   -0.587942
     14          1           0       -4.376524   -2.955677   -2.310275
     15          6           0       -4.905663   -4.737980   -1.309119
     16          8           0       -6.038060   -4.778553   -1.723096
     17          8           0       -4.335737   -5.727632   -0.581656
     18          7           0       -1.388897   -0.584949   -0.972247
     19          1           0       -1.714260   -0.289142   -1.884839
     20          6           0       -0.367522    0.314388   -0.408978
     21          1           0       -0.707702    1.325963   -0.651196
     22          6           0        0.956997    0.063573   -1.192964
     23          6           0       -0.245477    0.197796    1.133136
     24          1           0        0.295715   -0.718453    1.381989
     25          1           0       -1.267696    0.060568    1.507327
     26          8           0        1.112746   -0.933436   -1.940032
     27          6           0        0.385543    1.394847    1.880816
     28          1           0        1.428900    1.520696    1.564760
     29          6           0       -0.355910    2.718376    1.636033
     30          1           0       -1.413836    2.637032    1.917800
     31          1           0        0.088320    3.519101    2.235978
     32          1           0       -0.311854    3.049581    0.590568
     33          6           0        0.413096    1.067880    3.383334
     34          1           0       -0.602929    0.950786    3.781441
     35          1           0        0.960702    0.139459    3.581277
     36          1           0        0.902165    1.870915    3.944424
     37          7           0        1.895712    0.986408   -1.040215
     38          1           0        1.791115    1.780540   -0.401333
     39          6           0        3.276666    0.918262   -1.524542
     40          1           0        3.612468   -0.122111   -1.513035
     41          6           0        4.097777    1.779073   -0.516684
     42          6           0        3.364645    1.498148   -2.961384
     43          1           0        3.205980    2.583150   -2.903743
     44          1           0        2.514542    1.090935   -3.521763
     45          8           0        5.348827    1.553160   -0.511496
     46          6           0        4.626584    1.183499   -3.788315
     47          1           0        4.786112    0.097369   -3.813766
     48          1           0        4.417757    1.475080   -4.828278
     49          6           0        5.965736    1.804938   -3.362841
     50          1           0        6.744034    1.489452   -4.069319
     51          1           0        6.228838    1.459471   -2.366034
     52          7           0        5.933348    3.278579   -3.351740
     53          1           0        5.610065    3.728453   -4.198965
     54          7           0        6.649011    3.701139   -1.164347
     55          1           0        7.074313    4.356754   -0.523018
     56          1           0        6.163010    2.834260   -0.749336
     57          7           0        6.577322    5.408814   -2.749485
     58          1           0        6.817543    6.088300   -2.042623
     59          1           0        6.817691    5.650068   -3.700181
     60          6           0        6.396634    4.106920   -2.397576
     61          8           0        3.464497    2.637980    0.123381
     62          1           0       -5.014277   -6.421167   -0.468900
 ---------------------------------------------------------------------

 SCF Done:  E(RB3LYP) =  -1447.39556966     A.U. after    2 cycles

 Alpha  occ. eigenvalues --  -19.28368 -19.24756 -19.23572 -19.22504 -19.16525
 Alpha  occ. eigenvalues --  -19.16242 -14.57875 -14.48564 -14.48407 -14.48385
 Alpha  occ. eigenvalues --  -14.45472 -14.45212 -10.44107 -10.42025 -10.41094
 Alpha  occ. eigenvalues --  -10.39754 -10.39297 -10.34510 -10.34385 -10.32481
 Alpha  occ. eigenvalues --  -10.31405 -10.31086 -10.30248 -10.28329 -10.27634
 Alpha  occ. eigenvalues --  -10.27159 -10.26329 -10.24514 -10.23728  -1.19162
 Alpha  occ. eigenvalues --   -1.17367  -1.14192  -1.12433  -1.12150  -1.10253
 Alpha  occ. eigenvalues --   -1.09927  -1.04913  -1.02528  -1.02075  -1.00843
 Alpha  occ. eigenvalues --   -0.99690  -0.93365  -0.89734  -0.88322  -0.85971
 Alpha  occ. eigenvalues --   -0.84206  -0.82092  -0.77441  -0.77155  -0.75296
 Alpha  occ. eigenvalues --   -0.74206  -0.73699  -0.72851  -0.70981  -0.70436
 Alpha  occ. eigenvalues --   -0.69786  -0.69100  -0.68380  -0.66685  -0.65802
 Alpha  occ. eigenvalues --   -0.65648  -0.64026  -0.62377  -0.61917  -0.61473
 Alpha  occ. eigenvalues --   -0.60321  -0.59358  -0.58485  -0.57432  -0.56878
 Alpha  occ. eigenvalues --   -0.56466  -0.55926  -0.55666  -0.55000  -0.54495
 Alpha  occ. eigenvalues --   -0.53763  -0.53665  -0.52758  -0.52291  -0.52036
 Alpha  occ. eigenvalues --   -0.51515  -0.50836  -0.50613  -0.49634  -0.48932
 Alpha  occ. eigenvalues --   -0.48537  -0.48361  -0.47688  -0.47194  -0.46767
 Alpha  occ. eigenvalues --   -0.46194  -0.45840  -0.45205  -0.45036  -0.44725
 Alpha  occ. eigenvalues --   -0.43734  -0.42967  -0.41997  -0.40823  -0.40413
 Alpha  occ. eigenvalues --   -0.40220  -0.39737  -0.39125  -0.39045  -0.37770
 Alpha  occ. eigenvalues --   -0.36752  -0.36541  -0.36084  -0.35915  -0.32110
 Alpha  occ. eigenvalues --   -0.31018  -0.30584
 Alpha virt. eigenvalues --   -0.12829  -0.08788  -0.08589  -0.08420  -0.07433
 Alpha virt. eigenvalues --   -0.05447  -0.05388  -0.03018  -0.02494  -0.01366
 Alpha virt. eigenvalues --   -0.01218  -0.00106   0.00040   0.00628   0.01213

 Mulliken charges:
               1
     1  N   -0.765734
     2  H    0.459412
     3  H    0.413236
     4  H    0.401548
     5  C   -0.106401
     6  H    0.187270
     7  C    0.600461
     8  C   -0.277331
     9  H    0.208950
    10  H    0.165266
    11  O   -0.485810
    12  C   -0.366342
    13  H    0.206529
    14  H    0.185661
    15  C    0.579827
    16  O   -0.432570
    17  O   -0.561145
    18  N   -0.565458
    19  H    0.337229
    20  C   -0.102584
    21  H    0.181985
    22  C    0.643146
    23  C   -0.253976
    24  H    0.175798
    25  H    0.161217
    26  O   -0.617462
    27  C   -0.111077
    28  H    0.162023
    29  C   -0.455366
    30  H    0.147306
    31  H    0.170185
    32  H    0.132460
    33  C   -0.447845
    34  H    0.146343
    35  H    0.151194
    36  H    0.160914
    37  N   -0.594465
    38  H    0.384846
    39  C   -0.047943
    40  H    0.164281
    41  C    0.600204
    42  C   -0.262184
    43  H    0.146990
    44  H    0.148796
    45  O   -0.618158
    46  C   -0.286131
    47  H    0.160639
    48  H    0.138278
    49  C   -0.161205
    50  H    0.165273
    51  H    0.235926
    52  N   -0.603535
    53  H    0.343304
    54  N   -0.764523
    55  H    0.351235
    56  H    0.446821
    57  N   -0.764817
    58  H    0.368706
    59  H    0.363791
    60  C    0.784863
    61  O   -0.557394
    62  H    0.427542
 Sum of Mulliken charges =   1.00000

 Dipole moment (field-independent basis, Debye):
    X=              9.7902    Y=              1.6252    Z=            -16.0214  Tot=             18.8461
 Quadrupole moment (field-independent basis, Debye-Ang):
   XX=            -82.4770   YY=            -66.8422   ZZ=           -115.3010
   XY=             82.6430   XZ=            -52.2471   YZ=            -11.5658

 Normal termination of Gaussian 16 at Thu May 26 19:11:11 2022.
