 Gaussian 16, Revision C.01,
 Gaussian 16:  ES64L-G16RevC.01  3-Jul-2019

 -------------------------------------------------------------------
 # B3LYP/6-31G* guess=read geom=check nosymm integral(ultrafinegrid)
 -------------------------------------------------------------------

 ------------------------------------------------------
 Candidate Structure: Conf:197 Charge calc in gas phase
 ------------------------------------------------------
 Structure from the checkpoint file:  "conf-197.chk"
 Charge =  1 Multiplicity = 1

                          Input orientation:
 ---------------------------------------------------------------------
 Center     Atomic      Atomic             Coordinates (Angstroms)
 Number     Number       Type             X           Y           Z
 ---------------------------------------------------------------------
      1          7           0       -4.377746   -2.494064   -2.809970
      2          1           0       -4.797744   -3.219649   -2.223405
      3          1           0       -4.535168   -1.527217   -2.360910
      4          1           0       -4.804692   -2.540186   -3.739194
      5          6           0       -2.861228   -2.536792   -2.840417
      6          1           0       -2.539562   -3.432103   -2.301786
      7          6           0       -2.482242   -1.249140   -2.043023
      8          6           0       -2.326242   -2.537054   -4.277935
      9          1           0       -1.241377   -2.398816   -4.237461
     10          1           0       -2.724577   -1.659165   -4.805127
     11          8           0       -3.415910   -0.484837   -1.738680
     12          6           0       -2.643640   -3.829712   -5.052693
     13          1           0       -2.172923   -4.684309   -4.550232
     14          1           0       -3.718236   -4.028886   -5.118237
     15          6           0       -2.138518   -3.781485   -6.487807
     16          8           0       -2.829124   -3.927537   -7.465931
     17          8           0       -0.808017   -3.548904   -6.523817
     18          7           0       -1.200702   -1.095034   -1.763999
     19          1           0       -0.481670   -1.689914   -2.195047
     20          6           0       -0.564524    0.101422   -1.199609
     21          1           0       -1.163380    0.976936   -1.466178
     22          6           0        0.812362    0.145076   -1.918592
     23          6           0       -0.375806    0.009625    0.330831
     24          1           0        0.261872    0.849039    0.637455
     25          1           0        0.198556   -0.903060    0.538948
     26          8           0        1.190515   -0.848525   -2.559938
     27          6           0       -1.659694    0.023734    1.184795
     28          1           0       -2.318529   -0.783905    0.833153
     29          6           0       -1.298831   -0.270464    2.649565
     30          1           0       -0.635984    0.504595    3.053761
     31          1           0       -2.197468   -0.296655    3.275621
     32          1           0       -0.787082   -1.234489    2.754062
     33          6           0       -2.425542    1.349863    1.067292
     34          1           0       -1.795077    2.194273    1.373595
     35          1           0       -2.779610    1.534766    0.047911
     36          1           0       -3.306151    1.343500    1.719244
     37          7           0        1.507787    1.270107   -1.760803
     38          1           0        1.201381    2.030930   -1.146294
     39          6           0        2.911652    1.457290   -2.127682
     40          1           0        3.452355    0.521640   -1.950838
     41          6           0        3.431383    2.558695   -1.142692
     42          6           0        3.022116    1.828667   -3.637428
     43          1           0        2.700776    2.870158   -3.773735
     44          1           0        2.274332    1.209540   -4.142547
     45          8           0        4.700854    2.672084   -1.056872
     46          6           0        4.380548    1.576976   -4.344926
     47          1           0        4.969510    0.838289   -3.786140
     48          1           0        4.188209    1.122895   -5.323767
     49          6           0        5.259551    2.810022   -4.611366
     50          1           0        4.693738    3.568052   -5.169194
     51          1           0        6.116838    2.511878   -5.229894
     52          7           0        5.721034    3.371695   -3.342461
     53          1           0        5.459717    2.826577   -2.485834
     54          7           0        6.164856    5.549700   -4.061197
     55          1           0        6.309297    6.524069   -3.840513
     56          1           0        6.574212    5.219359   -4.922693
     57          7           0        5.782615    5.063937   -1.802159
     58          1           0        6.085709    5.976376   -1.497897
     59          1           0        5.366098    4.384264   -1.138927
     60          6           0        5.900444    4.662284   -3.071391
     61          8           0        2.575006    3.229558   -0.546086
     62          1           0       -0.541197   -3.537987   -7.463469
 ---------------------------------------------------------------------

 SCF Done:  E(RB3LYP) =  -1447.40094410     A.U. after    1 cycles

 Alpha  occ. eigenvalues --  -19.30002 -19.26957 -19.24329 -19.20611 -19.15958
 Alpha  occ. eigenvalues --  -19.15279 -14.59877 -14.48842 -14.47581 -14.45078
 Alpha  occ. eigenvalues --  -14.44266 -14.43084 -10.43482 -10.42874 -10.42307
 Alpha  occ. eigenvalues --  -10.41160 -10.37404 -10.34849 -10.33536 -10.33424
 Alpha  occ. eigenvalues --  -10.33311 -10.31530 -10.29073 -10.27321 -10.27266
 Alpha  occ. eigenvalues --  -10.26776 -10.26397 -10.24174 -10.24161  -1.20876
 Alpha  occ. eigenvalues --   -1.19285  -1.13707  -1.12283  -1.12054  -1.11051
 Alpha  occ. eigenvalues --   -1.08919  -1.05576  -1.01322  -1.00175  -0.99112
 Alpha  occ. eigenvalues --   -0.98988  -0.95206  -0.90001  -0.87636  -0.87184
 Alpha  occ. eigenvalues --   -0.84221  -0.81138  -0.78806  -0.75628  -0.75221
 Alpha  occ. eigenvalues --   -0.74910  -0.74151  -0.72900  -0.72706  -0.71666
 Alpha  occ. eigenvalues --   -0.70152  -0.68670  -0.67464  -0.66478  -0.65139
 Alpha  occ. eigenvalues --   -0.64920  -0.64135  -0.63307  -0.60834  -0.59980
 Alpha  occ. eigenvalues --   -0.59754  -0.59470  -0.59167  -0.58639  -0.57526
 Alpha  occ. eigenvalues --   -0.56743  -0.56145  -0.56050  -0.55432  -0.54637
 Alpha  occ. eigenvalues --   -0.53955  -0.53756  -0.52415  -0.52072  -0.51579
 Alpha  occ. eigenvalues --   -0.50763  -0.50716  -0.50637  -0.49868  -0.49326
 Alpha  occ. eigenvalues --   -0.48977  -0.48486  -0.47948  -0.47377  -0.46626
 Alpha  occ. eigenvalues --   -0.46379  -0.45624  -0.45192  -0.43990  -0.43522
 Alpha  occ. eigenvalues --   -0.42842  -0.42169  -0.41988  -0.41683  -0.41179
 Alpha  occ. eigenvalues --   -0.40809  -0.40253  -0.39991  -0.38323  -0.38132
 Alpha  occ. eigenvalues --   -0.37792  -0.35025  -0.34755  -0.33756  -0.31073
 Alpha  occ. eigenvalues --   -0.30434  -0.29649
 Alpha virt. eigenvalues --   -0.12462  -0.11404  -0.09350  -0.06933  -0.06702
 Alpha virt. eigenvalues --   -0.06066  -0.04189  -0.03532  -0.02350  -0.01421
 Alpha virt. eigenvalues --   -0.01192  -0.01044   0.00261   0.00991   0.01346

 Mulliken charges:
               1
     1  N   -0.763464
     2  H    0.416233
     3  H    0.438173
     4  H    0.413471
     5  C   -0.107020
     6  H    0.219048
     7  C    0.652506
     8  C   -0.319972
     9  H    0.233005
    10  H    0.186064
    11  O   -0.545893
    12  C   -0.358455
    13  H    0.199752
    14  H    0.165480
    15  C    0.577124
    16  O   -0.425565
    17  O   -0.554035
    18  N   -0.591933
    19  H    0.374403
    20  C   -0.088967
    21  H    0.192298
    22  C    0.630671
    23  C   -0.262267
    24  H    0.172978
    25  H    0.149138
    26  O   -0.568632
    27  C   -0.070034
    28  H    0.112348
    29  C   -0.447331
    30  H    0.158387
    31  H    0.153037
    32  H    0.144179
    33  C   -0.459035
    34  H    0.154048
    35  H    0.153891
    36  H    0.153875
    37  N   -0.612959
    38  H    0.366353
    39  C   -0.059460
    40  H    0.172176
    41  C    0.600656
    42  C   -0.270319
    43  H    0.146974
    44  H    0.163928
    45  O   -0.633145
    46  C   -0.306266
    47  H    0.171777
    48  H    0.158513
    49  C   -0.143637
    50  H    0.162575
    51  H    0.163667
    52  N   -0.613502
    53  H    0.412236
    54  N   -0.755338
    55  H    0.364390
    56  H    0.371028
    57  N   -0.776255
    58  H    0.352220
    59  H    0.419879
    60  C    0.773219
    61  O   -0.547685
    62  H    0.431468
 Sum of Mulliken charges =   1.00000

 Dipole moment (field-independent basis, Debye):
    X=             -1.8106    Y=             -0.6852    Z=            -18.4528  Tot=             18.5540
 Quadrupole moment (field-independent basis, Debye-Ang):
   XX=            -45.0040   YY=            -78.6660   ZZ=            -96.8041
   XY=            106.1587   XZ=            -29.0130   YZ=            -18.0587

 Normal termination of Gaussian 16 at Thu May 26 19:02:16 2022.
