 Gaussian 16, Revision C.01,
 Gaussian 16:  ES64L-G16RevC.01  3-Jul-2019

 -------------------------------------------------------------------
 # B3LYP/6-31G* guess=read geom=check nosymm integral(ultrafinegrid)
 -------------------------------------------------------------------

 ------------------------------------------------------
 Candidate Structure: Conf:879 Charge calc in gas phase
 ------------------------------------------------------
 Structure from the checkpoint file:  "conf-879.chk"
 Charge =  1 Multiplicity = 1

                          Input orientation:
 ---------------------------------------------------------------------
 Center     Atomic      Atomic             Coordinates (Angstroms)
 Number     Number       Type             X           Y           Z
 ---------------------------------------------------------------------
      1          7           0       -3.520709   -2.465640   -3.067084
      2          1           0       -3.910679   -1.887180   -2.275287
      3          1           0       -3.719542   -1.960645   -3.936451
      4          1           0       -3.900382   -3.418733   -3.140456
      5          6           0       -2.043354   -2.500689   -2.750893
      6          1           0       -1.917545   -3.374258   -2.103757
      7          6           0       -1.847299   -1.231824   -1.869631
      8          6           0       -1.174026   -2.640956   -4.003976
      9          1           0       -0.147235   -2.828224   -3.672706
     10          1           0       -1.155684   -1.693584   -4.556021
     11          8           0       -2.875224   -0.731374   -1.383488
     12          6           0       -1.596824   -3.769316   -4.978937
     13          1           0       -2.526482   -3.505419   -5.496863
     14          1           0       -0.819965   -3.880368   -5.738273
     15          6           0       -1.778479   -5.122114   -4.315823
     16          8           0       -0.984755   -6.022359   -4.291362
     17          8           0       -3.006865   -5.209046   -3.692287
     18          7           0       -0.604705   -0.821609   -1.681725
     19          1           0        0.213803   -1.239205   -2.138702
     20          6           0       -0.192363    0.301892   -0.832494
     21          1           0       -0.841105    1.157047   -1.043890
     22          6           0        1.258190    0.580275   -1.303824
     23          6           0       -0.286286   -0.087657    0.665457
     24          1           0        0.443661   -0.886976    0.849049
     25          1           0       -1.283251   -0.522009    0.815824
     26          8           0        1.848011   -0.283906   -1.972429
     27          6           0       -0.092425    1.040165    1.702254
     28          1           0        0.903691    1.481808    1.577555
     29          6           0       -1.134134    2.160572    1.555457
     30          1           0       -2.154445    1.765951    1.646966
     31          1           0       -0.993417    2.915271    2.335925
     32          1           0       -1.063694    2.683577    0.593945
     33          6           0       -0.149532    0.434482    3.113892
     34          1           0       -1.131597   -0.013855    3.313569
     35          1           0        0.610152   -0.344405    3.247804
     36          1           0        0.025604    1.204995    3.872023
     37          7           0        1.783778    1.749873   -0.938604
     38          1           0        1.298501    2.403361   -0.319600
     39          6           0        3.198357    2.106588   -1.048885
     40          1           0        3.803970    1.200210   -0.956871
     41          6           0        3.474221    3.072182    0.141573
     42          6           0        3.475626    2.787298   -2.416558
     43          1           0        3.043046    3.796902   -2.399539
     44          1           0        2.910577    2.222011   -3.166676
     45          8           0        4.705806    3.230065    0.429621
     46          6           0        4.934012    2.833272   -2.911176
     47          1           0        5.357651    1.820650   -2.887034
     48          1           0        4.915166    3.119416   -3.973497
     49          6           0        5.933318    3.738612   -2.176401
     50          1           0        6.917540    3.646889   -2.653061
     51          1           0        6.009224    3.430449   -1.136203
     52          7           0        5.546968    5.161276   -2.214089
     53          1           0        5.348156    5.549246   -3.127661
     54          7           0        5.498216    5.654675    0.072936
     55          1           0        5.550786    6.370067    0.785267
     56          1           0        5.165351    4.666143    0.368367
     57          7           0        5.422661    7.356096   -1.522784
     58          1           0        5.303522    8.039844   -0.789597
     59          1           0        5.873092    7.687603   -2.363964
     60          6           0        5.498996    6.034704   -1.192857
     61          8           0        2.489946    3.634024    0.652907
     62          1           0       -3.066407   -6.105692   -3.306166
 ---------------------------------------------------------------------

 SCF Done:  E(RB3LYP) =  -1447.39960032     A.U. after    2 cycles

 Alpha  occ. eigenvalues --  -19.33261 -19.26938 -19.25335 -19.19858 -19.14980
 Alpha  occ. eigenvalues --  -19.14666 -14.59152 -14.47923 -14.47415 -14.47147
 Alpha  occ. eigenvalues --  -14.44222 -14.42576 -10.45121 -10.42863 -10.42442
 Alpha  occ. eigenvalues --  -10.40389 -10.36751 -10.35235 -10.34181 -10.32781
 Alpha  occ. eigenvalues --  -10.32701 -10.29937 -10.28198 -10.26644 -10.26610
 Alpha  occ. eigenvalues --  -10.25710 -10.25521 -10.23551 -10.23221  -1.23285
 Alpha  occ. eigenvalues --   -1.17956  -1.14707  -1.13113  -1.11587  -1.11203
 Alpha  occ. eigenvalues --   -1.08298  -1.04518  -1.00833  -1.00497  -0.98884
 Alpha  occ. eigenvalues --   -0.98303  -0.95245  -0.89403  -0.87441  -0.86706
 Alpha  occ. eigenvalues --   -0.83340  -0.80887  -0.79660  -0.75556  -0.74760
 Alpha  occ. eigenvalues --   -0.74357  -0.74117  -0.73369  -0.72515  -0.71093
 Alpha  occ. eigenvalues --   -0.69258  -0.68636  -0.67315  -0.65745  -0.64922
 Alpha  occ. eigenvalues --   -0.64351  -0.64221  -0.62961  -0.61247  -0.60869
 Alpha  occ. eigenvalues --   -0.60806  -0.59788  -0.59284  -0.58672  -0.57455
 Alpha  occ. eigenvalues --   -0.57128  -0.55711  -0.55265  -0.54877  -0.54447
 Alpha  occ. eigenvalues --   -0.53663  -0.53574  -0.52598  -0.52331  -0.51186
 Alpha  occ. eigenvalues --   -0.50861  -0.50724  -0.50314  -0.49940  -0.49339
 Alpha  occ. eigenvalues --   -0.49219  -0.48635  -0.48049  -0.46846  -0.45577
 Alpha  occ. eigenvalues --   -0.45175  -0.44776  -0.44435  -0.44167  -0.43421
 Alpha  occ. eigenvalues --   -0.43216  -0.42674  -0.41130  -0.40801  -0.40254
 Alpha  occ. eigenvalues --   -0.40105  -0.39879  -0.39326  -0.38722  -0.37948
 Alpha  occ. eigenvalues --   -0.36924  -0.35258  -0.34253  -0.33176  -0.30560
 Alpha  occ. eigenvalues --   -0.29418  -0.28913
 Alpha virt. eigenvalues --   -0.12841  -0.11306  -0.09349  -0.07415  -0.05745
 Alpha virt. eigenvalues --   -0.05462  -0.04315  -0.02780  -0.02340  -0.01752
 Alpha virt. eigenvalues --   -0.00873  -0.00290  -0.00009   0.00082   0.00971

 Mulliken charges:
               1
     1  N   -0.756431
     2  H    0.430789
     3  H    0.405014
     4  H    0.427622
     5  C   -0.121487
     6  H    0.231729
     7  C    0.663797
     8  C   -0.319497
     9  H    0.219597
    10  H    0.193571
    11  O   -0.551928
    12  C   -0.362446
    13  H    0.172498
    14  H    0.228124
    15  C    0.580716
    16  O   -0.397555
    17  O   -0.607982
    18  N   -0.624777
    19  H    0.376684
    20  C   -0.065664
    21  H    0.186276
    22  C    0.622047
    23  C   -0.259971
    24  H    0.148997
    25  H    0.155986
    26  O   -0.566186
    27  C   -0.100278
    28  H    0.162377
    29  C   -0.451080
    30  H    0.144608
    31  H    0.167950
    32  H    0.136721
    33  C   -0.447428
    34  H    0.140007
    35  H    0.147654
    36  H    0.161520
    37  N   -0.614924
    38  H    0.372617
    39  C   -0.048582
    40  H    0.169595
    41  C    0.596454
    42  C   -0.261109
    43  H    0.139279
    44  H    0.155700
    45  O   -0.623418
    46  C   -0.285559
    47  H    0.166356
    48  H    0.133292
    49  C   -0.162320
    50  H    0.161989
    51  H    0.235917
    52  N   -0.601033
    53  H    0.342132
    54  N   -0.764955
    55  H    0.347632
    56  H    0.449408
    57  N   -0.763516
    58  H    0.364631
    59  H    0.360812
    60  C    0.777255
    61  O   -0.557789
    62  H    0.438560
 Sum of Mulliken charges =   1.00000

 Dipole moment (field-independent basis, Debye):
    X=             -1.0717    Y=              3.1912    Z=            -17.1917  Tot=             17.5182
 Quadrupole moment (field-independent basis, Debye-Ang):
   XX=            -70.9994   YY=            -31.9671   ZZ=           -107.9652
   XY=            124.6875   XZ=              9.4750   YZ=              0.4917

 Normal termination of Gaussian 16 at Thu May 26 19:11:16 2022.
