 Gaussian 16, Revision C.01,
 Gaussian 16:  ES64L-G16RevC.01  3-Jul-2019

 -------------------------------------------------------------------
 # B3LYP/6-31G* guess=read geom=check nosymm integral(ultrafinegrid)
 -------------------------------------------------------------------

 ------------------------------------------------------
 Candidate Structure: Conf:126 Charge calc in gas phase
 ------------------------------------------------------
 Structure from the checkpoint file:  "conf-126.chk"
 Charge =  1 Multiplicity = 1

                          Input orientation:
 ---------------------------------------------------------------------
 Center     Atomic      Atomic             Coordinates (Angstroms)
 Number     Number       Type             X           Y           Z
 ---------------------------------------------------------------------
      1          7           0       -4.210135   -1.738402   -2.828688
      2          1           0       -4.504409   -2.693901   -2.611204
      3          1           0       -4.370518   -1.103783   -1.972429
      4          1           0       -4.748459   -1.408197   -3.634306
      5          6           0       -2.710405   -1.586634   -3.002973
      6          1           0       -2.265047   -2.584174   -2.960547
      7          6           0       -2.317451   -0.755939   -1.740700
      8          6           0       -2.364056   -0.885081   -4.322187
      9          1           0       -1.294191   -0.654862   -4.314919
     10          1           0       -2.882485    0.083099   -4.356428
     11          8           0       -3.252388   -0.326880   -1.040399
     12          6           0       -2.692811   -1.724803   -5.570709
     13          1           0       -2.108741   -2.653751   -5.553074
     14          1           0       -3.752119   -1.995057   -5.630058
     15          6           0       -2.376127   -0.985793   -6.863238
     16          8           0       -3.173445   -0.758453   -7.739360
     17          8           0       -1.078147   -0.612260   -6.900174
     18          7           0       -1.023752   -0.590478   -1.533749
     19          1           0       -0.328953   -0.838164   -2.249637
     20          6           0       -0.401133    0.292069   -0.539694
     21          1           0       -1.087947    1.114386   -0.320077
     22          6           0        0.862917    0.819197   -1.273727
     23          6           0       -0.005406   -0.454116    0.753764
     24          1           0        0.606559    0.229285    1.356871
     25          1           0        0.654370   -1.284217    0.467686
     26          8           0        1.220484    0.271787   -2.329199
     27          6           0       -1.162319   -0.984425    1.624371
     28          1           0       -1.803289   -1.621982    0.997676
     29          6           0       -0.590284   -1.859169    2.751283
     30          1           0        0.064086   -1.273618    3.408833
     31          1           0       -1.393752   -2.274924    3.369161
     32          1           0       -0.002537   -2.695640    2.355039
     33          6           0       -2.028856    0.146505    2.198166
     34          1           0       -1.424464    0.833590    2.803934
     35          1           0       -2.527854    0.724828    1.413792
     36          1           0       -2.811968   -0.261627    2.846791
     37          7           0        1.494967    1.828664   -0.677232
     38          1           0        1.221083    2.189371    0.242171
     39          6           0        2.824099    2.325361   -1.033952
     40          1           0        3.443988    1.481329   -1.353975
     41          6           0        3.392486    2.918243    0.299890
     42          6           0        2.713986    3.346084   -2.206738
     43          1           0        2.310682    4.292116   -1.820857
     44          1           0        1.948966    2.937459   -2.874127
     45          8           0        4.651928    3.130889    0.320166
     46          6           0        3.982876    3.600046   -3.063963
     47          1           0        4.685745    2.763352   -2.960503
     48          1           0        3.695193    3.615918   -4.121455
     49          6           0        4.738514    4.914212   -2.807041
     50          1           0        4.057731    5.770487   -2.903435
     51          1           0        5.526497    5.028070   -3.563718
     52          7           0        5.322137    4.894674   -1.466349
     53          1           0        5.207219    3.997071   -0.936577
     54          7           0        5.534576    7.198080   -1.140288
     55          1           0        5.644270    7.979184   -0.510384
     56          1           0        5.849443    7.338777   -2.088922
     57          7           0        5.474502    5.710003    0.667208
     58          1           0        5.759213    6.415686    1.328979
     59          1           0        5.190817    4.762113    0.977313
     60          6           0        5.454276    5.937168   -0.649728
     61          8           0        2.578090    3.140879    1.209004
     62          1           0       -0.932670   -0.153875   -7.750454
 ---------------------------------------------------------------------

 SCF Done:  E(RB3LYP) =  -1447.40094772     A.U. after    2 cycles

 Alpha  occ. eigenvalues --  -19.29998 -19.26960 -19.24326 -19.20608 -19.15961
 Alpha  occ. eigenvalues --  -19.15280 -14.59867 -14.48844 -14.47579 -14.45078
 Alpha  occ. eigenvalues --  -14.44259 -14.43078 -10.43484 -10.42870 -10.42304
 Alpha  occ. eigenvalues --  -10.41159 -10.37401 -10.34848 -10.33537 -10.33422
 Alpha  occ. eigenvalues --  -10.33306 -10.31528 -10.29073 -10.27319 -10.27265
 Alpha  occ. eigenvalues --  -10.26777 -10.26397 -10.24174 -10.24159  -1.20872
 Alpha  occ. eigenvalues --   -1.19286  -1.13700  -1.12280  -1.12050  -1.11049
 Alpha  occ. eigenvalues --   -1.08920  -1.05577  -1.01323  -1.00172  -0.99111
 Alpha  occ. eigenvalues --   -0.98987  -0.95203  -0.89999  -0.87633  -0.87182
 Alpha  occ. eigenvalues --   -0.84220  -0.81136  -0.78807  -0.75625  -0.75219
 Alpha  occ. eigenvalues --   -0.74908  -0.74157  -0.72900  -0.72690  -0.71662
 Alpha  occ. eigenvalues --   -0.70149  -0.68667  -0.67463  -0.66476  -0.65136
 Alpha  occ. eigenvalues --   -0.64919  -0.64136  -0.63304  -0.60832  -0.59977
 Alpha  occ. eigenvalues --   -0.59755  -0.59474  -0.59165  -0.58638  -0.57519
 Alpha  occ. eigenvalues --   -0.56741  -0.56146  -0.56049  -0.55433  -0.54637
 Alpha  occ. eigenvalues --   -0.53956  -0.53754  -0.52413  -0.52068  -0.51578
 Alpha  occ. eigenvalues --   -0.50759  -0.50712  -0.50633  -0.49865  -0.49325
 Alpha  occ. eigenvalues --   -0.48974  -0.48486  -0.47951  -0.47374  -0.46626
 Alpha  occ. eigenvalues --   -0.46379  -0.45624  -0.45191  -0.43987  -0.43522
 Alpha  occ. eigenvalues --   -0.42838  -0.42166  -0.41987  -0.41688  -0.41174
 Alpha  occ. eigenvalues --   -0.40804  -0.40251  -0.39991  -0.38324  -0.38129
 Alpha  occ. eigenvalues --   -0.37788  -0.35022  -0.34754  -0.33757  -0.31075
 Alpha  occ. eigenvalues --   -0.30435  -0.29650
 Alpha virt. eigenvalues --   -0.12463  -0.11398  -0.09348  -0.06930  -0.06698
 Alpha virt. eigenvalues --   -0.06065  -0.04183  -0.03530  -0.02351  -0.01417
 Alpha virt. eigenvalues --   -0.01184  -0.01046   0.00261   0.00980   0.01344

 Mulliken charges:
               1
     1  N   -0.763595
     2  H    0.416191
     3  H    0.438276
     4  H    0.413442
     5  C   -0.106844
     6  H    0.219179
     7  C    0.652593
     8  C   -0.320152
     9  H    0.232999
    10  H    0.186006
    11  O   -0.545993
    12  C   -0.358370
    13  H    0.199633
    14  H    0.165554
    15  C    0.577085
    16  O   -0.425553
    17  O   -0.554032
    18  N   -0.591912
    19  H    0.374482
    20  C   -0.089114
    21  H    0.192338
    22  C    0.630591
    23  C   -0.262254
    24  H    0.173069
    25  H    0.149140
    26  O   -0.568586
    27  C   -0.070057
    28  H    0.112153
    29  C   -0.447285
    30  H    0.158423
    31  H    0.153018
    32  H    0.144197
    33  C   -0.459122
    34  H    0.154055
    35  H    0.154023
    36  H    0.153827
    37  N   -0.612870
    38  H    0.366377
    39  C   -0.059730
    40  H    0.172164
    41  C    0.600706
    42  C   -0.270276
    43  H    0.147038
    44  H    0.163934
    45  O   -0.633040
    46  C   -0.306310
    47  H    0.171729
    48  H    0.158534
    49  C   -0.143581
    50  H    0.162607
    51  H    0.163579
    52  N   -0.613660
    53  H    0.412388
    54  N   -0.755412
    55  H    0.364418
    56  H    0.371051
    57  N   -0.776369
    58  H    0.352226
    59  H    0.419829
    60  C    0.773349
    61  O   -0.547564
    62  H    0.431476
 Sum of Mulliken charges =   1.00000

 Dipole moment (field-independent basis, Debye):
    X=             -2.5674    Y=              6.1432    Z=            -14.4181  Tot=             15.8812
 Quadrupole moment (field-independent basis, Debye-Ang):
   XX=            -68.8615   YY=            -45.8242   ZZ=           -124.5226
   XY=            110.2975   XZ=             12.4264   YZ=             -2.8111

 Normal termination of Gaussian 16 at Thu May 26 19:02:25 2022.
