 Gaussian 16, Revision C.01,
 Gaussian 16:  ES64L-G16RevC.01  3-Jul-2019

 -------------------------------------------------------------------
 # B3LYP/6-31G* guess=read geom=check nosymm integral(ultrafinegrid)
 -------------------------------------------------------------------

 ------------------------------------------------------
 Candidate Structure: Conf:112 Charge calc in gas phase
 ------------------------------------------------------
 Structure from the checkpoint file:  "conf-112.chk"
 Charge =  1 Multiplicity = 1

                          Input orientation:
 ---------------------------------------------------------------------
 Center     Atomic      Atomic             Coordinates (Angstroms)
 Number     Number       Type             X           Y           Z
 ---------------------------------------------------------------------
      1          7           0       -3.239604   -1.422009   -3.309607
      2          1           0       -3.497460   -2.406089   -3.414989
      3          1           0       -3.547571   -1.044816   -2.330011
      4          1           0       -3.693022   -0.882129   -4.051384
      5          6           0       -1.749159   -1.178377   -3.201986
      6          1           0       -1.261601   -2.157276   -3.169136
      7          6           0       -1.638840   -0.506396   -1.788829
      8          6           0       -1.183790   -0.325613   -4.341570
      9          1           0       -0.198887    0.025462   -4.025265
     10          1           0       -1.790499    0.582821   -4.456019
     11          8           0       -2.703665   -0.384749   -1.153060
     12          6           0       -1.029321   -1.052181   -5.684794
     13          1           0       -0.563829   -2.037529   -5.537696
     14          1           0       -1.983967   -1.235645   -6.188555
     15          6           0       -0.121596   -0.296261   -6.643547
     16          8           0        0.758182    0.479808   -6.308109
     17          8           0       -0.383724   -0.610444   -7.912141
     18          7           0       -0.432445   -0.148021   -1.408073
     19          1           0        0.397220   -0.255491   -2.001395
     20          6           0       -0.029526    0.445859   -0.122680
     21          1           0       -0.769108    1.196411    0.167439
     22          6           0        1.331172    1.113727   -0.454981
     23          6           0        0.067309   -0.668734    0.953864
     24          1           0        0.897632   -1.331340    0.674848
     25          1           0       -0.855344   -1.260228    0.869090
     26          8           0        1.913949    0.738260   -1.515990
     27          6           0        0.223890   -0.224671    2.423636
     28          1           0        1.137526    0.369366    2.537653
     29          6           0       -0.953298    0.637837    2.902192
     30          1           0       -1.909673    0.107359    2.796753
     31          1           0       -0.823386    0.895863    3.957580
     32          1           0       -1.029544    1.587339    2.358630
     33          6           0        0.369192   -1.477431    3.302021
     34          1           0       -0.529414   -2.107818    3.255253
     35          1           0        1.226820   -2.087484    2.994361
     36          1           0        0.524172   -1.193157    4.347641
     37          7           0        1.789385    2.010542    0.391933
     38          1           0        1.380123    2.132732    1.364620
     39          6           0        3.204076    2.371066    0.601419
     40          1           0        3.834560    1.548005    0.248683
     41          6           0        3.325418    2.487140    2.193940
     42          6           0        3.691791    3.687852   -0.010572
     43          1           0        4.664026    3.854206    0.462797
     44          1           0        3.045773    4.511531    0.325180
     45          8           0        4.458863    2.713125    2.617474
     46          6           0        3.853917    3.730652   -1.540436
     47          1           0        4.613381    4.475960   -1.812409
     48          1           0        4.217011    2.761778   -1.906113
     49          6           0        2.547270    4.098837   -2.249363
     50          1           0        2.225905    5.103160   -1.956949
     51          1           0        1.737361    3.419521   -1.976648
     52          7           0        2.646770    4.108895   -3.722200
     53          1           0        3.096544    4.910527   -4.145962
     54          7           0        2.112784    1.860639   -4.024844
     55          1           0        1.800111    1.147811   -4.674423
     56          1           0        2.208655    1.598519   -3.030096
     57          7           0        2.492576    3.216058   -5.859957
     58          1           0        2.224797    2.438678   -6.449818
     59          1           0        2.388915    4.137710   -6.260219
     60          6           0        2.416874    3.058626   -4.514947
     61          8           0        2.210450    2.356126    2.790814
     62          1           0        0.257643   -0.153731   -8.491361
 ---------------------------------------------------------------------

 SCF Done:  E(RB3LYP) =  -1447.36054601     A.U. after    1 cycles

 Alpha  occ. eigenvalues --  -19.35567 -19.30897 -19.28485 -19.22397 -19.11267
 Alpha  occ. eigenvalues --  -19.09747 -14.61355 -14.50859 -14.50825 -14.50290
 Alpha  occ. eigenvalues --  -14.49112 -14.42693 -10.49058 -10.46827 -10.44965
 Alpha  occ. eigenvalues --  -10.43270 -10.38304 -10.37817 -10.37320 -10.34165
 Alpha  occ. eigenvalues --  -10.33539 -10.28753 -10.27232 -10.27230 -10.26608
 Alpha  occ. eigenvalues --  -10.24499 -10.24446 -10.22744 -10.22572  -1.26910
 Alpha  occ. eigenvalues --   -1.20893  -1.17955  -1.15342  -1.15100  -1.13077
 Alpha  occ. eigenvalues --   -1.07030  -1.04766  -1.04314  -1.03047  -0.99469
 Alpha  occ. eigenvalues --   -0.98127  -0.95460  -0.91624  -0.88726  -0.88121
 Alpha  occ. eigenvalues --   -0.84207  -0.82564  -0.81756  -0.77832  -0.76684
 Alpha  occ. eigenvalues --   -0.75780  -0.75106  -0.74754  -0.73968  -0.73534
 Alpha  occ. eigenvalues --   -0.72810  -0.71016  -0.69535  -0.68429  -0.67012
 Alpha  occ. eigenvalues --   -0.66670  -0.65788  -0.64806  -0.64314  -0.63324
 Alpha  occ. eigenvalues --   -0.63136  -0.62464  -0.62168  -0.60300  -0.59651
 Alpha  occ. eigenvalues --   -0.58629  -0.58438  -0.58077  -0.57021  -0.55827
 Alpha  occ. eigenvalues --   -0.55442  -0.55184  -0.54360  -0.54162  -0.53575
 Alpha  occ. eigenvalues --   -0.52627  -0.52386  -0.51823  -0.50870  -0.50362
 Alpha  occ. eigenvalues --   -0.49008  -0.48921  -0.48046  -0.47527  -0.46281
 Alpha  occ. eigenvalues --   -0.45904  -0.44919  -0.44684  -0.44123  -0.43292
 Alpha  occ. eigenvalues --   -0.43045  -0.42900  -0.42147  -0.41592  -0.41138
 Alpha  occ. eigenvalues --   -0.40940  -0.39963  -0.38877  -0.38776  -0.38475
 Alpha  occ. eigenvalues --   -0.37884  -0.37536  -0.36761  -0.34164  -0.26290
 Alpha  occ. eigenvalues --   -0.25994  -0.23805
 Alpha virt. eigenvalues --   -0.15814  -0.13824  -0.12694  -0.10936  -0.08687
 Alpha virt. eigenvalues --   -0.08003  -0.07215  -0.06519  -0.06308  -0.04951
 Alpha virt. eigenvalues --   -0.03000  -0.02617  -0.02474  -0.01227  -0.00456

 Mulliken charges:
               1
     1  N   -0.768317
     2  H    0.416976
     3  H    0.445571
     4  H    0.407606
     5  C   -0.106966
     6  H    0.224317
     7  C    0.661613
     8  C   -0.309897
     9  H    0.203087
    10  H    0.186208
    11  O   -0.546193
    12  C   -0.375059
    13  H    0.215043
    14  H    0.194354
    15  C    0.609996
    16  O   -0.484584
    17  O   -0.527279
    18  N   -0.608293
    19  H    0.366308
    20  C   -0.075199
    21  H    0.197061
    22  C    0.615530
    23  C   -0.257653
    24  H    0.146788
    25  H    0.143569
    26  O   -0.630353
    27  C   -0.107332
    28  H    0.197329
    29  C   -0.449588
    30  H    0.131157
    31  H    0.177663
    32  H    0.136608
    33  C   -0.448391
    34  H    0.130285
    35  H    0.144217
    36  H    0.170587
    37  N   -0.597764
    38  H    0.390224
    39  C   -0.095169
    40  H    0.157255
    41  C    0.603295
    42  C   -0.276618
    43  H    0.202427
    44  H    0.142228
    45  O   -0.546073
    46  C   -0.265969
    47  H    0.146934
    48  H    0.152991
    49  C   -0.175900
    50  H    0.186008
    51  H    0.181159
    52  N   -0.596119
    53  H    0.358894
    54  N   -0.839316
    55  H    0.388215
    56  H    0.449959
    57  N   -0.771469
    58  H    0.376782
    59  H    0.366557
    60  C    0.801754
    61  O   -0.604663
    62  H    0.437609
 Sum of Mulliken charges =   1.00000

 Dipole moment (field-independent basis, Debye):
    X=            -10.0984    Y=             -0.8484    Z=            -36.6482  Tot=             38.0235
 Quadrupole moment (field-independent basis, Debye-Ang):
   XX=           -159.0990   YY=           -125.4395   ZZ=            -27.3587
   XY=             23.2894   XZ=            -18.5077   YZ=            -43.9939

 Normal termination of Gaussian 16 at Thu May 26 19:02:25 2022.
