 Gaussian 16, Revision C.01,
 Gaussian 16:  ES64L-G16RevC.01  3-Jul-2019

 -------------------------------------------------------------------
 # B3LYP/6-31G* guess=read geom=check nosymm integral(ultrafinegrid)
 -------------------------------------------------------------------

 ------------------------------------------------------
 Candidate Structure: Conf:746 Charge calc in gas phase
 ------------------------------------------------------
 Structure from the checkpoint file:  "conf-746.chk"
 Charge =  1 Multiplicity = 1

                          Input orientation:
 ---------------------------------------------------------------------
 Center     Atomic      Atomic             Coordinates (Angstroms)
 Number     Number       Type             X           Y           Z
 ---------------------------------------------------------------------
      1          7           0       -1.365732    2.998814   -3.596936
      2          1           0       -1.773394    3.202335   -4.508164
      3          1           0       -1.960276    3.428313   -2.887752
      4          1           0        0.192805    3.746372   -3.094708
      5          6           0       -1.349768    1.538979   -3.360419
      6          1           0       -2.355411    1.102605   -3.486208
      7          6           0       -1.005018    1.388657   -1.857923
      8          6           0       -0.382643    0.878463   -4.366141
      9          1           0        0.652871    1.006429   -4.036391
     10          1           0       -0.455224    1.440316   -5.305428
     11          8           0       -1.415964    2.222340   -1.056378
     12          6           0       -0.692073   -0.595119   -4.685734
     13          1           0       -0.761549   -1.210073   -3.776673
     14          1           0       -1.658056   -0.697421   -5.188302
     15          6           0        0.384648   -1.223861   -5.549468
     16          8           0        1.585537   -1.051579   -5.416137
     17          8           0       -0.126266   -2.024992   -6.490962
     18          7           0       -0.251258    0.316165   -1.469348
     19          1           0        0.222991   -0.219292   -2.184372
     20          6           0        0.356585    0.261035   -0.125711
     21          1           0       -0.316501    0.810508    0.533538
     22          6           0        1.690493    1.025176   -0.283071
     23          6           0        0.544038   -1.175603    0.364979
     24          1           0        1.052322   -1.127999    1.337643
     25          1           0        1.240355   -1.692380   -0.308129
     26          8           0        2.706783    0.424676   -0.662171
     27          6           0       -0.755215   -1.994713    0.505594
     28          1           0       -1.246893   -2.020065   -0.478129
     29          6           0       -0.413133   -3.439796    0.899256
     30          1           0        0.072580   -3.475676    1.882433
     31          1           0       -1.318136   -4.054130    0.954737
     32          1           0        0.265430   -3.906516    0.175145
     33          6           0       -1.739015   -1.373425    1.509187
     34          1           0       -1.278627   -1.272163    2.500522
     35          1           0       -2.089990   -0.383478    1.195802
     36          1           0       -2.624370   -2.008331    1.621767
     37          7           0        1.607328    2.369916   -0.100791
     38          1           0        0.669723    2.701306    0.109788
     39          6           0        2.427915    3.395069   -0.801777
     40          1           0        2.074071    4.348145   -0.406688
     41          6           0        1.900464    3.304060   -2.249073
     42          6           0        3.952323    3.271401   -0.526260
     43          1           0        4.148707    2.299620   -0.071169
     44          1           0        4.176823    3.997193    0.261428
     45          8           0        2.312584    2.531728   -3.099343
     46          6           0        4.917630    3.519733   -1.721087
     47          1           0        4.369509    3.847718   -2.607582
     48          1           0        5.616557    4.325168   -1.470665
     49          6           0        5.762244    2.281082   -2.076465
     50          1           0        6.454704    2.053606   -1.258645
     51          1           0        6.388236    2.468519   -2.954098
     52          7           0        4.953922    1.079219   -2.285719
     53          1           0        4.356614    0.829364   -1.495163
     54          7           0        4.969059    0.992277   -4.630863
     55          1           0        4.552903    0.643040   -5.481776
     56          1           0        5.517829    1.833229   -4.712506
     57          7           0        3.592091   -0.402259   -3.390820
     58          1           0        3.010748   -0.619923   -4.198603
     59          1           0        3.159511   -0.558639   -2.485562
     60          6           0        4.488721    0.595990   -3.439912
     61          8           0        0.826960    4.074979   -2.370804
     62          1           0        0.617317   -2.422913   -6.985205
 ---------------------------------------------------------------------

 SCF Done:  E(RB3LYP) =  -1447.43389168     A.U. after    1 cycles

 Alpha  occ. eigenvalues --  -19.31668 -19.27735 -19.26688 -19.25091 -19.24342
 Alpha  occ. eigenvalues --  -19.23559 -14.49890 -14.48488 -14.48419 -14.48417
 Alpha  occ. eigenvalues --  -14.47566 -14.44987 -10.45374 -10.44836 -10.42384
 Alpha  occ. eigenvalues --  -10.41543 -10.40739 -10.35321 -10.34978 -10.34700
 Alpha  occ. eigenvalues --  -10.34504 -10.32350 -10.31132 -10.30191 -10.30087
 Alpha  occ. eigenvalues --  -10.28350 -10.27747 -10.25245 -10.25124  -1.22893
 Alpha  occ. eigenvalues --   -1.19700  -1.16373  -1.15448  -1.13967  -1.13714
 Alpha  occ. eigenvalues --   -1.11090  -1.05031  -1.04056  -1.03636  -1.01891
 Alpha  occ. eigenvalues --   -1.01362  -0.91809  -0.91001  -0.90135  -0.86965
 Alpha  occ. eigenvalues --   -0.84782  -0.82443  -0.80219  -0.76810  -0.76565
 Alpha  occ. eigenvalues --   -0.76152  -0.74838  -0.73141  -0.71640  -0.71253
 Alpha  occ. eigenvalues --   -0.70456  -0.70166  -0.67932  -0.66981  -0.66212
 Alpha  occ. eigenvalues --   -0.64301  -0.63890  -0.62505  -0.61935  -0.61271
 Alpha  occ. eigenvalues --   -0.60805  -0.60272  -0.60129  -0.59903  -0.58924
 Alpha  occ. eigenvalues --   -0.58644  -0.58167  -0.57329  -0.56867  -0.56283
 Alpha  occ. eigenvalues --   -0.55559  -0.54650  -0.54644  -0.54341  -0.52774
 Alpha  occ. eigenvalues --   -0.52451  -0.52262  -0.51893  -0.51383  -0.51195
 Alpha  occ. eigenvalues --   -0.50382  -0.50184  -0.49008  -0.48327  -0.48002
 Alpha  occ. eigenvalues --   -0.47420  -0.47087  -0.46812  -0.46423  -0.46186
 Alpha  occ. eigenvalues --   -0.46100  -0.45302  -0.44882  -0.44034  -0.41443
 Alpha  occ. eigenvalues --   -0.41367  -0.41165  -0.41060  -0.40915  -0.40517
 Alpha  occ. eigenvalues --   -0.39927  -0.39775  -0.38742  -0.37804  -0.37002
 Alpha  occ. eigenvalues --   -0.36500  -0.35448
 Alpha virt. eigenvalues --   -0.12843  -0.11688  -0.09889  -0.09566  -0.08268
 Alpha virt. eigenvalues --   -0.05992  -0.04955  -0.03066  -0.02399  -0.01781
 Alpha virt. eigenvalues --   -0.01438  -0.00477   0.00139   0.00758   0.01504

 Mulliken charges:
               1
     1  N   -0.772121
     2  H    0.333654
     3  H    0.359767
     4  H    0.450762
     5  C   -0.063049
     6  H    0.179562
     7  C    0.628048
     8  C   -0.318026
     9  H    0.195161
    10  H    0.169753
    11  O   -0.520283
    12  C   -0.382443
    13  H    0.187552
    14  H    0.202506
    15  C    0.597708
    16  O   -0.491329
    17  O   -0.530587
    18  N   -0.606432
    19  H    0.338247
    20  C   -0.084345
    21  H    0.201020
    22  C    0.638148
    23  C   -0.268706
    24  H    0.160688
    25  H    0.139622
    26  O   -0.562661
    27  C   -0.073570
    28  H    0.122656
    29  C   -0.445641
    30  H    0.153822
    31  H    0.159613
    32  H    0.140827
    33  C   -0.460127
    34  H    0.151058
    35  H    0.152535
    36  H    0.162917
    37  N   -0.603357
    38  H    0.374888
    39  C   -0.026014
    40  H    0.199863
    41  C    0.590672
    42  C   -0.313796
    43  H    0.174785
    44  H    0.179856
    45  O   -0.503516
    46  C   -0.261020
    47  H    0.167031
    48  H    0.171167
    49  C   -0.186864
    50  H    0.194782
    51  H    0.161432
    52  N   -0.604713
    53  H    0.406536
    54  N   -0.756919
    55  H    0.378422
    56  H    0.375293
    57  N   -0.804384
    58  H    0.404025
    59  H    0.379309
    60  C    0.814105
    61  O   -0.586985
    62  H    0.429095
 Sum of Mulliken charges =   1.00000

 Dipole moment (field-independent basis, Debye):
    X=              9.8070    Y=              4.6383    Z=            -15.8993  Tot=             19.2478
 Quadrupole moment (field-independent basis, Debye-Ang):
   XX=           -106.0021   YY=           -143.8200   ZZ=            -82.3535
   XY=             24.8063   XZ=            -29.3927   YZ=             -8.7048

 Normal termination of Gaussian 16 at Thu May 26 19:11:05 2022.
