 Gaussian 16, Revision C.01,
 Gaussian 16:  ES64L-G16RevC.01  3-Jul-2019

 -------------------------------------------------------------------
 # B3LYP/6-31G* guess=read geom=check nosymm integral(ultrafinegrid)
 -------------------------------------------------------------------

 ------------------------------------------------------
 Candidate Structure: Conf:962 Charge calc in gas phase
 ------------------------------------------------------
 Structure from the checkpoint file:  "conf-962.chk"
 Charge =  1 Multiplicity = 1

                          Input orientation:
 ---------------------------------------------------------------------
 Center     Atomic      Atomic             Coordinates (Angstroms)
 Number     Number       Type             X           Y           Z
 ---------------------------------------------------------------------
      1          7           0       -3.569202   -0.347052   -3.625394
      2          1           0       -4.453660   -0.596190   -3.172752
      3          1           0       -3.300032    0.641189   -3.325790
      4          1           0       -3.688038   -0.416939   -4.639600
      5          6           0       -2.388253   -1.139929   -3.092700
      6          1           0       -2.748531   -2.073778   -2.663104
      7          6           0       -1.821658   -0.173723   -2.017692
      8          6           0       -1.411646   -1.393861   -4.261261
      9          1           0       -1.200473   -0.432599   -4.746664
     10          1           0       -1.923819   -2.030413   -4.995476
     11          8           0       -2.107161    1.028798   -2.142471
     12          6           0       -0.051409   -2.021279   -3.892196
     13          1           0        0.516347   -2.186922   -4.810520
     14          1           0        0.522289   -1.321874   -3.263626
     15          6           0       -0.166578   -3.315376   -3.122719
     16          8           0       -0.846333   -3.456044   -2.113826
     17          8           0        0.574573   -4.301824   -3.633345
     18          7           0       -1.086628   -0.714984   -1.054828
     19          1           0       -0.895102   -1.714626   -1.125278
     20          6           0       -0.273891    0.091868   -0.139006
     21          1           0       -0.909819    0.895188    0.242124
     22          6           0        0.908863    0.701475   -0.934773
     23          6           0        0.203714   -0.822719    1.012172
     24          1           0        0.918215   -1.545198    0.592678
     25          1           0       -0.667044   -1.400247    1.353992
     26          8           0        1.335658    0.159758   -1.963266
     27          6           0        0.836529   -0.127552    2.236748
     28          1           0        1.679921    0.490209    1.905044
     29          6           0       -0.157700    0.786392    2.969707
     30          1           0       -1.027492    0.218101    3.325058
     31          1           0        0.320765    1.248107    3.838978
     32          1           0       -0.525351    1.605968    2.341156
     33          6           0        1.390824   -1.195971    3.192177
     34          1           0        0.590140   -1.845615    3.569002
     35          1           0        2.134617   -1.831795    2.697401
     36          1           0        1.873192   -0.727617    4.056375
     37          7           0        1.422181    1.818918   -0.406127
     38          1           0        1.147709    2.159019    0.519690
     39          6           0        2.696604    2.404739   -0.803251
     40          1           0        3.416040    1.587105   -0.946993
     41          6           0        3.180095    3.228214    0.445114
     42          6           0        2.593122    3.207070   -2.139400
     43          1           0        2.642732    4.284543   -1.937262
     44          1           0        1.594822    3.018000   -2.542416
     45          8           0        4.265499    3.884235    0.280469
     46          6           0        3.619733    2.813604   -3.231683
     47          1           0        3.853160    1.746764   -3.133231
     48          1           0        3.160227    2.938429   -4.219538
     49          6           0        4.925028    3.629863   -3.260711
     50          1           0        4.718202    4.645878   -3.625660
     51          1           0        5.625919    3.164047   -3.966503
     52          7           0        5.516682    3.708448   -1.933931
     53          1           0        4.853765    3.794160   -1.075480
     54          7           0        7.792836    3.929346   -2.495966
     55          1           0        8.725127    3.642952   -2.232945
     56          1           0        7.584601    3.912425   -3.482830
     57          7           0        7.101329    3.725211   -0.280292
     58          1           0        7.935309    4.201784    0.034800
     59          1           0        6.301546    3.744716    0.358264
     60          6           0        6.785098    3.791362   -1.598648
     61          8           0        2.495096    3.159635    1.472657
     62          1           0        0.482275   -5.079662   -3.047767
 ---------------------------------------------------------------------

 SCF Done:  E(RB3LYP) =  -1447.40859329     A.U. after    1 cycles

 Alpha  occ. eigenvalues --  -19.31366 -19.26095 -19.25874 -19.19578 -19.16039
 Alpha  occ. eigenvalues --  -19.15025 -14.59763 -14.48074 -14.47389 -14.45052
 Alpha  occ. eigenvalues --  -14.44191 -14.42333 -10.44292 -10.42365 -10.42191
 Alpha  occ. eigenvalues --  -10.40097 -10.36447 -10.34676 -10.33487 -10.32661
 Alpha  occ. eigenvalues --  -10.31825 -10.31525 -10.28844 -10.27311 -10.27030
 Alpha  occ. eigenvalues --  -10.25982 -10.25826 -10.23562 -10.23519  -1.22521
 Alpha  occ. eigenvalues --   -1.18418  -1.13372  -1.13335  -1.11084  -1.10896
 Alpha  occ. eigenvalues --   -1.08794  -1.04891  -1.01291  -0.99927  -0.98944
 Alpha  occ. eigenvalues --   -0.98644  -0.94356  -0.89329  -0.87127  -0.86816
 Alpha  occ. eigenvalues --   -0.83544  -0.81088  -0.79246  -0.75771  -0.74506
 Alpha  occ. eigenvalues --   -0.73760  -0.73451  -0.73060  -0.72513  -0.70712
 Alpha  occ. eigenvalues --   -0.69869  -0.68246  -0.67657  -0.65446  -0.64464
 Alpha  occ. eigenvalues --   -0.63962  -0.63512  -0.63197  -0.61544  -0.60521
 Alpha  occ. eigenvalues --   -0.60307  -0.59153  -0.58984  -0.58475  -0.58092
 Alpha  occ. eigenvalues --   -0.57218  -0.56324  -0.56066  -0.54347  -0.54167
 Alpha  occ. eigenvalues --   -0.53703  -0.52846  -0.52198  -0.51658  -0.51296
 Alpha  occ. eigenvalues --   -0.50408  -0.50230  -0.50002  -0.49901  -0.49362
 Alpha  occ. eigenvalues --   -0.49079  -0.47787  -0.47667  -0.46969  -0.46154
 Alpha  occ. eigenvalues --   -0.45633  -0.44706  -0.44574  -0.43632  -0.43248
 Alpha  occ. eigenvalues --   -0.42953  -0.42375  -0.42242  -0.40832  -0.40773
 Alpha  occ. eigenvalues --   -0.39814  -0.39602  -0.39348  -0.39214  -0.38174
 Alpha  occ. eigenvalues --   -0.38081  -0.34832  -0.33676  -0.32850  -0.31223
 Alpha  occ. eigenvalues --   -0.30514  -0.29263
 Alpha virt. eigenvalues --   -0.12000  -0.11366  -0.10136  -0.07022  -0.05985
 Alpha virt. eigenvalues --   -0.05688  -0.03641  -0.03266  -0.02167  -0.00789
 Alpha virt. eigenvalues --   -0.00694   0.00298   0.00463   0.01751   0.02025

 Mulliken charges:
               1
     1  N   -0.756334
     2  H    0.417037
     3  H    0.431398
     4  H    0.409816
     5  C   -0.116340
     6  H    0.231946
     7  C    0.651177
     8  C   -0.303005
     9  H    0.187847
    10  H    0.177970
    11  O   -0.548701
    12  C   -0.407107
    13  H    0.200120
    14  H    0.272806
    15  C    0.604467
    16  O   -0.491582
    17  O   -0.533015
    18  N   -0.608893
    19  H    0.390434
    20  C   -0.064343
    21  H    0.189563
    22  C    0.629441
    23  C   -0.291893
    24  H    0.149137
    25  H    0.150680
    26  O   -0.560373
    27  C   -0.096975
    28  H    0.160818
    29  C   -0.450750
    30  H    0.139255
    31  H    0.173984
    32  H    0.143227
    33  C   -0.447220
    34  H    0.142793
    35  H    0.142840
    36  H    0.163380
    37  N   -0.613368
    38  H    0.374778
    39  C   -0.059071
    40  H    0.162930
    41  C    0.617027
    42  C   -0.293378
    43  H    0.164577
    44  H    0.166289
    45  O   -0.639234
    46  C   -0.278838
    47  H    0.165266
    48  H    0.148177
    49  C   -0.150764
    50  H    0.174593
    51  H    0.142198
    52  N   -0.626121
    53  H    0.453797
    54  N   -0.759414
    55  H    0.366440
    56  H    0.367676
    57  N   -0.773578
    58  H    0.353971
    59  H    0.403914
    60  C    0.756776
    61  O   -0.539383
    62  H    0.431135
 Sum of Mulliken charges =   1.00000

 Dipole moment (field-independent basis, Debye):
    X=              2.7226    Y=             -1.4347    Z=            -19.2621  Tot=             19.5064
 Quadrupole moment (field-independent basis, Debye-Ang):
   XX=             -6.4438   YY=           -140.5548   ZZ=            -98.4242
   XY=             57.4450   XZ=              0.6658   YZ=            -11.1116

 Normal termination of Gaussian 16 at Thu May 26 19:10:58 2022.
