 Gaussian 16, Revision C.01,
 Gaussian 16:  ES64L-G16RevC.01  3-Jul-2019

 -------------------------------------------------------------------
 # B3LYP/6-31G* guess=read geom=check nosymm integral(ultrafinegrid)
 -------------------------------------------------------------------

 ------------------------------------------------------
 Candidate Structure: Conf:242 Charge calc in gas phase
 ------------------------------------------------------
 Structure from the checkpoint file:  "conf-242.chk"
 Charge =  1 Multiplicity = 1

                          Input orientation:
 ---------------------------------------------------------------------
 Center     Atomic      Atomic             Coordinates (Angstroms)
 Number     Number       Type             X           Y           Z
 ---------------------------------------------------------------------
      1          7           0       -4.996021   -1.377831   -2.410954
      2          1           0       -5.478078   -2.188025   -2.013833
      3          1           0       -4.898859   -0.604879   -1.662955
      4          1           0       -5.531441   -1.040036   -3.214440
      5          6           0       -3.532680   -1.637687   -2.716315
      6          1           0       -3.325293   -2.696711   -2.559767
      7          6           0       -2.818619   -0.757498   -1.649267
      8          6           0       -3.166734   -1.242316   -4.155467
      9          1           0       -2.074293   -1.258152   -4.225080
     10          1           0       -3.464094   -0.199921   -4.330799
     11          8           0       -3.539309   -0.003337   -0.967870
     12          6           0       -3.749148   -2.138003   -5.258655
     13          1           0       -4.849093   -2.155556   -5.254071
     14          1           0       -3.478958   -1.733047   -6.239547
     15          6           0       -3.265684   -3.577187   -5.183629
     16          8           0       -2.710500   -4.075447   -4.225060
     17          8           0       -3.547032   -4.245448   -6.311811
     18          7           0       -1.507566   -0.893469   -1.565241
     19          1           0       -0.984443   -1.431966   -2.264997
     20          6           0       -0.588138   -0.038125   -0.807092
     21          1           0       -1.055604    0.940621   -0.668861
     22          6           0        0.650579    0.079231   -1.737400
     23          6           0       -0.190910   -0.652313    0.553177
     24          1           0        0.620232   -0.040825    0.969625
     25          1           0        0.240717   -1.642807    0.355647
     26          8           0        0.756906   -0.693422   -2.704152
     27          6           0       -1.313731   -0.774212    1.602748
     28          1           0       -2.146369   -1.335842    1.153800
     29          6           0       -0.800503   -1.580294    2.806467
     30          1           0        0.038376   -1.067412    3.293106
     31          1           0       -1.589320   -1.708871    3.555892
     32          1           0       -0.454329   -2.576735    2.507262
     33          6           0       -1.847223    0.594786    2.050671
     34          1           0       -1.041798    1.210468    2.470754
     35          1           0       -2.310867    1.147581    1.227219
     36          1           0       -2.609224    0.473744    2.828830
     37          7           0        1.532743    1.014545   -1.391300
     38          1           0        1.463160    1.551279   -0.517192
     39          6           0        2.881860    1.162348   -1.932643
     40          1           0        3.314304    0.165550   -2.085742
     41          6           0        3.689448    1.898442   -0.803094
     42          6           0        2.844743    1.888809   -3.299309
     43          1           0        2.494444    2.919837   -3.153808
     44          1           0        2.083021    1.380320   -3.899373
     45          8           0        4.943197    2.011885   -0.971796
     46          6           0        4.173462    1.869151   -4.082794
     47          1           0        4.714752    0.944632   -3.847886
     48          1           0        3.965489    1.835739   -5.159965
     49          6           0        5.083608    3.075623   -3.793294
     50          1           0        5.103699    3.292357   -2.724538
     51          1           0        4.725624    3.970793   -4.310200
     52          7           0        6.473760    2.864142   -4.234125
     53          1           0        6.672095    2.987506   -5.218593
     54          7           0        7.078429    1.604072   -2.372440
     55          1           0        7.831132    1.246964   -1.799085
     56          1           0        6.117810    1.680484   -1.892976
     57          7           0        8.606729    1.978123   -4.098000
     58          1           0        9.320497    1.507043   -3.560221
     59          1           0        8.951050    2.685341   -4.732811
     60          6           0        7.375195    2.150630   -3.537155
     61          8           0        3.027104    2.314478    0.162193
     62          1           0       -3.226642   -5.162175   -6.201668
 ---------------------------------------------------------------------

 SCF Done:  E(RB3LYP) =  -1447.39866697     A.U. after    1 cycles

 Alpha  occ. eigenvalues --  -19.30824 -19.25942 -19.25707 -19.19539 -19.14247
 Alpha  occ. eigenvalues --  -19.13610 -14.58872 -14.47960 -14.47824 -14.47656
 Alpha  occ. eigenvalues --  -14.45211 -14.41829 -10.44026 -10.43438 -10.42357
 Alpha  occ. eigenvalues --  -10.39363 -10.36318 -10.34136 -10.33444 -10.32371
 Alpha  occ. eigenvalues --  -10.32148 -10.30557 -10.27927 -10.26444 -10.26394
 Alpha  occ. eigenvalues --  -10.25950 -10.25424 -10.23460 -10.23361  -1.22035
 Alpha  occ. eigenvalues --   -1.18236  -1.13155  -1.12612  -1.11983  -1.11130
 Alpha  occ. eigenvalues --   -1.07424  -1.04555  -1.01563  -1.00106  -0.99195
 Alpha  occ. eigenvalues --   -0.97774  -0.94412  -0.89225  -0.87050  -0.86807
 Alpha  occ. eigenvalues --   -0.83420  -0.80686  -0.78982  -0.75652  -0.74445
 Alpha  occ. eigenvalues --   -0.74008  -0.73126  -0.72736  -0.72126  -0.70809
 Alpha  occ. eigenvalues --   -0.69286  -0.69200  -0.67585  -0.65818  -0.65499
 Alpha  occ. eigenvalues --   -0.63873  -0.63597  -0.62386  -0.61097  -0.60786
 Alpha  occ. eigenvalues --   -0.60111  -0.59870  -0.58974  -0.58687  -0.57628
 Alpha  occ. eigenvalues --   -0.56017  -0.55387  -0.54942  -0.54698  -0.53920
 Alpha  occ. eigenvalues --   -0.53471  -0.52930  -0.52815  -0.51932  -0.51081
 Alpha  occ. eigenvalues --   -0.50431  -0.50184  -0.49547  -0.49363  -0.48895
 Alpha  occ. eigenvalues --   -0.48841  -0.47785  -0.47254  -0.46206  -0.45536
 Alpha  occ. eigenvalues --   -0.45124  -0.44480  -0.44101  -0.43680  -0.43210
 Alpha  occ. eigenvalues --   -0.42995  -0.42821  -0.41276  -0.40699  -0.40195
 Alpha  occ. eigenvalues --   -0.39638  -0.39388  -0.39211  -0.39175  -0.38343
 Alpha  occ. eigenvalues --   -0.37328  -0.36007  -0.33723  -0.32588  -0.29504
 Alpha  occ. eigenvalues --   -0.28752  -0.28156
 Alpha virt. eigenvalues --   -0.11661  -0.10901  -0.09797  -0.07913  -0.05710
 Alpha virt. eigenvalues --   -0.05095  -0.04805  -0.02437  -0.02320  -0.01232
 Alpha virt. eigenvalues --   -0.00691   0.00009   0.00280   0.00310   0.00940

 Mulliken charges:
               1
     1  N   -0.767148
     2  H    0.414770
     3  H    0.435970
     4  H    0.405237
     5  C   -0.114247
     6  H    0.252251
     7  C    0.647016
     8  C   -0.312640
     9  H    0.221887
    10  H    0.178453
    11  O   -0.550765
    12  C   -0.375574
    13  H    0.173105
    14  H    0.222963
    15  C    0.593065
    16  O   -0.456222
    17  O   -0.543996
    18  N   -0.586004
    19  H    0.377162
    20  C   -0.091515
    21  H    0.191780
    22  C    0.626312
    23  C   -0.262820
    24  H    0.174526
    25  H    0.147548
    26  O   -0.573119
    27  C   -0.069332
    28  H    0.113138
    29  C   -0.447120
    30  H    0.157504
    31  H    0.151126
    32  H    0.143225
    33  C   -0.459608
    34  H    0.155295
    35  H    0.154595
    36  H    0.151302
    37  N   -0.614185
    38  H    0.368310
    39  C   -0.062533
    40  H    0.158299
    41  C    0.601606
    42  C   -0.268639
    43  H    0.146648
    44  H    0.161887
    45  O   -0.622933
    46  C   -0.268448
    47  H    0.153502
    48  H    0.138985
    49  C   -0.189074
    50  H    0.228472
    51  H    0.168909
    52  N   -0.593295
    53  H    0.348142
    54  N   -0.774337
    55  H    0.352479
    56  H    0.453101
    57  N   -0.763628
    58  H    0.364638
    59  H    0.364660
    60  C    0.785673
    61  O   -0.549375
    62  H    0.433015
 Sum of Mulliken charges =   1.00000

 Dipole moment (field-independent basis, Debye):
    X=             -1.1569    Y=             -3.5959    Z=            -22.1422  Tot=             22.4621
 Quadrupole moment (field-independent basis, Debye-Ang):
   XX=             65.5605   YY=           -145.2336   ZZ=            -74.9845
   XY=             66.3557   XZ=            -29.1080   YZ=             -8.5450

 Normal termination of Gaussian 16 at Thu May 26 19:02:19 2022.
