 Gaussian 16, Revision C.01,
 Gaussian 16:  ES64L-G16RevC.01  3-Jul-2019

 -------------------------------------------------------------------
 # B3LYP/6-31G* guess=read geom=check nosymm integral(ultrafinegrid)
 -------------------------------------------------------------------

 ------------------------------------------------------
 Candidate Structure: Conf:351 Charge calc in gas phase
 ------------------------------------------------------
 Structure from the checkpoint file:  "conf-351.chk"
 Charge =  1 Multiplicity = 1

                          Input orientation:
 ---------------------------------------------------------------------
 Center     Atomic      Atomic             Coordinates (Angstroms)
 Number     Number       Type             X           Y           Z
 ---------------------------------------------------------------------
      1          7           0       -3.344123   -1.916608   -3.800055
      2          1           0       -3.939069   -1.609933   -2.994266
      3          1           0       -3.400091   -1.177833   -4.507407
      4          1           0       -3.592749   -2.828741   -4.228212
      5          6           0       -1.967428   -2.031472   -3.196351
      6          1           0       -1.953963   -3.030452   -2.750100
      7          6           0       -1.992618   -1.006649   -2.025703
      8          6           0       -0.846112   -1.912097   -4.234975
      9          1           0        0.078222   -2.241161   -3.749036
     10          1           0       -0.693285   -0.861367   -4.507616
     11          8           0       -3.113712   -0.644135   -1.638335
     12          6           0       -1.040960   -2.724173   -5.544429
     13          1           0       -1.751798   -2.209654   -6.203482
     14          1           0       -0.090183   -2.771088   -6.079046
     15          6           0       -1.589771   -4.125407   -5.343608
     16          8           0       -2.697796   -4.362949   -4.878099
     17          8           0       -0.749917   -5.080732   -5.733394
     18          7           0       -0.819054   -0.670609   -1.511362
     19          1           0        0.068250   -0.864658   -1.986732
     20          6           0       -0.583832    0.233595   -0.380717
     21          1           0       -1.355845    1.008225   -0.375390
     22          6           0        0.810123    0.847889   -0.670569
     23          6           0       -0.541542   -0.513713    0.975527
     24          1           0       -0.119257    0.169595    1.724304
     25          1           0        0.182617   -1.333504    0.870089
     26          8           0        1.521823    0.341871   -1.556226
     27          6           0       -1.879715   -1.070435    1.501754
     28          1           0       -2.312605   -1.734579    0.739254
     29          6           0       -1.612741   -1.910997    2.760776
     30          1           0       -1.175047   -1.295445    3.555881
     31          1           0       -2.542578   -2.344006    3.146682
     32          1           0       -0.917201   -2.733905    2.556303
     33          6           0       -2.897317    0.041575    1.796344
     34          1           0       -2.490263    0.761457    2.517262
     35          1           0       -3.187498    0.583715    0.890068
     36          1           0       -3.812765   -0.379493    2.227543
     37          7           0        1.151622    1.867202    0.125976
     38          1           0        0.590003    2.022771    0.990327
     39          6           0        2.528545    2.122663    0.558104
     40          1           0        3.136904    1.233308    0.356085
     41          6           0        2.440252    2.358515    2.137041
     42          6           0        3.207776    3.340691   -0.059406
     43          1           0        4.150852    3.418072    0.497851
     44          1           0        2.622710    4.236217    0.192810
     45          8           0        3.507622    2.699260    2.667610
     46          6           0        3.463694    3.301275   -1.572474
     47          1           0        3.724734    2.287207   -1.897350
     48          1           0        2.545323    3.558863   -2.120596
     49          6           0        4.624251    4.228855   -1.969133
     50          1           0        4.706608    4.389652   -3.049691
     51          1           0        5.573088    3.797807   -1.639349
     52          7           0        4.562451    5.559279   -1.318908
     53          1           0        4.897837    5.593931   -0.363086
     54          7           0        3.054207    6.510144   -2.809416
     55          1           0        2.719772    7.335624   -3.284831
     56          1           0        2.771374    5.608703   -3.164802
     57          7           0        3.976215    7.796567   -1.122904
     58          1           0        3.230717    8.476617   -1.176307
     59          1           0        4.657183    7.927654   -0.387434
     60          6           0        3.858002    6.603495   -1.738581
     61          8           0        1.280726    2.200434    2.614433
     62          1           0       -1.180390   -5.947925   -5.590264
 ---------------------------------------------------------------------

 SCF Done:  E(RB3LYP) =  -1447.35348559     A.U. after    1 cycles

 Alpha  occ. eigenvalues --  -19.33238 -19.28249 -19.23990 -19.18748 -19.09735
 Alpha  occ. eigenvalues --  -19.08637 -14.57728 -14.52645 -14.52327 -14.52116
 Alpha  occ. eigenvalues --  -14.46687 -14.39593 -10.48687 -10.46408 -10.41272
 Alpha  occ. eigenvalues --  -10.39298 -10.34993 -10.34914 -10.34846 -10.34447
 Alpha  occ. eigenvalues --  -10.31026 -10.27957 -10.27566 -10.25234 -10.24737
 Alpha  occ. eigenvalues --  -10.24506 -10.24459 -10.22012 -10.22000  -1.24516
 Alpha  occ. eigenvalues --   -1.17145  -1.16666  -1.15405  -1.11833  -1.09952
 Alpha  occ. eigenvalues --   -1.06183  -1.05428  -1.03285  -1.02728  -0.97045
 Alpha  occ. eigenvalues --   -0.94738  -0.93978  -0.89262  -0.88419  -0.86306
 Alpha  occ. eigenvalues --   -0.82910  -0.81529  -0.79588  -0.79022  -0.74825
 Alpha  occ. eigenvalues --   -0.74359  -0.73876  -0.73224  -0.72852  -0.72477
 Alpha  occ. eigenvalues --   -0.71116  -0.70347  -0.68253  -0.66636  -0.66142
 Alpha  occ. eigenvalues --   -0.65245  -0.64188  -0.64032  -0.62302  -0.61783
 Alpha  occ. eigenvalues --   -0.61046  -0.60834  -0.59596  -0.59332  -0.58387
 Alpha  occ. eigenvalues --   -0.57521  -0.56799  -0.55923  -0.55553  -0.54544
 Alpha  occ. eigenvalues --   -0.53541  -0.53104  -0.52530  -0.51751  -0.51105
 Alpha  occ. eigenvalues --   -0.50636  -0.50460  -0.49776  -0.49379  -0.48814
 Alpha  occ. eigenvalues --   -0.47705  -0.47513  -0.45941  -0.45594  -0.45364
 Alpha  occ. eigenvalues --   -0.44560  -0.43904  -0.43661  -0.42997  -0.42242
 Alpha  occ. eigenvalues --   -0.42020  -0.41625  -0.41219  -0.40725  -0.39881
 Alpha  occ. eigenvalues --   -0.38980  -0.38810  -0.38421  -0.37963  -0.37638
 Alpha  occ. eigenvalues --   -0.37133  -0.35750  -0.32712  -0.31504  -0.24815
 Alpha  occ. eigenvalues --   -0.24553  -0.22807
 Alpha virt. eigenvalues --   -0.13553  -0.12885  -0.10412  -0.08617  -0.08269
 Alpha virt. eigenvalues --   -0.05194  -0.04371  -0.03940  -0.03788  -0.03268
 Alpha virt. eigenvalues --   -0.02996  -0.01277  -0.00792  -0.00077   0.00298

 Mulliken charges:
               1
     1  N   -0.755772
     2  H    0.426558
     3  H    0.396511
     4  H    0.433099
     5  C   -0.123788
     6  H    0.235961
     7  C    0.658437
     8  C   -0.318732
     9  H    0.213876
    10  H    0.192439
    11  O   -0.548361
    12  C   -0.377024
    13  H    0.185616
    14  H    0.221527
    15  C    0.609270
    16  O   -0.489841
    17  O   -0.522934
    18  N   -0.610693
    19  H    0.366976
    20  C   -0.081153
    21  H    0.184635
    22  C    0.594728
    23  C   -0.279661
    24  H    0.205175
    25  H    0.136538
    26  O   -0.575761
    27  C   -0.068543
    28  H    0.108958
    29  C   -0.448029
    30  H    0.168166
    31  H    0.145523
    32  H    0.137716
    33  C   -0.458947
    34  H    0.162889
    35  H    0.146744
    36  H    0.146801
    37  N   -0.599091
    38  H    0.362743
    39  C   -0.089707
    40  H    0.153290
    41  C    0.593319
    42  C   -0.272165
    43  H    0.163789
    44  H    0.123789
    45  O   -0.575640
    46  C   -0.275791
    47  H    0.189907
    48  H    0.129052
    49  C   -0.194648
    50  H    0.172406
    51  H    0.205245
    52  N   -0.571319
    53  H    0.379743
    54  N   -0.755138
    55  H    0.382982
    56  H    0.392937
    57  N   -0.755184
    58  H    0.383153
    59  H    0.387621
    60  C    0.815505
    61  O   -0.605510
    62  H    0.439809
 Sum of Mulliken charges =   1.00000

 Dipole moment (field-independent basis, Debye):
    X=              0.9246    Y=             10.9701    Z=            -28.9443  Tot=             30.9673
 Quadrupole moment (field-independent basis, Debye-Ang):
   XX=           -111.7962   YY=             36.7047   ZZ=           -101.2845
   XY=             97.3171   XZ=             -4.2916   YZ=            -19.8040

 Normal termination of Gaussian 16 at Thu May 26 19:02:19 2022.
