 Gaussian 16, Revision C.01,
 Gaussian 16:  ES64L-G16RevC.01  3-Jul-2019

 -------------------------------------------------------------------
 # B3LYP/6-31G* guess=read geom=check nosymm integral(ultrafinegrid)
 -------------------------------------------------------------------

 -----------------------------------------------------
 Candidate Structure: Conf:34 Charge calc in gas phase
 -----------------------------------------------------
 Structure from the checkpoint file:  "conf-34.chk"
 Charge =  1 Multiplicity = 1

                          Input orientation:
 ---------------------------------------------------------------------
 Center     Atomic      Atomic             Coordinates (Angstroms)
 Number     Number       Type             X           Y           Z
 ---------------------------------------------------------------------
      1          7           0       -3.697008   -1.436715   -3.460868
      2          1           0       -4.241592   -2.245449   -3.150796
      3          1           0       -3.865731   -0.607078   -2.792325
      4          1           0       -3.977610   -1.199326   -4.415771
      5          6           0       -2.197923   -1.610988   -3.298752
      6          1           0       -2.011008   -2.643765   -2.992477
      7          6           0       -1.882677   -0.626959   -2.129951
      8          6           0       -1.446863   -1.264582   -4.589507
      9          1           0       -0.381643   -1.180836   -4.350173
     10          1           0       -1.741763   -0.264328   -4.930201
     11          8           0       -2.806235    0.121301   -1.761497
     12          6           0       -1.630873   -2.289053   -5.714529
     13          1           0       -1.241214   -3.273311   -5.427694
     14          1           0       -2.686555   -2.451369   -5.976291
     15          6           0       -0.918643   -1.839016   -6.982021
     16          8           0       -0.369962   -0.770291   -7.117770
     17          8           0       -0.989659   -2.785493   -7.935832
     18          7           0       -0.660150   -0.688580   -1.633950
     19          1           0        0.083331   -1.218838   -2.107242
     20          6           0       -0.048939    0.280348   -0.717137
     21          1           0       -0.570039    1.236634   -0.831484
     22          6           0        1.411292    0.384531   -1.244557
     23          6           0       -0.065392   -0.144198    0.768207
     24          1           0        0.508366    0.621882    1.303373
     25          1           0        0.503385   -1.077579    0.877021
     26          8           0        1.821279   -0.468866   -2.047637
     27          6           0       -1.458394   -0.285927    1.431576
     28          1           0       -2.143314    0.423526    0.946874
     29          6           0       -2.041885   -1.700276    1.277706
     30          1           0       -1.410862   -2.436258    1.791737
     31          1           0       -3.043073   -1.757185    1.719572
     32          1           0       -2.120000   -2.010554    0.230345
     33          6           0       -1.370598    0.082365    2.921786
     34          1           0       -0.663072   -0.571218    3.447523
     35          1           0       -1.035562    1.116564    3.059489
     36          1           0       -2.345563   -0.022992    3.410696
     37          7           0        2.134278    1.391890   -0.759560
     38          1           0        1.774656    2.049861   -0.064555
     39          6           0        3.569920    1.582003   -0.955095
     40          1           0        4.065509    0.608505   -0.976744
     41          6           0        4.068830    2.395512    0.267958
     42          6           0        3.856360    2.337395   -2.283958
     43          1           0        3.093186    3.118817   -2.401560
     44          1           0        3.707686    1.632001   -3.108190
     45          8           0        5.322029    2.299236    0.477417
     46          6           0        5.263144    2.968692   -2.372210
     47          1           0        5.981983    2.343160   -1.837388
     48          1           0        5.577947    3.021366   -3.422327
     49          6           0        5.285798    4.389165   -1.772189
     50          1           0        4.702043    4.449252   -0.853156
     51          1           0        4.832308    5.096914   -2.476840
     52          7           0        6.632361    4.893530   -1.468999
     53          1           0        7.243480    5.080695   -2.253096
     54          7           0        6.653211    4.463070    0.826791
     55          1           0        7.023890    4.732952    1.728358
     56          1           0        6.010879    3.572063    0.784671
     57          7           0        8.353119    5.715950   -0.177240
     58          1           0        8.847746    5.759755    0.701732
     59          1           0        8.503372    6.490490   -0.808298
     60          6           0        7.189437    5.007081   -0.248835
     61          8           0        3.236223    3.112516    0.852568
     62          1           0       -0.521391   -2.443194   -8.721876
 ---------------------------------------------------------------------

 SCF Done:  E(RB3LYP) =  -1447.39504201     A.U. after    1 cycles

 Alpha  occ. eigenvalues --  -19.29666 -19.26575 -19.24323 -19.20078 -19.14925
 Alpha  occ. eigenvalues --  -19.14547 -14.59520 -14.48324 -14.46975 -14.46819
 Alpha  occ. eigenvalues --  -14.43692 -14.42903 -10.42990 -10.42798 -10.42363
 Alpha  occ. eigenvalues --  -10.40654 -10.36968 -10.33874 -10.33138 -10.33124
 Alpha  occ. eigenvalues --  -10.32564 -10.30416 -10.28007 -10.27086 -10.26603
 Alpha  occ. eigenvalues --  -10.25447 -10.25356 -10.25027 -10.23904  -1.20750
 Alpha  occ. eigenvalues --   -1.18891  -1.13317  -1.11973  -1.11803  -1.10788
 Alpha  occ. eigenvalues --   -1.08213  -1.05125  -1.00536  -1.00405  -0.98939
 Alpha  occ. eigenvalues --   -0.97932  -0.94643  -0.89610  -0.87379  -0.86534
 Alpha  occ. eigenvalues --   -0.83979  -0.80633  -0.78840  -0.75587  -0.75189
 Alpha  occ. eigenvalues --   -0.74603  -0.73780  -0.72417  -0.71894  -0.70355
 Alpha  occ. eigenvalues --   -0.69633  -0.68225  -0.67168  -0.65862  -0.64995
 Alpha  occ. eigenvalues --   -0.64508  -0.63966  -0.63083  -0.60869  -0.60613
 Alpha  occ. eigenvalues --   -0.59757  -0.59443  -0.58595  -0.58093  -0.57742
 Alpha  occ. eigenvalues --   -0.56464  -0.55930  -0.54769  -0.54510  -0.53663
 Alpha  occ. eigenvalues --   -0.53055  -0.52841  -0.52339  -0.51553  -0.51054
 Alpha  occ. eigenvalues --   -0.51022  -0.50258  -0.49588  -0.49059  -0.48701
 Alpha  occ. eigenvalues --   -0.48601  -0.48434  -0.48116  -0.46724  -0.46018
 Alpha  occ. eigenvalues --   -0.45408  -0.44683  -0.44517  -0.43684  -0.43411
 Alpha  occ. eigenvalues --   -0.42521  -0.41964  -0.41678  -0.41153  -0.41006
 Alpha  occ. eigenvalues --   -0.40402  -0.39761  -0.39677  -0.38020  -0.37695
 Alpha  occ. eigenvalues --   -0.37533  -0.35002  -0.34302  -0.33287  -0.30565
 Alpha  occ. eigenvalues --   -0.29326  -0.28812
 Alpha virt. eigenvalues --   -0.11740  -0.11425  -0.09216  -0.07130  -0.06306
 Alpha virt. eigenvalues --   -0.05596  -0.04007  -0.03825  -0.01632  -0.01013
 Alpha virt. eigenvalues --   -0.00545  -0.00369   0.00318   0.00676   0.01145

 Mulliken charges:
               1
     1  N   -0.762827
     2  H    0.414915
     3  H    0.437508
     4  H    0.410018
     5  C   -0.111627
     6  H    0.217158
     7  C    0.651800
     8  C   -0.306196
     9  H    0.226022
    10  H    0.195578
    11  O   -0.546329
    12  C   -0.375034
    13  H    0.205847
    14  H    0.166988
    15  C    0.595743
    16  O   -0.438293
    17  O   -0.556562
    18  N   -0.586953
    19  H    0.374031
    20  C   -0.088225
    21  H    0.189027
    22  C    0.630069
    23  C   -0.268084
    24  H    0.170908
    25  H    0.154863
    26  O   -0.564992
    27  C   -0.076785
    28  H    0.144896
    29  C   -0.440367
    30  H    0.154503
    31  H    0.152960
    32  H    0.106055
    33  C   -0.451910
    34  H    0.152766
    35  H    0.155291
    36  H    0.152766
    37  N   -0.610780
    38  H    0.358878
    39  C   -0.025010
    40  H    0.175429
    41  C    0.589969
    42  C   -0.282206
    43  H    0.140569
    44  H    0.164607
    45  O   -0.626690
    46  C   -0.269281
    47  H    0.186194
    48  H    0.133759
    49  C   -0.173561
    50  H    0.215106
    51  H    0.163398
    52  N   -0.597897
    53  H    0.346896
    54  N   -0.766601
    55  H    0.344668
    56  H    0.453983
    57  N   -0.763135
    58  H    0.363191
    59  H    0.361000
    60  C    0.771906
    61  O   -0.571075
    62  H    0.431157
 Sum of Mulliken charges =   1.00000

 Dipole moment (field-independent basis, Debye):
    X=              2.1507    Y=              3.5629    Z=            -15.6683  Tot=             16.2116
 Quadrupole moment (field-independent basis, Debye-Ang):
   XX=             -4.3570   YY=            -85.2236   ZZ=            -92.2856
   XY=            122.9175   XZ=             31.6558   YZ=             19.8329

 Normal termination of Gaussian 16 at Thu May 26 19:02:16 2022.
