 Gaussian 16, Revision C.01,
 Gaussian 16:  ES64L-G16RevC.01  3-Jul-2019

 -------------------------------------------------------------------
 # B3LYP/6-31G* guess=read geom=check nosymm integral(ultrafinegrid)
 -------------------------------------------------------------------

 ------------------------------------------------------
 Candidate Structure: Conf:234 Charge calc in gas phase
 ------------------------------------------------------
 Structure from the checkpoint file:  "conf-234.chk"
 Charge =  1 Multiplicity = 1

                          Input orientation:
 ---------------------------------------------------------------------
 Center     Atomic      Atomic             Coordinates (Angstroms)
 Number     Number       Type             X           Y           Z
 ---------------------------------------------------------------------
      1          7           0       -3.363666   -2.481702   -3.280866
      2          1           0       -3.611286   -3.287615   -2.698805
      3          1           0       -3.775018   -1.604332   -2.835115
      4          1           0       -3.725291   -2.634398   -4.226461
      5          6           0       -1.880613   -2.157565   -3.246837
      6          1           0       -1.335825   -3.060833   -2.961414
      7          6           0       -1.824676   -1.057992   -2.146180
      8          6           0       -1.447263   -1.654409   -4.636274
      9          1           0       -1.982975   -0.720951   -4.853079
     10          1           0       -1.754103   -2.393083   -5.386438
     11          8           0       -2.887116   -0.456619   -1.911548
     12          6           0        0.070941   -1.434786   -4.772801
     13          1           0        0.457176   -0.682693   -4.082512
     14          1           0        0.599761   -2.375990   -4.569232
     15          6           0        0.457671   -0.991439   -6.175729
     16          8           0        1.166275   -0.051461   -6.435408
     17          8           0       -0.088294   -1.801835   -7.117333
     18          7           0       -0.654896   -0.863640   -1.559015
     19          1           0        0.201482   -1.297385   -1.923988
     20          6           0       -0.302245    0.282837   -0.712809
     21          1           0       -0.987553    1.103617   -0.947725
     22          6           0        1.143922    0.629691   -1.169947
     23          6           0       -0.345199   -0.008433    0.803894
     24          1           0        0.036640    0.895515    1.293305
     25          1           0        0.376733   -0.803630    1.034442
     26          8           0        1.758302   -0.183206   -1.881944
     27          6           0       -1.732237   -0.355822    1.400609
     28          1           0       -2.498874    0.171428    0.815930
     29          6           0       -2.036602   -1.862188    1.346026
     30          1           0       -1.319459   -2.423849    1.957759
     31          1           0       -3.038785   -2.069782    1.737838
     32          1           0       -1.983561   -2.263893    0.328436
     33          6           0       -1.818363    0.140433    2.853293
     34          1           0       -1.042843   -0.324927    3.474650
     35          1           0       -1.687113    1.226656    2.913395
     36          1           0       -2.790030   -0.105856    3.295889
     37          7           0        1.631758    1.789533   -0.737486
     38          1           0        1.135513    2.391888   -0.072802
     39          6           0        3.028656    2.211102   -0.851954
     40          1           0        3.677203    1.357932   -0.630135
     41          6           0        3.214911    3.325438    0.218284
     42          6           0        3.375802    2.747605   -2.266110
     43          1           0        2.911432    2.083044   -3.000817
     44          1           0        4.458211    2.650176   -2.406005
     45          8           0        4.400344    3.779212    0.309152
     46          6           0        2.949033    4.218433   -2.506323
     47          1           0        2.542619    4.336925   -3.517973
     48          1           0        2.143718    4.485379   -1.812037
     49          6           0        4.128620    5.200593   -2.311369
     50          1           0        4.691915    5.313231   -3.244392
     51          1           0        4.809545    4.811504   -1.556366
     52          7           0        3.717616    6.547569   -1.888493
     53          1           0        3.138950    7.070955   -2.532695
     54          7           0        4.271824    6.379817    0.382766
     55          1           0        4.396624    6.872896    1.256786
     56          1           0        4.322233    5.293502    0.430944
     57          7           0        3.405913    8.359516   -0.500342
     58          1           0        3.476375    8.784845    0.412924
     59          1           0        3.518993    8.996271   -1.277108
     60          6           0        3.814809    7.063484   -0.649246
     61          8           0        2.193321    3.736234    0.803201
     62          1           0        0.220720   -1.475439   -7.984531
 ---------------------------------------------------------------------

 SCF Done:  E(RB3LYP) =  -1447.39174889     A.U. after    1 cycles

 Alpha  occ. eigenvalues --  -19.29340 -19.26546 -19.23527 -19.20478 -19.15153
 Alpha  occ. eigenvalues --  -19.15027 -14.60266 -14.48736 -14.47093 -14.46981
 Alpha  occ. eigenvalues --  -14.44127 -14.42892 -10.43237 -10.42640 -10.42032
 Alpha  occ. eigenvalues --  -10.41058 -10.37255 -10.34563 -10.33438 -10.32942
 Alpha  occ. eigenvalues --  -10.31782 -10.30143 -10.28255 -10.27434 -10.26974
 Alpha  occ. eigenvalues --  -10.25895 -10.25452 -10.25169 -10.24233  -1.20090
 Alpha  occ. eigenvalues --   -1.19046  -1.13924  -1.12116  -1.11223  -1.11032
 Alpha  occ. eigenvalues --   -1.08629  -1.05370  -1.00750  -1.00669  -0.99011
 Alpha  occ. eigenvalues --   -0.98270  -0.94775  -0.89724  -0.87109  -0.86525
 Alpha  occ. eigenvalues --   -0.84249  -0.80802  -0.78797  -0.75904  -0.75326
 Alpha  occ. eigenvalues --   -0.74804  -0.73911  -0.72697  -0.72077  -0.70667
 Alpha  occ. eigenvalues --   -0.70146  -0.68615  -0.67713  -0.66306  -0.65020
 Alpha  occ. eigenvalues --   -0.64243  -0.63847  -0.63558  -0.61200  -0.60048
 Alpha  occ. eigenvalues --   -0.59340  -0.59103  -0.58429  -0.57586  -0.56679
 Alpha  occ. eigenvalues --   -0.56600  -0.55939  -0.55340  -0.54991  -0.54116
 Alpha  occ. eigenvalues --   -0.53279  -0.53029  -0.52715  -0.52036  -0.51545
 Alpha  occ. eigenvalues --   -0.51257  -0.49860  -0.49661  -0.49597  -0.48796
 Alpha  occ. eigenvalues --   -0.48569  -0.48080  -0.47707  -0.47136  -0.46137
 Alpha  occ. eigenvalues --   -0.45780  -0.45223  -0.44580  -0.43944  -0.43506
 Alpha  occ. eigenvalues --   -0.42842  -0.41841  -0.41465  -0.41261  -0.41167
 Alpha  occ. eigenvalues --   -0.40752  -0.40052  -0.40006  -0.37993  -0.37691
 Alpha  occ. eigenvalues --   -0.37024  -0.35100  -0.34511  -0.33383  -0.30653
 Alpha  occ. eigenvalues --   -0.29924  -0.29362
 Alpha virt. eigenvalues --   -0.12352  -0.11314  -0.08985  -0.07028  -0.06613
 Alpha virt. eigenvalues --   -0.06155  -0.04487  -0.04134  -0.01922  -0.01035
 Alpha virt. eigenvalues --   -0.00892  -0.00638   0.00261   0.01125   0.01186

 Mulliken charges:
               1
     1  N   -0.754390
     2  H    0.418419
     3  H    0.433269
     4  H    0.412353
     5  C   -0.116394
     6  H    0.214436
     7  C    0.649186
     8  C   -0.302961
     9  H    0.190850
    10  H    0.193149
    11  O   -0.543293
    12  C   -0.375840
    13  H    0.220331
    14  H    0.193593
    15  C    0.576380
    16  O   -0.426190
    17  O   -0.566938
    18  N   -0.584951
    19  H    0.374787
    20  C   -0.089712
    21  H    0.190319
    22  C    0.633953
    23  C   -0.270856
    24  H    0.173135
    25  H    0.154882
    26  O   -0.565211
    27  C   -0.076293
    28  H    0.144366
    29  C   -0.439556
    30  H    0.156135
    31  H    0.152850
    32  H    0.101338
    33  C   -0.451949
    34  H    0.153710
    35  H    0.155449
    36  H    0.152954
    37  N   -0.610040
    38  H    0.364235
    39  C   -0.057291
    40  H    0.177340
    41  C    0.602036
    42  C   -0.268700
    43  H    0.165820
    44  H    0.161523
    45  O   -0.622651
    46  C   -0.291421
    47  H    0.141734
    48  H    0.165543
    49  C   -0.176125
    50  H    0.168517
    51  H    0.224824
    52  N   -0.602056
    53  H    0.344973
    54  N   -0.771337
    55  H    0.347692
    56  H    0.453231
    57  N   -0.763464
    58  H    0.362431
    59  H    0.359775
    60  C    0.783546
    61  O   -0.569673
    62  H    0.428227
 Sum of Mulliken charges =   1.00000

 Dipole moment (field-independent basis, Debye):
    X=             -5.4634    Y=              4.8123    Z=            -15.3082  Tot=             16.9514
 Quadrupole moment (field-independent basis, Debye-Ang):
   XX=           -125.4997   YY=             -0.6878   ZZ=           -101.1138
   XY=             87.4510   XZ=             26.7633   YZ=             16.6567

 Normal termination of Gaussian 16 at Thu May 26 19:02:20 2022.
