 Gaussian 16, Revision C.01,
 Gaussian 16:  ES64L-G16RevC.01  3-Jul-2019

 ----------------------------------------------------------------------
 # B3LYP/6-31G* empiricaldispersion=gd3bj guess=read geom=check nosymm
 integral(ultrafinegrid)
 ----------------------------------------------------------------------

 ------------------------------------------------------
 Candidate Structure: Conf:418 Charge calc in gas phase
 ------------------------------------------------------
 Structure from the checkpoint file:  "conf-418.chk"
 Charge =  1 Multiplicity = 1

                          Input orientation:
 ---------------------------------------------------------------------
 Center     Atomic      Atomic             Coordinates (Angstroms)
 Number     Number       Type             X           Y           Z
 ---------------------------------------------------------------------
      1          7           0       -1.831618   -2.856843    2.384101
      2          1           0       -2.196229   -3.647808    2.921354
      3          1           0       -1.944971   -2.994099    1.339643
      4          1           0       -0.823073   -2.764454    2.555974
      5          6           0       -2.558313   -1.561778    2.613265
      6          1           0       -2.044147   -0.977960    3.377473
      7          1           0       -3.576054   -1.786473    2.939986
      8          6           0       -2.544818   -0.896953    1.216197
      9          8           0       -2.283546   -1.634411    0.256367
     10          7           0       -2.796874    0.407451    1.152277
     11          1           0       -2.883660    0.936567    2.013784
     12          6           0       -2.462369    1.206426   -0.053664
     13          1           0       -2.575597    0.533659   -0.903812
     14          6           0       -0.979607    1.577856    0.174553
     15          6           0       -3.367092    2.424752   -0.176156
     16          1           0       -3.131759    3.113266    0.643978
     17          1           0       -3.077141    2.946831   -1.096999
     18          8           0       -0.670810    2.554553    0.846424
     19          6           0       -4.873091    2.114197   -0.211962
     20          1           0       -5.144745    1.633381    0.740409
     21          6           0       -5.665101    3.422887   -0.319348
     22          1           0       -5.444736    3.934137   -1.264233
     23          1           0       -6.742754    3.232110   -0.287252
     24          1           0       -5.417877    4.109682    0.497882
     25          6           0       -5.243646    1.152809   -1.348675
     26          1           0       -4.938368    1.561628   -2.319978
     27          1           0       -4.773326    0.168953   -1.235341
     28          1           0       -6.326528    0.994918   -1.382968
     29          7           0       -0.107293    0.642642   -0.271966
     30          1           0       -0.384294   -0.059361   -0.952289
     31          6           0        1.319567    0.697340   -0.013783
     32          1           0        1.604061    1.745157    0.122457
     33          6           0        2.005221    0.093405   -1.247462
     34          6           0        1.716161   -0.098471    1.265727
     35          1           0        2.803974    0.005302    1.370656
     36          8           0        1.392247   -0.678239   -1.987587
     37          6           0        1.059876    0.490735    2.519183
     38          1           0       -0.028658    0.350143    2.489859
     39          1           0        1.445557   -0.003034    3.418370
     40          1           0        1.236610    1.565051    2.609195
     41          6           0        1.389016   -1.592097    1.128392
     42          1           0        0.328262   -1.720620    0.876486
     43          1           0        1.613870   -2.116299    2.067009
     44          1           0        1.959499   -2.077075    0.332076
     45          7           0        3.302907    0.413647   -1.404639
     46          1           0        3.768379    1.069799   -0.787313
     47          6           0        4.122444   -0.128122   -2.480618
     48          1           0        3.896896   -1.192882   -2.594482
     49          6           0        5.564289    0.041719   -2.030174
     50          6           0        3.837001    0.589935   -3.822211
     51          1           0        2.749198    0.562607   -3.947190
     52          1           0        4.124366    1.644354   -3.721658
     53          8           0        5.912185    0.821782   -1.167767
     54          6           0        4.503217   -0.037402   -5.048685
     55          1           0        4.257133   -1.107678   -5.079578
     56          1           0        5.594448    0.025037   -4.965044
     57          6           0        4.053820    0.629457   -6.352549
     58          1           0        2.960595    0.548273   -6.447369
     59          1           0        4.281980    1.704238   -6.310124
     60          6           0        4.716101    0.029454   -7.606040
     61          1           0        4.402340    0.606781   -8.483835
     62          1           0        5.805007    0.148679   -7.532483
     63          7           0        4.445536   -1.381266   -7.883921
     64          1           0        4.789752   -1.968432   -7.127015
     65          1           0        3.440698   -1.541222   -7.941824
     66          8           0        6.411769   -0.750643   -2.705073
     67          1           0        7.312633   -0.544139   -2.388126
 ---------------------------------------------------------------------

 SCF Done:  E(RB3LYP) =  -1396.75348809     A.U. after    1 cycles

 Alpha  occ. eigenvalues --  -19.29282 -19.28766 -19.23202 -19.21939 -19.21317
 Alpha  occ. eigenvalues --  -14.63077 -14.52312 -14.46115 -14.45597 -14.36012
 Alpha  occ. eigenvalues --  -10.46275 -10.43323 -10.41167 -10.39252 -10.38429
 Alpha  occ. eigenvalues --  -10.35196 -10.33260 -10.32649 -10.30605 -10.29262
 Alpha  occ. eigenvalues --  -10.28388 -10.28324 -10.28231 -10.26631 -10.25962
 Alpha  occ. eigenvalues --  -10.25532 -10.25263 -10.24893 -10.23780  -1.21928
 Alpha  occ. eigenvalues --   -1.19832  -1.16717  -1.14270  -1.13201  -1.10872
 Alpha  occ. eigenvalues --   -1.08575  -1.02882  -1.02221  -0.93410  -0.92865
 Alpha  occ. eigenvalues --   -0.91394  -0.90354  -0.88049  -0.85750  -0.83341
 Alpha  occ. eigenvalues --   -0.80886  -0.79777  -0.77563  -0.76821  -0.76210
 Alpha  occ. eigenvalues --   -0.76138  -0.75594  -0.74594  -0.71668  -0.70507
 Alpha  occ. eigenvalues --   -0.69578  -0.68239  -0.67110  -0.66777  -0.65965
 Alpha  occ. eigenvalues --   -0.64671  -0.64022  -0.63768  -0.62559  -0.60766
 Alpha  occ. eigenvalues --   -0.59839  -0.58444  -0.58053  -0.57258  -0.56619
 Alpha  occ. eigenvalues --   -0.56139  -0.55957  -0.55332  -0.54533  -0.54277
 Alpha  occ. eigenvalues --   -0.53872  -0.53536  -0.52503  -0.52213  -0.51759
 Alpha  occ. eigenvalues --   -0.51222  -0.50484  -0.50256  -0.49454  -0.49143
 Alpha  occ. eigenvalues --   -0.48805  -0.48187  -0.47831  -0.47710  -0.46686
 Alpha  occ. eigenvalues --   -0.46551  -0.46419  -0.45490  -0.45358  -0.44887
 Alpha  occ. eigenvalues --   -0.44518  -0.43937  -0.43534  -0.42507  -0.42211
 Alpha  occ. eigenvalues --   -0.41666  -0.41523  -0.41296  -0.41062  -0.40545
 Alpha  occ. eigenvalues --   -0.39311  -0.38566  -0.37049  -0.36297  -0.35518
 Alpha  occ. eigenvalues --   -0.34913  -0.34450  -0.27996
 Alpha virt. eigenvalues --   -0.15696  -0.13162  -0.08838  -0.08356  -0.08282
 Alpha virt. eigenvalues --   -0.07677  -0.06824  -0.03958  -0.03659  -0.02318
 Alpha virt. eigenvalues --   -0.01323  -0.00607  -0.00141   0.00579   0.01332

 Mulliken charges:
               1
     1  N   -0.745801
     2  H    0.424887
     3  H    0.440931
     4  H    0.425579
     5  C   -0.286600
     6  H    0.242060
     7  H    0.256396
     8  C    0.658791
     9  O   -0.523995
    10  N   -0.578833
    11  H    0.360606
    12  C   -0.090297
    13  H    0.199833
    14  C    0.624834
    15  C   -0.284104
    16  H    0.170645
    17  H    0.169239
    18  O   -0.516361
    19  C   -0.075924
    20  H    0.111153
    21  C   -0.445039
    22  H    0.156239
    23  H    0.158086
    24  H    0.151015
    25  C   -0.456834
    26  H    0.156369
    27  H    0.137919
    28  H    0.163058
    29  N   -0.615171
    30  H    0.366100
    31  C   -0.060305
    32  H    0.188940
    33  C    0.637998
    34  C   -0.066377
    35  H    0.157694
    36  O   -0.550400
    37  C   -0.453078
    38  H    0.098134
    39  H    0.149363
    40  H    0.195793
    41  C   -0.492697
    42  H    0.118466
    43  H    0.136538
    44  H    0.194980
    45  N   -0.624591
    46  H    0.358677
    47  C   -0.030323
    48  H    0.191678
    49  C    0.583884
    50  C   -0.272022
    51  H    0.174819
    52  H    0.150830
    53  O   -0.466530
    54  C   -0.263928
    55  H    0.127981
    56  H    0.150500
    57  C   -0.264050
    58  H    0.127180
    59  H    0.133644
    60  C   -0.146691
    61  H    0.151236
    62  H    0.144155
    63  N   -0.701171
    64  H    0.296845
    65  H    0.293119
    66  O   -0.552168
    67  H    0.427094
 Sum of Mulliken charges =   1.00000

 Dipole moment (field-independent basis, Debye):
    X=             -5.8674    Y=             -7.7096    Z=              9.5216  Tot=             13.5840
 Quadrupole moment (field-independent basis, Debye-Ang):
   XX=           -113.2995   YY=           -148.9256   ZZ=           -151.5070
   XY=              9.5326   XZ=            -26.1882   YZ=            -37.5203

 Normal termination of Gaussian 16 at Tue Jul 12 17:42:45 2022.
