 Gaussian 16, Revision C.01,
 Gaussian 16:  ES64L-G16RevC.01  3-Jul-2019

 ----------------------------------------------------------------------
 # B3LYP/6-31G* empiricaldispersion=gd3bj guess=read geom=check nosymm
 integral(ultrafinegrid)
 ----------------------------------------------------------------------

 ------------------------------------------------------
 Candidate Structure: Conf:126 Charge calc in gas phase
 ------------------------------------------------------
 Structure from the checkpoint file:  "conf-126.chk"
 Charge =  1 Multiplicity = 1

                          Input orientation:
 ---------------------------------------------------------------------
 Center     Atomic      Atomic             Coordinates (Angstroms)
 Number     Number       Type             X           Y           Z
 ---------------------------------------------------------------------
      1          7           0       -5.630251    1.156724    3.837491
      2          1           0       -5.530315    0.896259    4.821908
      3          1           0       -6.484395    1.710131    3.733272
      4          1           0       -5.677416    0.271187    3.220461
      5          6           0       -4.409014    1.815796    3.261566
      6          1           0       -3.654334    1.944373    4.038891
      7          1           0       -4.674211    2.791043    2.850966
      8          6           0       -3.953369    0.824023    2.157358
      9          8           0       -4.653671   -0.192607    2.008986
     10          7           0       -2.875353    1.156487    1.476753
     11          1           0       -2.285636    1.952654    1.737839
     12          6           0       -2.214852    0.328705    0.462082
     13          1           0       -2.443783   -0.720169    0.664860
     14          6           0       -0.719339    0.635388    0.660079
     15          6           0       -2.637749    0.730290   -0.965643
     16          1           0       -2.395146    1.794078   -1.086274
     17          1           0       -2.013147    0.180284   -1.682850
     18          8           0       -0.386669    1.720736    1.149793
     19          6           0       -4.120170    0.485871   -1.296459
     20          1           0       -4.733540    0.932923   -0.500900
     21          6           0       -4.485154    1.195413   -2.606852
     22          1           0       -3.894570    0.806973   -3.444026
     23          1           0       -5.542610    1.047393   -2.850401
     24          1           0       -4.299236    2.273751   -2.544142
     25          6           0       -4.443893   -1.011481   -1.365624
     26          1           0       -3.805390   -1.509596   -2.105433
     27          1           0       -4.298492   -1.506433   -0.400194
     28          1           0       -5.487119   -1.170772   -1.658715
     29          7           0        0.125716   -0.303405    0.225492
     30          1           0       -0.202877   -1.184603   -0.161572
     31          6           0        1.566691   -0.104998    0.105720
     32          1           0        1.737950    0.920477   -0.238280
     33          6           0        1.989009   -1.113472   -0.969678
     34          6           0        2.313944   -0.296964    1.451958
     35          1           0        1.845322    0.423884    2.133441
     36          8           0        1.402610   -2.193040   -1.063592
     37          6           0        2.136108   -1.705508    2.026522
     38          1           0        2.599419   -2.462511    1.385839
     39          1           0        2.600679   -1.768157    3.015991
     40          1           0        1.077623   -1.964523    2.132891
     41          6           0        3.794583    0.075123    1.308145
     42          1           0        4.324431   -0.615814    0.643050
     43          1           0        4.290921    0.038817    2.282867
     44          1           0        3.919581    1.090432    0.912186
     45          7           0        2.980157   -0.723729   -1.795071
     46          1           0        3.508494    0.121241   -1.612565
     47          6           0        3.471825   -1.562881   -2.875311
     48          1           0        3.338327   -2.609658   -2.585949
     49          6           0        4.953220   -1.263415   -3.029175
     50          6           0        2.722831   -1.305753   -4.205446
     51          1           0        2.908770   -0.267554   -4.513563
     52          1           0        3.166635   -1.951350   -4.972062
     53          8           0        5.517706   -0.328119   -2.501466
     54          6           0        1.217186   -1.558707   -4.097168
     55          1           0        0.782827   -0.921613   -3.323119
     56          1           0        1.043160   -2.590820   -3.769525
     57          6           0        0.470111   -1.303185   -5.406604
     58          1           0        0.637727   -0.266624   -5.737358
     59          1           0        0.867423   -1.944869   -6.204115
     60          6           0       -1.034366   -1.558237   -5.288525
     61          1           0       -1.492262   -1.467824   -6.287312
     62          1           0       -1.200087   -2.589872   -4.954712
     63          7           0       -1.658340   -0.668460   -4.289321
     64          1           0       -1.588431    0.295030   -4.619565
     65          1           0       -2.656624   -0.869554   -4.252619
     66          8           0        5.557484   -2.136469   -3.852047
     67          1           0        6.490918   -1.860257   -3.928984
 ---------------------------------------------------------------------

 SCF Done:  E(RB3LYP) =  -1396.76831315     A.U. after    1 cycles

 Alpha  occ. eigenvalues --  -19.28389 -19.27454 -19.21963 -19.21905 -19.19750
 Alpha  occ. eigenvalues --  -14.61778 -14.50442 -14.45527 -14.44249 -14.38711
 Alpha  occ. eigenvalues --  -10.45146 -10.42285 -10.39900 -10.38897 -10.36928
 Alpha  occ. eigenvalues --  -10.34661 -10.31566 -10.31349 -10.28125 -10.28001
 Alpha  occ. eigenvalues --  -10.27173 -10.26996 -10.25908 -10.25727 -10.25392
 Alpha  occ. eigenvalues --  -10.24544 -10.24409 -10.24126 -10.23888  -1.20877
 Alpha  occ. eigenvalues --   -1.18522  -1.15384  -1.13954  -1.11936  -1.09597
 Alpha  occ. eigenvalues --   -1.07192  -1.02226  -1.00910  -0.94982  -0.92512
 Alpha  occ. eigenvalues --   -0.89799  -0.88777  -0.86791  -0.85144  -0.82883
 Alpha  occ. eigenvalues --   -0.79302  -0.76620  -0.76442  -0.76247  -0.75816
 Alpha  occ. eigenvalues --   -0.75516  -0.75443  -0.72108  -0.70326  -0.69265
 Alpha  occ. eigenvalues --   -0.68770  -0.67698  -0.66320  -0.65152  -0.64331
 Alpha  occ. eigenvalues --   -0.64188  -0.63829  -0.62166  -0.61733  -0.59188
 Alpha  occ. eigenvalues --   -0.57963  -0.57330  -0.56969  -0.56230  -0.55899
 Alpha  occ. eigenvalues --   -0.55485  -0.54627  -0.54055  -0.53771  -0.53251
 Alpha  occ. eigenvalues --   -0.52985  -0.52445  -0.51927  -0.51503  -0.50984
 Alpha  occ. eigenvalues --   -0.50572  -0.49602  -0.49025  -0.48111  -0.48026
 Alpha  occ. eigenvalues --   -0.47822  -0.47392  -0.46818  -0.46193  -0.45777
 Alpha  occ. eigenvalues --   -0.45154  -0.44966  -0.44778  -0.44292  -0.43380
 Alpha  occ. eigenvalues --   -0.42418  -0.42038  -0.41551  -0.41541  -0.41240
 Alpha  occ. eigenvalues --   -0.40937  -0.40852  -0.40752  -0.39757  -0.39636
 Alpha  occ. eigenvalues --   -0.39495  -0.38977  -0.36012  -0.35645  -0.35103
 Alpha  occ. eigenvalues --   -0.33695  -0.32988  -0.30837
 Alpha virt. eigenvalues --   -0.13397  -0.13105  -0.08029  -0.07607  -0.06760
 Alpha virt. eigenvalues --   -0.05999  -0.05407  -0.02424  -0.02176  -0.01250
 Alpha virt. eigenvalues --    0.00194   0.00507   0.00945   0.01236   0.02222

 Mulliken charges:
               1
     1  N   -0.751821
     2  H    0.422489
     3  H    0.422063
     4  H    0.441047
     5  C   -0.278448
     6  H    0.248668
     7  H    0.248514
     8  C    0.640208
     9  O   -0.532661
    10  N   -0.582050
    11  H    0.372518
    12  C   -0.090908
    13  H    0.190432
    14  C    0.636063
    15  C   -0.275645
    16  H    0.147815
    17  H    0.194966
    18  O   -0.553197
    19  C   -0.067950
    20  H    0.110105
    21  C   -0.452560
    22  H    0.144893
    23  H    0.155677
    24  H    0.146585
    25  C   -0.465389
    26  H    0.155960
    27  H    0.156928
    28  H    0.154035
    29  N   -0.618862
    30  H    0.367786
    31  C   -0.033955
    32  H    0.169647
    33  C    0.628194
    34  C   -0.081854
    35  H    0.156532
    36  O   -0.546067
    37  C   -0.451818
    38  H    0.167065
    39  H    0.153556
    40  H    0.139051
    41  C   -0.468668
    42  H    0.159597
    43  H    0.164456
    44  H    0.149249
    45  N   -0.609289
    46  H    0.356867
    47  C   -0.051537
    48  H    0.204956
    49  C    0.588451
    50  C   -0.265698
    51  H    0.141150
    52  H    0.166895
    53  O   -0.467450
    54  C   -0.248424
    55  H    0.154676
    56  H    0.151873
    57  C   -0.268502
    58  H    0.127923
    59  H    0.143933
    60  C   -0.140872
    61  H    0.130124
    62  H    0.149019
    63  N   -0.736375
    64  H    0.298339
    65  H    0.312470
    66  O   -0.557054
    67  H    0.426277
 Sum of Mulliken charges =   1.00000

 Dipole moment (field-independent basis, Debye):
    X=            -16.9326    Y=              5.0070    Z=              8.4343  Tot=             19.5684
 Quadrupole moment (field-independent basis, Debye-Ang):
   XX=            -40.7753   YY=           -168.0913   ZZ=            -86.2241
   XY=            -40.9768   XZ=            -82.7292   YZ=             24.8572

 Normal termination of Gaussian 16 at Tue Jul 12 17:42:45 2022.
