 Gaussian 16, Revision C.01,
 Gaussian 16:  ES64L-G16RevC.01  3-Jul-2019

 ----------------------------------------------------------------------
 # B3LYP/6-31G* empiricaldispersion=gd3bj guess=read geom=check nosymm
 integral(ultrafinegrid)
 ----------------------------------------------------------------------

 ------------------------------------------------------
 Candidate Structure: Conf:156 Charge calc in gas phase
 ------------------------------------------------------
 Structure from the checkpoint file:  "conf-156.chk"
 Charge =  1 Multiplicity = 1

                          Input orientation:
 ---------------------------------------------------------------------
 Center     Atomic      Atomic             Coordinates (Angstroms)
 Number     Number       Type             X           Y           Z
 ---------------------------------------------------------------------
      1          7           0       -5.291821    1.814279    3.663694
      2          1           0       -5.369744    1.321348    4.556839
      3          1           0       -5.972916    2.577532    3.653461
      4          1           0       -5.475811    1.133885    2.844706
      5          6           0       -3.891723    2.249385    3.335210
      6          1           0       -3.221759    2.001849    4.160013
      7          1           0       -3.869888    3.326217    3.162683
      8          6           0       -3.559739    1.448449    2.046914
      9          8           0       -4.459648    0.707340    1.615106
     10          7           0       -2.362854    1.644089    1.532211
     11          1           0       -1.627577    2.135033    2.053401
     12          6           0       -1.787929    0.916239    0.397589
     13          1           0       -2.228758   -0.084524    0.367362
     14          6           0       -0.284849    0.838447    0.745660
     15          6           0       -1.987748    1.656186   -0.937807
     16          1           0       -1.474451    2.624074   -0.871297
     17          1           0       -1.459895    1.084460   -1.712709
     18          8           0        0.159005    1.497244    1.691247
     19          6           0       -3.443396    1.849497   -1.391504
     20          1           0       -3.998597    2.341211   -0.579722
     21          6           0       -3.466410    2.787339   -2.606213
     22          1           0       -2.903087    2.353756   -3.442169
     23          1           0       -4.491158    2.958812   -2.952348
     24          1           0       -3.020494    3.758833   -2.365519
     25          6           0       -4.134399    0.519283   -1.712747
     26          1           0       -3.598099   -0.011667   -2.509391
     27          1           0       -4.193459   -0.135474   -0.838331
     28          1           0       -5.158429    0.689652   -2.062261
     29          7           0        0.457443    0.047223   -0.042661
     30          1           0        0.066893   -0.366991   -0.883390
     31          6           0        1.915562    0.020094    0.005963
     32          1           0        2.236453    0.879540    0.601693
     33          6           0        2.371151    0.152591   -1.452594
     34          6           0        2.451397   -1.283829    0.653018
     35          1           0        2.123617   -2.113071    0.011060
     36          8           0        1.714858   -0.371166   -2.353607
     37          6           0        3.984494   -1.286648    0.714547
     38          1           0        4.356057   -0.439626    1.305752
     39          1           0        4.338405   -2.202262    1.198218
     40          1           0        4.448786   -1.233816   -0.273745
     41          6           0        1.852543   -1.475065    2.050882
     42          1           0        2.121772   -0.641544    2.709562
     43          1           0        2.230463   -2.399649    2.499151
     44          1           0        0.761115   -1.539519    2.016244
     45          7           0        3.493872    0.876856   -1.648801
     46          1           0        4.045478    1.156744   -0.844817
     47          6           0        4.205411    0.937455   -2.917155
     48          1           0        3.923052    0.064772   -3.514376
     49          6           0        5.689174    0.847722   -2.582820
     50          6           0        3.908360    2.221959   -3.724676
     51          1           0        4.066710    3.081386   -3.060683
     52          1           0        4.664985    2.293688   -4.511534
     53          8           0        6.142825    0.954040   -1.462255
     54          6           0        2.492515    2.261989   -4.352849
     55          1           0        1.992340    1.299452   -4.198754
     56          1           0        2.599334    2.381683   -5.436249
     57          6           0        1.583066    3.385665   -3.831543
     58          1           0        2.115044    4.347601   -3.868155
     59          1           0        0.725899    3.483724   -4.513047
     60          6           0        1.036780    3.148757   -2.418333
     61          1           0        0.548626    2.167693   -2.393911
     62          1           0        1.854692    3.100786   -1.691018
     63          7           0        0.071099    4.147196   -1.935752
     64          1           0        0.540931    5.045128   -1.820119
     65          1           0       -0.631589    4.301297   -2.659736
     66          8           0        6.440639    0.664830   -3.680029
     67          1           0        7.373537    0.646130   -3.391930
 ---------------------------------------------------------------------

 SCF Done:  E(RB3LYP) =  -1396.76814099     A.U. after    1 cycles

 Alpha  occ. eigenvalues --  -19.28162 -19.27988 -19.22562 -19.22198 -19.20344
 Alpha  occ. eigenvalues --  -14.61537 -14.49988 -14.45721 -14.44586 -14.38898
 Alpha  occ. eigenvalues --  -10.44840 -10.41986 -10.40444 -10.39166 -10.37342
 Alpha  occ. eigenvalues --  -10.34550 -10.31897 -10.31688 -10.27591 -10.27557
 Alpha  occ. eigenvalues --  -10.27418 -10.27375 -10.26407 -10.25250 -10.24994
 Alpha  occ. eigenvalues --  -10.24852 -10.24816 -10.24732 -10.24689  -1.20626
 Alpha  occ. eigenvalues --   -1.19093  -1.15166  -1.14232  -1.12278  -1.10168
 Alpha  occ. eigenvalues --   -1.06899  -1.02449  -1.01369  -0.95284  -0.92263
 Alpha  occ. eigenvalues --   -0.89610  -0.88906  -0.87217  -0.84975  -0.83253
 Alpha  occ. eigenvalues --   -0.79410  -0.76287  -0.76175  -0.76021  -0.75721
 Alpha  occ. eigenvalues --   -0.75582  -0.75239  -0.71932  -0.70646  -0.70066
 Alpha  occ. eigenvalues --   -0.68477  -0.67692  -0.66662  -0.65360  -0.64861
 Alpha  occ. eigenvalues --   -0.64736  -0.63759  -0.61934  -0.61698  -0.59477
 Alpha  occ. eigenvalues --   -0.58026  -0.57472  -0.57206  -0.56935  -0.56662
 Alpha  occ. eigenvalues --   -0.55348  -0.54803  -0.54272  -0.53913  -0.53428
 Alpha  occ. eigenvalues --   -0.53197  -0.52521  -0.51895  -0.51162  -0.50728
 Alpha  occ. eigenvalues --   -0.49668  -0.49626  -0.48953  -0.48469  -0.48137
 Alpha  occ. eigenvalues --   -0.47692  -0.47357  -0.47098  -0.46460  -0.46288
 Alpha  occ. eigenvalues --   -0.46006  -0.45400  -0.44795  -0.44528  -0.43092
 Alpha  occ. eigenvalues --   -0.42884  -0.42062  -0.41756  -0.41454  -0.41387
 Alpha  occ. eigenvalues --   -0.41163  -0.40914  -0.40862  -0.40620  -0.39863
 Alpha  occ. eigenvalues --   -0.39638  -0.39371  -0.36416  -0.36091  -0.35439
 Alpha  occ. eigenvalues --   -0.34008  -0.33598  -0.30922
 Alpha virt. eigenvalues --   -0.13140  -0.12887  -0.07842  -0.07480  -0.07397
 Alpha virt. eigenvalues --   -0.06097  -0.05644  -0.02171  -0.01821  -0.00735
 Alpha virt. eigenvalues --   -0.00223  -0.00040   0.00935   0.01703   0.02707

 Mulliken charges:
               1
     1  N   -0.752046
     2  H    0.421828
     3  H    0.421626
     4  H    0.440596
     5  C   -0.279266
     6  H    0.248182
     7  H    0.249286
     8  C    0.637851
     9  O   -0.531925
    10  N   -0.581432
    11  H    0.375878
    12  C   -0.091231
    13  H    0.193009
    14  C    0.645604
    15  C   -0.292071
    16  H    0.206538
    17  H    0.150619
    18  O   -0.549067
    19  C   -0.068824
    20  H    0.109946
    21  C   -0.452200
    22  H    0.150050
    23  H    0.154896
    24  H    0.148235
    25  C   -0.459036
    26  H    0.147900
    27  H    0.157781
    28  H    0.154006
    29  N   -0.610246
    30  H    0.359705
    31  C   -0.060314
    32  H    0.179726
    33  C    0.632627
    34  C   -0.074708
    35  H    0.147259
    36  O   -0.547748
    37  C   -0.468725
    38  H    0.150638
    39  H    0.165442
    40  H    0.159831
    41  C   -0.446004
    42  H    0.157539
    43  H    0.158473
    44  H    0.139434
    45  N   -0.597401
    46  H    0.358721
    47  C   -0.057767
    48  H    0.207320
    49  C    0.585692
    50  C   -0.270756
    51  H    0.148355
    52  H    0.175456
    53  O   -0.466831
    54  C   -0.287190
    55  H    0.176978
    56  H    0.150791
    57  C   -0.273040
    58  H    0.133246
    59  H    0.131453
    60  C   -0.156421
    61  H    0.144226
    62  H    0.143227
    63  N   -0.723971
    64  H    0.303839
    65  H    0.301166
    66  O   -0.554506
    67  H    0.427751
 Sum of Mulliken charges =   1.00000

 Dipole moment (field-independent basis, Debye):
    X=            -12.4842    Y=              9.7711    Z=              9.2825  Tot=             18.3711
 Quadrupole moment (field-independent basis, Debye-Ang):
   XX=            -50.8054   YY=           -144.3838   ZZ=           -107.1099
   XY=            -35.8259   XZ=            -86.2084   YZ=             12.6362

 Normal termination of Gaussian 16 at Tue Jul 12 17:42:39 2022.
