 Gaussian 16, Revision C.01,
 Gaussian 16:  ES64L-G16RevC.01  3-Jul-2019

 ----------------------------------------------------------------------
 # B3LYP/6-31G* empiricaldispersion=gd3bj guess=read geom=check nosymm
 integral(ultrafinegrid)
 ----------------------------------------------------------------------

 ------------------------------------------------------
 Candidate Structure: Conf:879 Charge calc in gas phase
 ------------------------------------------------------
 Structure from the checkpoint file:  "conf-879.chk"
 Charge =  1 Multiplicity = 1

                          Input orientation:
 ---------------------------------------------------------------------
 Center     Atomic      Atomic             Coordinates (Angstroms)
 Number     Number       Type             X           Y           Z
 ---------------------------------------------------------------------
      1          7           0       -5.708988    2.097830    3.365756
      2          1           0       -6.428245    2.793220    3.151891
      3          1           0       -5.793692    1.251276    2.698711
      4          1           0       -5.826814    1.796833    4.336474
      5          6           0       -4.314063    2.551212    3.039966
      6          1           0       -3.694345    2.520844    3.937263
      7          1           0       -4.337394    3.570510    2.651817
      8          6           0       -3.848468    1.528918    1.968212
      9          8           0       -4.672492    0.654667    1.645486
     10          7           0       -2.627293    1.676181    1.499213
     11          1           0       -1.975679    2.398807    1.824859
     12          6           0       -2.003209    0.811823    0.494100
     13          1           0       -2.194456   -0.230141    0.764581
     14          6           0       -0.502653    1.143784    0.622460
     15          6           0       -2.570116    1.113547   -0.911238
     16          1           0       -3.661061    1.023998   -0.838237
     17          1           0       -2.344660    2.161416   -1.145801
     18          8           0       -0.155187    2.178647    1.204308
     19          6           0       -2.082094    0.208204   -2.057990
     20          1           0       -1.000322    0.339316   -2.180413
     21          6           0       -2.361777   -1.277354   -1.792731
     22          1           0       -3.432617   -1.449685   -1.627317
     23          1           0       -2.049413   -1.882956   -2.648583
     24          1           0       -1.826361   -1.667286   -0.918472
     25          6           0       -2.750156    0.655198   -3.365088
     26          1           0       -3.838673    0.527955   -3.313249
     27          1           0       -2.543136    1.709552   -3.580514
     28          1           0       -2.384440    0.061286   -4.208711
     29          7           0        0.337305    0.267514    0.064963
     30          1           0        0.003678   -0.540138   -0.454546
     31          6           0        1.773192    0.478044   -0.048681
     32          1           0        1.954818    1.550593   -0.173707
     33          6           0        2.179826   -0.288226   -1.313375
     34          6           0        2.519457   -0.005326    1.229003
     35          1           0        2.042766    0.557630    2.041578
     36          8           0        1.469026   -1.191423   -1.756395
     37          6           0        2.323812   -1.504838    1.477778
     38          1           0        2.809886   -2.101150    0.699448
     39          1           0        2.766923   -1.784963    2.438975
     40          1           0        1.262616   -1.773675    1.507861
     41          6           0        4.008986    0.360256    1.206203
     42          1           0        4.561879   -0.273189    0.505391
     43          1           0        4.445560    0.202478    2.197436
     44          1           0        4.166513    1.415956    0.947699
     45          7           0        3.340298    0.083827   -1.901718
     46          1           0        3.951620    0.715805   -1.402549
     47          6           0        3.939177   -0.748366   -2.934721
     48          1           0        3.202454   -0.906860   -3.725792
     49          6           0        4.300923   -2.109829   -2.338669
     50          6           0        5.183283   -0.040513   -3.499972
     51          1           0        4.872189    0.968910   -3.797214
     52          1           0        5.919069    0.074154   -2.691431
     53          8           0        4.635920   -2.290389   -1.188137
     54          6           0        5.828674   -0.743343   -4.696950
     55          1           0        5.064874   -0.906668   -5.467394
     56          1           0        6.194330   -1.734373   -4.400125
     57          6           0        6.979849    0.075701   -5.288692
     58          1           0        6.597562    1.047026   -5.626855
     59          1           0        7.729872    0.271122   -4.509514
     60          6           0        7.664019   -0.613392   -6.472243
     61          1           0        8.466275    0.037005   -6.837801
     62          1           0        8.147957   -1.542677   -6.119432
     63          7           0        6.719992   -0.820460   -7.577347
     64          1           0        7.231379   -1.035045   -8.430870
     65          1           0        6.140181   -1.636554   -7.391448
     66          8           0        4.245327   -3.088783   -3.259612
     67          1           0        4.524692   -3.912231   -2.814984
 ---------------------------------------------------------------------

 SCF Done:  E(RB3LYP) =  -1396.76375163     A.U. after    1 cycles

 Alpha  occ. eigenvalues --  -19.28285 -19.27007 -19.22228 -19.21332 -19.20651
 Alpha  occ. eigenvalues --  -14.61664 -14.50292 -14.45613 -14.44658 -14.35776
 Alpha  occ. eigenvalues --  -10.45000 -10.42186 -10.39249 -10.39203 -10.37419
 Alpha  occ. eigenvalues --  -10.34835 -10.31865 -10.31399 -10.28649 -10.27605
 Alpha  occ. eigenvalues --  -10.27221 -10.26613 -10.25518 -10.25423 -10.25028
 Alpha  occ. eigenvalues --  -10.24611 -10.24412 -10.23903 -10.23164  -1.20769
 Alpha  occ. eigenvalues --   -1.17970  -1.15298  -1.14257  -1.12589  -1.08902
 Alpha  occ. eigenvalues --   -1.07085  -1.02549  -1.01333  -0.92600  -0.92461
 Alpha  occ. eigenvalues --   -0.89886  -0.88755  -0.86998  -0.84927  -0.82058
 Alpha  occ. eigenvalues --   -0.79398  -0.76939  -0.76190  -0.75713  -0.75580
 Alpha  occ. eigenvalues --   -0.75353  -0.75261  -0.72178  -0.71098  -0.69274
 Alpha  occ. eigenvalues --   -0.68177  -0.66819  -0.66402  -0.65397  -0.64121
 Alpha  occ. eigenvalues --   -0.63892  -0.62750  -0.61790  -0.61416  -0.59546
 Alpha  occ. eigenvalues --   -0.59120  -0.57471  -0.56913  -0.55755  -0.55220
 Alpha  occ. eigenvalues --   -0.55036  -0.54412  -0.54060  -0.53733  -0.53432
 Alpha  occ. eigenvalues --   -0.53054  -0.52161  -0.51870  -0.51514  -0.50842
 Alpha  occ. eigenvalues --   -0.50558  -0.49070  -0.48364  -0.47975  -0.47726
 Alpha  occ. eigenvalues --   -0.46774  -0.46707  -0.46297  -0.46118  -0.45413
 Alpha  occ. eigenvalues --   -0.45308  -0.45184  -0.44797  -0.43496  -0.43216
 Alpha  occ. eigenvalues --   -0.42848  -0.42549  -0.41604  -0.41372  -0.41063
 Alpha  occ. eigenvalues --   -0.40900  -0.40808  -0.39595  -0.39263  -0.39179
 Alpha  occ. eigenvalues --   -0.38702  -0.37809  -0.36475  -0.35873  -0.35130
 Alpha  occ. eigenvalues --   -0.34106  -0.33823  -0.28093
 Alpha virt. eigenvalues --   -0.13312  -0.13023  -0.08157  -0.07513  -0.06954
 Alpha virt. eigenvalues --   -0.05887  -0.05713  -0.02309  -0.01451  -0.00533
 Alpha virt. eigenvalues --   -0.00032   0.00811   0.01183   0.02395   0.02819

 Mulliken charges:
               1
     1  N   -0.752120
     2  H    0.422016
     3  H    0.440958
     4  H    0.422140
     5  C   -0.276256
     6  H    0.248006
     7  H    0.248059
     8  C    0.642723
     9  O   -0.535611
    10  N   -0.604052
    11  H    0.377114
    12  C   -0.069877
    13  H    0.194398
    14  C    0.627531
    15  C   -0.259783
    16  H    0.161823
    17  H    0.151453
    18  O   -0.552664
    19  C   -0.100087
    20  H    0.149053
    21  C   -0.456682
    22  H    0.151121
    23  H    0.175153
    24  H    0.136953
    25  C   -0.447867
    26  H    0.146326
    27  H    0.148865
    28  H    0.163988
    29  N   -0.624332
    30  H    0.383687
    31  C   -0.067883
    32  H    0.178375
    33  C    0.646942
    34  C   -0.067985
    35  H    0.153666
    36  O   -0.548828
    37  C   -0.469491
    38  H    0.189095
    39  H    0.156104
    40  H    0.134333
    41  C   -0.492570
    42  H    0.181789
    43  H    0.166630
    44  H    0.137905
    45  N   -0.610720
    46  H    0.345602
    47  C   -0.016391
    48  H    0.196205
    49  C    0.601183
    50  C   -0.309329
    51  H    0.163389
    52  H    0.152782
    53  O   -0.464649
    54  C   -0.272434
    55  H    0.153317
    56  H    0.143672
    57  C   -0.237207
    58  H    0.145957
    59  H    0.128793
    60  C   -0.148711
    61  H    0.147538
    62  H    0.118106
    63  N   -0.718025
    64  H    0.305360
    65  H    0.297481
    66  O   -0.552928
    67  H    0.420891
 Sum of Mulliken charges =   1.00000

 Dipole moment (field-independent basis, Debye):
    X=            -13.4822    Y=              7.5507    Z=              8.3917  Tot=             17.5842
 Quadrupole moment (field-independent basis, Debye-Ang):
   XX=            -25.9916   YY=           -145.4151   ZZ=           -109.3105
   XY=            -59.4373   XZ=            -94.1025   YZ=             40.2305

 Normal termination of Gaussian 16 at Tue Jul 12 17:42:45 2022.
