 Gaussian 16, Revision C.01,
 Gaussian 16:  ES64L-G16RevC.01  3-Jul-2019

 ----------------------------------------------------------------------
 # B3LYP/6-31G* empiricaldispersion=gd3bj guess=read geom=check nosymm
 integral(ultrafinegrid)
 ----------------------------------------------------------------------

 ------------------------------------------------------
 Candidate Structure: Conf:772 Charge calc in gas phase
 ------------------------------------------------------
 Structure from the checkpoint file:  "conf-772.chk"
 Charge =  1 Multiplicity = 1

                          Input orientation:
 ---------------------------------------------------------------------
 Center     Atomic      Atomic             Coordinates (Angstroms)
 Number     Number       Type             X           Y           Z
 ---------------------------------------------------------------------
      1          7           0       -4.863688    3.744837    1.147819
      2          1           0       -5.120226    4.012770    2.101445
      3          1           0       -5.324233    4.385057    0.495919
      4          1           0       -5.168265    2.728048    0.951083
      5          6           0       -3.381243    3.627212    0.932424
      6          1           0       -2.850772    3.901585    1.845388
      7          1           0       -3.071691    4.288983    0.122153
      8          6           0       -3.190777    2.130330    0.568450
      9          8           0       -4.220017    1.434360    0.534475
     10          7           0       -1.958609    1.726601    0.332676
     11          1           0       -1.144507    2.345390    0.375140
     12          6           0       -1.588704    0.360817   -0.049562
     13          1           0       -2.135325   -0.339266    0.586999
     14          6           0       -0.076268    0.304117    0.211996
     15          6           0       -1.915345    0.114839   -1.541756
     16          1           0       -2.981406    0.338040   -1.674215
     17          1           0       -1.351801    0.851330   -2.128029
     18          8           0        0.575690    1.352695    0.211738
     19          6           0       -1.631259   -1.298884   -2.081435
     20          1           0       -0.557989   -1.505474   -2.003667
     21          6           0       -2.402251   -2.381506   -1.313338
     22          1           0       -3.482884   -2.195048   -1.348344
     23          1           0       -2.217591   -3.366850   -1.752208
     24          1           0       -2.120850   -2.446066   -0.253431
     25          6           0       -1.989026   -1.342531   -3.572876
     26          1           0       -3.058534   -1.155303   -3.730868
     27          1           0       -1.427810   -0.590358   -4.138590
     28          1           0       -1.752448   -2.323440   -3.996759
     29          7           0        0.457071   -0.917552    0.406849
     30          1           0       -0.127015   -1.723372    0.225329
     31          6           0        1.905111   -1.127188    0.288782
     32          1           0        2.381030   -0.316234    0.845333
     33          6           0        2.240445   -0.996028   -1.207691
     34          6           0        2.340872   -2.469083    0.911930
     35          1           0        2.132202   -2.377257    1.986583
     36          8           0        1.776027   -1.774372   -2.042100
     37          6           0        1.579492   -3.691122    0.377470
     38          1           0        1.702121   -3.791470   -0.702806
     39          1           0        1.957815   -4.597029    0.861695
     40          1           0        0.504940   -3.647390    0.598265
     41          6           0        3.854071   -2.643861    0.726297
     42          1           0        4.105338   -2.785222   -0.330776
     43          1           0        4.204676   -3.524618    1.272475
     44          1           0        4.410811   -1.775100    1.095848
     45          7           0        3.007936    0.065302   -1.536917
     46          1           0        3.242616    0.766202   -0.843903
     47          6           0        3.159320    0.478376   -2.924391
     48          1           0        3.408206   -0.395533   -3.530809
     49          6           0        4.297151    1.481998   -2.957934
     50          6           0        1.843148    1.111033   -3.442015
     51          1           0        1.051102    0.397395   -3.192646
     52          1           0        1.653690    2.023070   -2.860615
     53          8           0        4.612252    2.175000   -2.013781
     54          6           0        1.792888    1.400421   -4.942733
     55          1           0        1.959984    0.464592   -5.493374
     56          1           0        2.605062    2.076672   -5.233434
     57          6           0        0.445561    2.004301   -5.349781
     58          1           0       -0.379419    1.368046   -5.002545
     59          1           0        0.317861    2.976109   -4.848366
     60          6           0        0.296845    2.193579   -6.858818
     61          1           0        1.157888    2.772482   -7.239898
     62          1           0        0.341834    1.212302   -7.346808
     63          7           0       -1.008444    2.787836   -7.169236
     64          1           0       -1.004303    3.770768   -6.897968
     65          1           0       -1.157918    2.781115   -8.176792
     66          8           0        4.889031    1.547465   -4.163513
     67          1           0        5.574989    2.240803   -4.106937
 ---------------------------------------------------------------------

 SCF Done:  E(RB3LYP) =  -1396.75999342     A.U. after    3 cycles

 Alpha  occ. eigenvalues --  -19.28708 -19.27852 -19.23256 -19.22160 -19.19483
 Alpha  occ. eigenvalues --  -14.62077 -14.50920 -14.46763 -14.44110 -14.37079
 Alpha  occ. eigenvalues --  -10.45481 -10.42615 -10.40136 -10.40021 -10.36661
 Alpha  occ. eigenvalues --  -10.35388 -10.31971 -10.31521 -10.28872 -10.27716
 Alpha  occ. eigenvalues --  -10.27325 -10.26629 -10.26425 -10.26008 -10.25056
 Alpha  occ. eigenvalues --  -10.24808 -10.24722 -10.24652 -10.24584  -1.21217
 Alpha  occ. eigenvalues --   -1.18818  -1.15793  -1.15140  -1.11592  -1.09827
 Alpha  occ. eigenvalues --   -1.07667  -1.03316  -1.00742  -0.93812  -0.92875
 Alpha  occ. eigenvalues --   -0.90166  -0.88923  -0.87460  -0.85280  -0.83057
 Alpha  occ. eigenvalues --   -0.79370  -0.77206  -0.76320  -0.76215  -0.76093
 Alpha  occ. eigenvalues --   -0.75911  -0.75721  -0.72496  -0.70985  -0.69534
 Alpha  occ. eigenvalues --   -0.68394  -0.67719  -0.65866  -0.65780  -0.64944
 Alpha  occ. eigenvalues --   -0.64828  -0.64497  -0.62231  -0.62083  -0.60109
 Alpha  occ. eigenvalues --   -0.58817  -0.57397  -0.57023  -0.56578  -0.56265
 Alpha  occ. eigenvalues --   -0.55256  -0.55220  -0.54543  -0.54231  -0.53590
 Alpha  occ. eigenvalues --   -0.52823  -0.52346  -0.51986  -0.51728  -0.51067
 Alpha  occ. eigenvalues --   -0.50921  -0.49964  -0.49498  -0.48627  -0.48225
 Alpha  occ. eigenvalues --   -0.47773  -0.46849  -0.46497  -0.46296  -0.46266
 Alpha  occ. eigenvalues --   -0.45374  -0.45226  -0.44862  -0.44234  -0.43924
 Alpha  occ. eigenvalues --   -0.43023  -0.42006  -0.41759  -0.41692  -0.41401
 Alpha  occ. eigenvalues --   -0.41314  -0.41143  -0.40609  -0.39916  -0.39843
 Alpha  occ. eigenvalues --   -0.39494  -0.38981  -0.37539  -0.36962  -0.35933
 Alpha  occ. eigenvalues --   -0.33541  -0.32250  -0.29384
 Alpha virt. eigenvalues --   -0.13744  -0.13382  -0.09267  -0.07910  -0.07396
 Alpha virt. eigenvalues --   -0.06349  -0.06029  -0.02927  -0.02618  -0.01743
 Alpha virt. eigenvalues --   -0.00786   0.00017   0.00579   0.01341   0.02026

 Mulliken charges:
               1
     1  N   -0.751580
     2  H    0.423094
     3  H    0.423155
     4  H    0.441599
     5  C   -0.276594
     6  H    0.248945
     7  H    0.248353
     8  C    0.644557
     9  O   -0.532720
    10  N   -0.601947
    11  H    0.375505
    12  C   -0.071404
    13  H    0.193382
    14  C    0.630936
    15  C   -0.264978
    16  H    0.160811
    17  H    0.155953
    18  O   -0.547869
    19  C   -0.124492
    20  H    0.182271
    21  C   -0.461937
    22  H    0.155475
    23  H    0.174217
    24  H    0.123156
    25  C   -0.459613
    26  H    0.145038
    27  H    0.164109
    28  H    0.165105
    29  N   -0.613808
    30  H    0.364077
    31  C   -0.052556
    32  H    0.170327
    33  C    0.631097
    34  C   -0.096773
    35  H    0.146040
    36  O   -0.537195
    37  C   -0.474208
    38  H    0.196554
    39  H    0.163123
    40  H    0.125310
    41  C   -0.463214
    42  H    0.169392
    43  H    0.166015
    44  H    0.149890
    45  N   -0.596703
    46  H    0.361046
    47  C   -0.027761
    48  H    0.199584
    49  C    0.583939
    50  C   -0.286119
    51  H    0.171969
    52  H    0.143699
    53  O   -0.466365
    54  C   -0.268260
    55  H    0.148170
    56  H    0.150546
    57  C   -0.259374
    58  H    0.149608
    59  H    0.117594
    60  C   -0.139127
    61  H    0.120728
    62  H    0.146725
    63  N   -0.720288
    64  H    0.290367
    65  H    0.304682
    66  O   -0.554418
    67  H    0.423163
 Sum of Mulliken charges =   1.00000

 Dipole moment (field-independent basis, Debye):
    X=            -12.8004    Y=             14.3718    Z=              1.1777  Tot=             19.2817
 Quadrupole moment (field-independent basis, Debye-Ang):
   XX=            -87.4392   YY=           -102.3838   ZZ=           -138.8302
   XY=            -65.2701   XZ=            -31.6382   YZ=             -1.7525

 Normal termination of Gaussian 16 at Tue Jul 12 17:43:23 2022.
