 Gaussian 16, Revision C.01,
 Gaussian 16:  ES64L-G16RevC.01  3-Jul-2019

 ----------------------------------------------------------------------
 # B3LYP/6-31G* empiricaldispersion=gd3bj guess=read geom=check nosymm
 integral(ultrafinegrid)
 ----------------------------------------------------------------------

 ------------------------------------------------------
 Candidate Structure: Conf:203 Charge calc in gas phase
 ------------------------------------------------------
 Structure from the checkpoint file:  "conf-203.chk"
 Charge =  1 Multiplicity = 1

                          Input orientation:
 ---------------------------------------------------------------------
 Center     Atomic      Atomic             Coordinates (Angstroms)
 Number     Number       Type             X           Y           Z
 ---------------------------------------------------------------------
      1          7           0       -6.021128    1.518091    3.496047
      2          1           0       -6.212185    1.044272    4.382761
      3          1           0       -6.681865    2.292661    3.393662
      4          1           0       -6.125409    0.825811    2.676284
      5          6           0       -4.583934    1.923573    3.327628
      6          1           0       -4.021786    1.682389    4.231066
      7          1           0       -4.522939    2.996570    3.140311
      8          6           0       -4.115412    1.091790    2.103328
      9          8           0       -4.968188    0.357207    1.577776
     10          7           0       -2.859365    1.246990    1.732362
     11          1           0       -2.187609    1.786559    2.286091
     12          6           0       -2.188368    0.502061    0.666634
     13          1           0       -2.642387   -0.488725    0.585543
     14          6           0       -0.717422    0.430409    1.113207
     15          6           0       -2.213455    1.248150   -0.685258
     16          1           0       -1.758581    2.232247   -0.515839
     17          1           0       -1.540424    0.718948   -1.370129
     18          8           0       -0.293505    1.237658    1.940575
     19          6           0       -3.579599    1.407140   -1.368024
     20          1           0       -4.263234    1.923579   -0.678582
     21          6           0       -3.402835    2.290251   -2.612402
     22          1           0       -2.712498    1.823071   -3.327020
     23          1           0       -4.355647    2.441216   -3.129876
     24          1           0       -3.011252    3.280940   -2.346454
     25          6           0       -4.197136    0.054604   -1.740948
     26          1           0       -3.523539   -0.510623   -2.396857
     27          1           0       -4.414962   -0.552951   -0.857402
     28          1           0       -5.140138    0.196672   -2.279229
     29          7           0        0.027525   -0.496449    0.472932
     30          1           0       -0.418598   -0.977605   -0.304748
     31          6           0        1.450955   -0.274159    0.194804
     32          1           0        1.791200    0.524832    0.859406
     33          6           0        1.469929    0.167094   -1.278839
     34          6           0        2.285668   -1.549653    0.431915
     35          1           0        1.864212   -2.329706   -0.217186
     36          8           0        0.707369   -0.371958   -2.084692
     37          6           0        3.750403   -1.330074    0.033503
     38          1           0        4.197845   -0.513824    0.615920
     39          1           0        4.335240   -2.232745    0.233953
     40          1           0        3.859553   -1.092172   -1.028975
     41          6           0        2.167464   -1.997931    1.891776
     42          1           0        2.592985   -1.244619    2.566192
     43          1           0        2.712299   -2.934302    2.048559
     44          1           0        1.123721   -2.157461    2.177740
     45          7           0        2.299598    1.171581   -1.623921
     46          1           0        2.860810    1.618768   -0.913762
     47          6           0        2.325153    1.699545   -2.990422
     48          1           0        2.882446    2.642692   -2.934439
     49          6           0        0.905054    2.075866   -3.435603
     50          6           0        3.019559    0.756846   -3.983033
     51          1           0        3.903512    0.348852   -3.477170
     52          1           0        2.349741   -0.081419   -4.195237
     53          8           0        0.431816    1.876118   -4.527037
     54          6           0        3.450893    1.443181   -5.283008
     55          1           0        4.105857    2.294997   -5.044483
     56          1           0        2.569870    1.850557   -5.789217
     57          6           0        4.190520    0.484128   -6.219144
     58          1           0        5.074459    0.065791   -5.721399
     59          1           0        3.534305   -0.366626   -6.455437
     60          6           0        4.638945    1.148763   -7.520395
     61          1           0        3.757505    1.591792   -8.020692
     62          1           0        5.313619    1.981855   -7.284249
     63          7           0        5.384011    0.195187   -8.346996
     64          1           0        4.751816   -0.531950   -8.680210
     65          1           0        5.737384    0.661458   -9.180684
     66          8           0        0.236442    2.747383   -2.461334
     67          1           0       -0.629821    2.973526   -2.849686
 ---------------------------------------------------------------------

 SCF Done:  E(RB3LYP) =  -1396.75507829     A.U. after    1 cycles

 Alpha  occ. eigenvalues --  -19.28917 -19.27187 -19.23265 -19.21476 -19.20951
 Alpha  occ. eigenvalues --  -14.62275 -14.51059 -14.46119 -14.45798 -14.34957
 Alpha  occ. eigenvalues --  -10.45710 -10.42768 -10.39975 -10.39679 -10.37858
 Alpha  occ. eigenvalues --  -10.35435 -10.32431 -10.32267 -10.28849 -10.28519
 Alpha  occ. eigenvalues --  -10.27859 -10.26280 -10.25619 -10.25348 -10.24955
 Alpha  occ. eigenvalues --  -10.24940 -10.24719 -10.23483 -10.22467  -1.21404
 Alpha  occ. eigenvalues --   -1.18127  -1.15947  -1.15150  -1.12999  -1.09071
 Alpha  occ. eigenvalues --   -1.07832  -1.03247  -1.01905  -0.93134  -0.91785
 Alpha  occ. eigenvalues --   -0.90434  -0.89454  -0.86799  -0.85799  -0.82124
 Alpha  occ. eigenvalues --   -0.79306  -0.77141  -0.76966  -0.76268  -0.76250
 Alpha  occ. eigenvalues --   -0.76011  -0.75116  -0.72673  -0.70908  -0.69180
 Alpha  occ. eigenvalues --   -0.68306  -0.67830  -0.66026  -0.65658  -0.64787
 Alpha  occ. eigenvalues --   -0.64166  -0.63501  -0.62720  -0.62464  -0.60355
 Alpha  occ. eigenvalues --   -0.59125  -0.58133  -0.57855  -0.56895  -0.55890
 Alpha  occ. eigenvalues --   -0.55277  -0.54360  -0.54267  -0.54174  -0.53124
 Alpha  occ. eigenvalues --   -0.52756  -0.52049  -0.51830  -0.51226  -0.50468
 Alpha  occ. eigenvalues --   -0.49893  -0.49438  -0.49020  -0.48712  -0.48253
 Alpha  occ. eigenvalues --   -0.47897  -0.47359  -0.47240  -0.46884  -0.45998
 Alpha  occ. eigenvalues --   -0.45865  -0.45596  -0.44494  -0.43926  -0.42894
 Alpha  occ. eigenvalues --   -0.42729  -0.42225  -0.42129  -0.41938  -0.41764
 Alpha  occ. eigenvalues --   -0.41309  -0.40688  -0.40280  -0.39612  -0.38973
 Alpha  occ. eigenvalues --   -0.38447  -0.37616  -0.37096  -0.36832  -0.35781
 Alpha  occ. eigenvalues --   -0.34286  -0.33581  -0.27210
 Alpha virt. eigenvalues --   -0.13915  -0.13519  -0.09235  -0.08100  -0.07560
 Alpha virt. eigenvalues --   -0.06495  -0.06222  -0.02908  -0.02536  -0.01862
 Alpha virt. eigenvalues --   -0.01278  -0.00161   0.00533   0.02148   0.02566

 Mulliken charges:
               1
     1  N   -0.751184
     2  H    0.423763
     3  H    0.423317
     4  H    0.441502
     5  C   -0.278765
     6  H    0.249573
     7  H    0.249311
     8  C    0.642196
     9  O   -0.529256
    10  N   -0.586641
    11  H    0.373195
    12  C   -0.092044
    13  H    0.194874
    14  C    0.620344
    15  C   -0.282060
    16  H    0.151572
    17  H    0.187525
    18  O   -0.530828
    19  C   -0.067094
    20  H    0.111804
    21  C   -0.469538
    22  H    0.170103
    23  H    0.165377
    24  H    0.136660
    25  C   -0.463796
    26  H    0.158798
    27  H    0.157550
    28  H    0.158590
    29  N   -0.583480
    30  H    0.355532
    31  C   -0.084534
    32  H    0.175439
    33  C    0.646497
    34  C   -0.079143
    35  H    0.150157
    36  O   -0.547347
    37  C   -0.471234
    38  H    0.141537
    39  H    0.171180
    40  H    0.165255
    41  C   -0.446869
    42  H    0.150218
    43  H    0.162799
    44  H    0.153219
    45  N   -0.599389
    46  H    0.344929
    47  C   -0.045194
    48  H    0.178783
    49  C    0.612498
    50  C   -0.258525
    51  H    0.142183
    52  H    0.181760
    53  O   -0.448909
    54  C   -0.280574
    55  H    0.124220
    56  H    0.169376
    57  C   -0.249670
    58  H    0.146894
    59  H    0.131466
    60  C   -0.134912
    61  H    0.115658
    62  H    0.137934
    63  N   -0.715827
    64  H    0.293975
    65  H    0.300417
    66  O   -0.588525
    67  H    0.417355
 Sum of Mulliken charges =   1.00000

 Dipole moment (field-independent basis, Debye):
    X=            -18.0517    Y=              8.5219    Z=             11.8451  Tot=             23.2119
 Quadrupole moment (field-independent basis, Debye-Ang):
   XX=            -42.5962   YY=           -151.4004   ZZ=           -111.6434
   XY=            -35.3762   XZ=            -81.3745   YZ=             13.5496

 Normal termination of Gaussian 16 at Tue Jul 12 17:42:45 2022.
