 Gaussian 16, Revision C.01,
 Gaussian 16:  ES64L-G16RevC.01  3-Jul-2019

 ----------------------------------------------------------------------
 # B3LYP/6-31G* empiricaldispersion=gd3bj guess=read geom=check nosymm
 integral(ultrafinegrid)
 ----------------------------------------------------------------------

 ------------------------------------------------------
 Candidate Structure: Conf:538 Charge calc in gas phase
 ------------------------------------------------------
 Structure from the checkpoint file:  "conf-538.chk"
 Charge =  1 Multiplicity = 1

                          Input orientation:
 ---------------------------------------------------------------------
 Center     Atomic      Atomic             Coordinates (Angstroms)
 Number     Number       Type             X           Y           Z
 ---------------------------------------------------------------------
      1          7           0       -4.855981    3.160505    3.136121
      2          1           0       -4.650655    3.378242    4.114956
      3          1           0       -5.663816    3.716895    2.843885
      4          1           0       -5.069396    2.112561    3.028947
      5          6           0       -3.667593    3.299454    2.226297
      6          1           0       -2.808849    3.664497    2.791982
      7          1           0       -3.897291    4.003152    1.424955
      8          6           0       -3.448715    1.859573    1.690008
      9          8           0       -4.241172    0.993564    2.091163
     10          7           0       -2.446240    1.694587    0.844889
     11          1           0       -1.746427    2.425795    0.693777
     12          6           0       -1.997018    0.405953    0.310081
     13          1           0       -2.293409   -0.378515    1.011073
     14          6           0       -0.463405    0.539626    0.254217
     15          6           0       -2.572686    0.129642   -1.094139
     16          1           0       -2.249513    0.944887   -1.753957
     17          1           0       -2.101894   -0.783180   -1.480795
     18          8           0        0.049066    1.668126    0.286988
     19          6           0       -4.102538   -0.028198   -1.151030
     20          1           0       -4.551319    0.858441   -0.680320
     21          6           0       -4.574948   -0.070158   -2.610341
     22          1           0       -4.222460   -0.973047   -3.120331
     23          1           0       -5.668868   -0.074638   -2.659273
     24          1           0       -4.216957    0.801343   -3.171998
     25          6           0       -4.580212   -1.272271   -0.391964
     26          1           0       -4.125214   -2.178045   -0.811571
     27          1           0       -4.345438   -1.224397    0.675654
     28          1           0       -5.666045   -1.381056   -0.480764
     29          7           0        0.229553   -0.600413    0.150161
     30          1           0       -0.271422   -1.475722    0.070338
     31          6           0        1.698805   -0.663019    0.082800
     32          1           0        2.060528    0.176839    0.685275
     33          6           0        2.168313   -0.433429   -1.373993
     34          6           0        2.215913   -1.981888    0.685224
     35          1           0        3.278231   -2.017629    0.420463
     36          8           0        2.667465   -1.318898   -2.057181
     37          6           0        2.084332   -1.964500    2.212834
     38          1           0        1.033683   -1.888300    2.520525
     39          1           0        2.487333   -2.886433    2.643585
     40          1           0        2.626445   -1.120908    2.654912
     41          6           0        1.553260   -3.229888    0.081548
     42          1           0        0.504844   -3.337363    0.397883
     43          1           0        2.067188   -4.128165    0.436936
     44          1           0        1.604997   -3.215749   -1.008559
     45          7           0        1.955679    0.834511   -1.812824
     46          1           0        1.547579    1.510489   -1.176069
     47          6           0        2.218526    1.219259   -3.186309
     48          1           0        2.892808    0.456253   -3.591020
     49          6           0        2.947039    2.552001   -3.294105
     50          6           0        0.937906    1.249184   -4.045133
     51          1           0        0.263835    2.024055   -3.651207
     52          1           0        1.219038    1.561889   -5.055606
     53          8           0        3.156367    3.114471   -4.343499
     54          6           0        0.216937   -0.098530   -4.071379
     55          1           0       -0.035023   -0.391041   -3.043076
     56          1           0        0.898006   -0.873913   -4.443840
     57          6           0       -1.063905   -0.081299   -4.908216
     58          1           0       -1.710732    0.745696   -4.573860
     59          1           0       -0.826621    0.122139   -5.961406
     60          6           0       -1.849879   -1.394310   -4.797810
     61          1           0       -1.231917   -2.230042   -5.147182
     62          1           0       -2.048019   -1.594329   -3.734577
     63          7           0       -3.124941   -1.450777   -5.513866
     64          1           0       -3.643781   -0.586822   -5.362366
     65          1           0       -2.956630   -1.501782   -6.517150
     66          8           0        3.329163    3.055072   -2.096623
     67          1           0        3.791765    3.891939   -2.294875
 ---------------------------------------------------------------------

 SCF Done:  E(RB3LYP) =  -1396.75672657     A.U. after    2 cycles

 Alpha  occ. eigenvalues --  -19.29678 -19.27037 -19.24603 -19.20836 -19.19401
 Alpha  occ. eigenvalues --  -14.62994 -14.51873 -14.48388 -14.43447 -14.37533
 Alpha  occ. eigenvalues --  -10.46501 -10.43451 -10.41408 -10.39154 -10.36654
 Alpha  occ. eigenvalues --  -10.36606 -10.32561 -10.30970 -10.30228 -10.29157
 Alpha  occ. eigenvalues --  -10.27786 -10.27162 -10.26325 -10.26065 -10.26035
 Alpha  occ. eigenvalues --  -10.25548 -10.25219 -10.25176 -10.24891  -1.22166
 Alpha  occ. eigenvalues --   -1.17790  -1.16814  -1.16283  -1.11403  -1.08696
 Alpha  occ. eigenvalues --   -1.08653  -1.04680  -1.00402  -0.94374  -0.93982
 Alpha  occ. eigenvalues --   -0.91076  -0.89578  -0.87311  -0.86377  -0.83239
 Alpha  occ. eigenvalues --   -0.79815  -0.77997  -0.77324  -0.76915  -0.76708
 Alpha  occ. eigenvalues --   -0.76501  -0.76136  -0.73764  -0.71318  -0.69723
 Alpha  occ. eigenvalues --   -0.69259  -0.67632  -0.66830  -0.66461  -0.66025
 Alpha  occ. eigenvalues --   -0.65687  -0.64902  -0.63322  -0.61837  -0.60972
 Alpha  occ. eigenvalues --   -0.60310  -0.58759  -0.57643  -0.57198  -0.56545
 Alpha  occ. eigenvalues --   -0.55780  -0.55178  -0.54909  -0.54633  -0.53848
 Alpha  occ. eigenvalues --   -0.52981  -0.52913  -0.52502  -0.51671  -0.51318
 Alpha  occ. eigenvalues --   -0.50969  -0.49991  -0.49704  -0.49350  -0.49294
 Alpha  occ. eigenvalues --   -0.48389  -0.47523  -0.47060  -0.46788  -0.46317
 Alpha  occ. eigenvalues --   -0.46091  -0.45474  -0.45206  -0.44579  -0.43907
 Alpha  occ. eigenvalues --   -0.43369  -0.42747  -0.42529  -0.42446  -0.42181
 Alpha  occ. eigenvalues --   -0.41717  -0.41576  -0.41243  -0.41186  -0.40695
 Alpha  occ. eigenvalues --   -0.39670  -0.38797  -0.38591  -0.38287  -0.35476
 Alpha  occ. eigenvalues --   -0.32618  -0.32276  -0.29577
 Alpha virt. eigenvalues --   -0.14704  -0.14133  -0.10250  -0.08720  -0.07228
 Alpha virt. eigenvalues --   -0.06118  -0.06066  -0.03905  -0.03543  -0.02792
 Alpha virt. eigenvalues --   -0.01922  -0.00461   0.00420   0.00715   0.01348

 Mulliken charges:
               1
     1  N   -0.750300
     2  H    0.425312
     3  H    0.425236
     4  H    0.441816
     5  C   -0.279610
     6  H    0.250736
     7  H    0.251217
     8  C    0.638658
     9  O   -0.524274
    10  N   -0.583743
    11  H    0.374525
    12  C   -0.092722
    13  H    0.196353
    14  C    0.647632
    15  C   -0.265336
    16  H    0.157165
    17  H    0.165645
    18  O   -0.562928
    19  C   -0.073085
    20  H    0.111066
    21  C   -0.470864
    22  H    0.191225
    23  H    0.159213
    24  H    0.139056
    25  C   -0.463240
    26  H    0.153678
    27  H    0.156332
    28  H    0.162652
    29  N   -0.605766
    30  H    0.354057
    31  C   -0.077825
    32  H    0.186623
    33  C    0.631624
    34  C   -0.093294
    35  H    0.174949
    36  O   -0.511197
    37  C   -0.450898
    38  H    0.128969
    39  H    0.168114
    40  H    0.151978
    41  C   -0.482284
    42  H    0.117175
    43  H    0.172464
    44  H    0.198324
    45  N   -0.617456
    46  H    0.365311
    47  C   -0.069819
    48  H    0.221518
    49  C    0.591795
    50  C   -0.258369
    51  H    0.122452
    52  H    0.181490
    53  O   -0.452095
    54  C   -0.267620
    55  H    0.117121
    56  H    0.163717
    57  C   -0.267147
    58  H    0.113013
    59  H    0.143616
    60  C   -0.147610
    61  H    0.155370
    62  H    0.122437
    63  N   -0.710482
    64  H    0.294376
    65  H    0.305735
    66  O   -0.570580
    67  H    0.418803
 Sum of Mulliken charges =   1.00000

 Dipole moment (field-independent basis, Debye):
    X=            -17.4835    Y=             13.1749    Z=             10.8353  Tot=             24.4265
 Quadrupole moment (field-independent basis, Debye-Ang):
   XX=            -93.8815   YY=           -124.8567   ZZ=           -134.6803
   XY=            -62.2547   XZ=            -38.8846   YZ=             35.8222

 Normal termination of Gaussian 16 at Tue Jul 12 17:43:02 2022.
