 Gaussian 16, Revision C.01,
 Gaussian 16:  ES64L-G16RevC.01  3-Jul-2019

 ----------------------------------------------------------------------
 # B3LYP/6-31G* empiricaldispersion=gd3bj guess=read geom=check nosymm
 integral(ultrafinegrid)
 ----------------------------------------------------------------------

 ------------------------------------------------------
 Candidate Structure: Conf:549 Charge calc in gas phase
 ------------------------------------------------------
 Structure from the checkpoint file:  "conf-549.chk"
 Charge =  1 Multiplicity = 1

                          Input orientation:
 ---------------------------------------------------------------------
 Center     Atomic      Atomic             Coordinates (Angstroms)
 Number     Number       Type             X           Y           Z
 ---------------------------------------------------------------------
      1          7           0       -5.656437    0.358547    3.963664
      2          1           0       -5.768789   -0.414752    4.624284
      3          1           0       -6.350746    1.076968    4.184193
      4          1           0       -5.789275    0.005989    2.952622
      5          6           0       -4.250273    0.882149    3.882466
      6          1           0       -3.617632    0.361579    4.603038
      7          1           0       -4.240925    1.951043    4.099952
      8          6           0       -3.838535    0.583485    2.415422
      9          8           0       -4.698911    0.039057    1.703185
     10          7           0       -2.620456    0.946581    2.064890
     11          1           0       -1.922541    1.244054    2.756243
     12          6           0       -1.977799    0.657034    0.780938
     13          1           0       -2.397078   -0.268937    0.378816
     14          6           0       -0.490324    0.471867    1.148945
     15          6           0       -2.127724    1.813788   -0.226677
     16          1           0       -1.716886    2.716351    0.244005
     17          1           0       -1.483004    1.593853   -1.087694
     18          8           0       -0.081361    0.858855    2.248571
     19          6           0       -3.554822    2.085596   -0.730528
     20          1           0       -4.202473    2.259055    0.140858
     21          6           0       -3.555364    3.362708   -1.581113
     22          1           0       -2.918583    3.241033   -2.465813
     23          1           0       -4.565996    3.598853   -1.930149
     24          1           0       -3.182115    4.224143   -1.015417
     25          6           0       -4.120739    0.900941   -1.522704
     26          1           0       -3.476973    0.664201   -2.379080
     27          1           0       -4.223511    0.003246   -0.905870
     28          1           0       -5.114743    1.141303   -1.914370
     29          7           0        0.263740   -0.088555    0.195885
     30          1           0       -0.115521   -0.248080   -0.735514
     31          6           0        1.722890   -0.094077    0.204957
     32          1           0        2.058657    0.630333    0.953853
     33          6           0        2.109538    0.354601   -1.216203
     34          6           0        2.294192   -1.494670    0.555578
     35          1           0        1.973437   -2.177041   -0.243812
     36          8           0        1.341815    0.139950   -2.158511
     37          6           0        3.827788   -1.485515    0.607971
     38          1           0        4.190996   -0.765447    1.353027
     39          1           0        4.197190   -2.472422    0.903118
     40          1           0        4.282930   -1.237316   -0.354121
     41          6           0        1.715057   -1.990670    1.885876
     42          1           0        1.970212   -1.306902    2.703270
     43          1           0        2.121180   -2.978330    2.127217
     44          1           0        0.625439   -2.075481    1.844758
     45          7           0        3.296913    0.970165   -1.347692
     46          1           0        3.926945    1.070823   -0.559807
     47          6           0        3.848384    1.336554   -2.643912
     48          1           0        3.638287    0.530942   -3.355541
     49          6           0        5.352657    1.446102   -2.455582
     50          6           0        3.260388    2.650090   -3.202031
     51          1           0        3.715118    2.818353   -4.182442
     52          1           0        2.188545    2.483400   -3.356703
     53          8           0        5.910050    1.399271   -1.377900
     54          6           0        3.497989    3.855770   -2.290682
     55          1           0        4.575068    4.002205   -2.154469
     56          1           0        3.070173    3.652326   -1.300710
     57          6           0        2.897881    5.156571   -2.838830
     58          1           0        1.809472    5.054630   -2.950315
     59          1           0        3.057261    5.954916   -2.100213
     60          6           0        3.486443    5.600341   -4.183600
     61          1           0        3.221326    4.874341   -4.961292
     62          1           0        3.012342    6.553510   -4.475959
     63          7           0        4.951144    5.656048   -4.116221
     64          1           0        5.330867    5.889740   -5.031672
     65          1           0        5.234419    6.412364   -3.493601
     66          8           0        5.987179    1.625902   -3.622319
     67          1           0        6.934864    1.746108   -3.421730
 ---------------------------------------------------------------------

 SCF Done:  E(RB3LYP) =  -1396.76451903     A.U. after    1 cycles

 Alpha  occ. eigenvalues --  -19.28533 -19.27070 -19.22407 -19.21699 -19.19951
 Alpha  occ. eigenvalues --  -14.61896 -14.50465 -14.45601 -14.44059 -14.36562
 Alpha  occ. eigenvalues --  -10.45264 -10.42352 -10.39604 -10.39299 -10.36979
 Alpha  occ. eigenvalues --  -10.34966 -10.31720 -10.31053 -10.28828 -10.28045
 Alpha  occ. eigenvalues --  -10.27427 -10.26000 -10.25396 -10.25336 -10.24917
 Alpha  occ. eigenvalues --  -10.24698 -10.24626 -10.23823 -10.23710  -1.20999
 Alpha  occ. eigenvalues --   -1.18240  -1.15523  -1.14371  -1.11932  -1.09327
 Alpha  occ. eigenvalues --   -1.07297  -1.02531  -1.00771  -0.93310  -0.92711
 Alpha  occ. eigenvalues --   -0.89972  -0.88871  -0.86511  -0.85265  -0.82180
 Alpha  occ. eigenvalues --   -0.79316  -0.76813  -0.76367  -0.75908  -0.75707
 Alpha  occ. eigenvalues --   -0.75601  -0.75169  -0.72116  -0.70248  -0.69859
 Alpha  occ. eigenvalues --   -0.68358  -0.67769  -0.65816  -0.65322  -0.65210
 Alpha  occ. eigenvalues --   -0.64110  -0.62292  -0.62086  -0.61713  -0.59798
 Alpha  occ. eigenvalues --   -0.57909  -0.57447  -0.56879  -0.56285  -0.55329
 Alpha  occ. eigenvalues --   -0.54913  -0.54303  -0.54075  -0.53814  -0.53718
 Alpha  occ. eigenvalues --   -0.52491  -0.52263  -0.51890  -0.51429  -0.50519
 Alpha  occ. eigenvalues --   -0.49806  -0.49488  -0.48379  -0.48203  -0.47959
 Alpha  occ. eigenvalues --   -0.47678  -0.47089  -0.46612  -0.46383  -0.46155
 Alpha  occ. eigenvalues --   -0.45448  -0.45170  -0.44655  -0.43473  -0.42903
 Alpha  occ. eigenvalues --   -0.42889  -0.42360  -0.41831  -0.41613  -0.41381
 Alpha  occ. eigenvalues --   -0.41291  -0.40848  -0.39842  -0.39742  -0.39354
 Alpha  occ. eigenvalues --   -0.38488  -0.37875  -0.36527  -0.35633  -0.35216
 Alpha  occ. eigenvalues --   -0.33701  -0.33270  -0.28811
 Alpha virt. eigenvalues --   -0.13531  -0.13185  -0.08053  -0.07663  -0.06606
 Alpha virt. eigenvalues --   -0.06040  -0.05471  -0.02511  -0.02088  -0.00164
 Alpha virt. eigenvalues --    0.00497   0.01053   0.01528   0.01743   0.02367

 Mulliken charges:
               1
     1  N   -0.751543
     2  H    0.422888
     3  H    0.422562
     4  H    0.440924
     5  C   -0.278787
     6  H    0.249211
     7  H    0.249190
     8  C    0.639055
     9  O   -0.529915
    10  N   -0.585978
    11  H    0.374200
    12  C   -0.090013
    13  H    0.195693
    14  C    0.630859
    15  C   -0.263356
    16  H    0.151964
    17  H    0.167870
    18  O   -0.547827
    19  C   -0.071131
    20  H    0.113454
    21  C   -0.447013
    22  H    0.156546
    23  H    0.156850
    24  H    0.145296
    25  C   -0.460970
    26  H    0.152178
    27  H    0.157321
    28  H    0.157649
    29  N   -0.603348
    30  H    0.363215
    31  C   -0.067851
    32  H    0.177586
    33  C    0.626167
    34  C   -0.071798
    35  H    0.145247
    36  O   -0.549296
    37  C   -0.471043
    38  H    0.150252
    39  H    0.165643
    40  H    0.162366
    41  C   -0.444597
    42  H    0.158766
    43  H    0.157395
    44  H    0.138931
    45  N   -0.609062
    46  H    0.362739
    47  C   -0.041192
    48  H    0.199019
    49  C    0.594308
    50  C   -0.275490
    51  H    0.178231
    52  H    0.161574
    53  O   -0.475256
    54  C   -0.258122
    55  H    0.165876
    56  H    0.123688
    57  C   -0.267250
    58  H    0.128685
    59  H    0.132646
    60  C   -0.139890
    61  H    0.143486
    62  H    0.124050
    63  N   -0.719450
    64  H    0.305287
    65  H    0.297205
    66  O   -0.552929
    67  H    0.427035
 Sum of Mulliken charges =   1.00000

 Dipole moment (field-independent basis, Debye):
    X=            -14.8494    Y=              5.7761    Z=             11.8033  Tot=             19.8289
 Quadrupole moment (field-independent basis, Debye-Ang):
   XX=            -39.9183   YY=           -143.5404   ZZ=            -97.3635
   XY=              0.4186   XZ=           -102.6812   YZ=            -10.8604

 Normal termination of Gaussian 16 at Tue Jul 12 17:42:44 2022.
