 Gaussian 16, Revision C.01,
 Gaussian 16:  ES64L-G16RevC.01  3-Jul-2019

 ----------------------------------------------------------------------
 # B3LYP/6-31G* empiricaldispersion=gd3bj guess=read geom=check nosymm
 integral(ultrafinegrid)
 ----------------------------------------------------------------------

 ------------------------------------------------------
 Candidate Structure: Conf:448 Charge calc in gas phase
 ------------------------------------------------------
 Structure from the checkpoint file:  "conf-448.chk"
 Charge =  1 Multiplicity = 1

                          Input orientation:
 ---------------------------------------------------------------------
 Center     Atomic      Atomic             Coordinates (Angstroms)
 Number     Number       Type             X           Y           Z
 ---------------------------------------------------------------------
      1          7           0       -1.540126    2.259115    3.962126
      2          1           0       -1.233075    3.075761    4.497787
      3          1           0       -1.235132    1.398278    4.433468
      4          1           0       -1.108592    2.232016    2.989245
      5          6           0       -3.037376    2.179718    3.769642
      6          1           0       -3.375552    3.130249    3.354911
      7          1           0       -3.510664    1.988482    4.733019
      8          6           0       -3.136509    0.975516    2.822026
      9          8           0       -2.706014   -0.095651    3.224349
     10          7           0       -3.490716    1.241620    1.538979
     11          1           0       -3.694499    2.209088    1.317507
     12          6           0       -2.766850    0.526639    0.492346
     13          1           0       -2.841288   -0.540759    0.709461
     14          6           0       -1.269243    0.930559    0.594604
     15          6           0       -3.361735    0.835466   -0.888644
     16          1           0       -3.220765    1.904811   -1.103101
     17          1           0       -2.779429    0.297340   -1.646125
     18          8           0       -0.867237    1.804377    1.395371
     19          6           0       -4.847212    0.462178   -1.042752
     20          1           0       -5.421554    1.036910   -0.302527
     21          6           0       -5.331391    0.866490   -2.440840
     22          1           0       -4.797320    0.304772   -3.216957
     23          1           0       -6.399963    0.659459   -2.556438
     24          1           0       -5.172838    1.934496   -2.629791
     25          6           0       -5.095302   -1.028521   -0.783151
     26          1           0       -4.490298   -1.649493   -1.456006
     27          1           0       -4.863890   -1.316754    0.248131
     28          1           0       -6.146264   -1.277591   -0.960492
     29          7           0       -0.456568    0.297438   -0.240932
     30          1           0       -0.800024   -0.392080   -0.908875
     31          6           0        0.982374    0.510434   -0.341620
     32          1           0        1.179813    1.586629   -0.297676
     33          6           0        1.353371   -0.053634   -1.720904
     34          6           0        1.740856   -0.188659    0.825139
     35          1           0        1.288714    0.236933    1.730362
     36          8           0        0.621408   -0.876438   -2.270907
     37          6           0        1.525657   -1.706153    0.829474
     38          1           0        1.986331   -2.172253   -0.046452
     39          1           0        1.985724   -2.144121    1.721064
     40          1           0        0.461964   -1.965333    0.842177
     41          6           0        3.235080    0.157984    0.830231
     42          1           0        3.761781   -0.356262    0.020752
     43          1           0        3.689177   -0.170944    1.770268
     44          1           0        3.405476    1.239919    0.747399
     45          7           0        2.500688    0.399176   -2.273279
     46          1           0        3.126464    0.949016   -1.700043
     47          6           0        3.079561   -0.274921   -3.427678
     48          1           0        2.321908   -0.328626   -4.211353
     49          6           0        3.465401   -1.701125   -3.034058
     50          6           0        4.306478    0.522537   -3.911535
     51          1           0        3.963197    1.547511   -4.101899
     52          1           0        5.028027    0.570944   -3.083987
     53          8           0        3.806566   -2.039701   -1.921169
     54          6           0        4.998426   -0.025560   -5.163412
     55          1           0        5.415120   -1.019459   -4.958368
     56          1           0        5.847118    0.624157   -5.398125
     57          6           0        4.097606   -0.101016   -6.400159
     58          1           0        3.332039   -0.875906   -6.274002
     59          1           0        3.563766    0.853938   -6.526382
     60          6           0        4.889117   -0.399904   -7.677801
     61          1           0        5.455521   -1.329163   -7.537190
     62          1           0        4.180714   -0.584972   -8.503600
     63          7           0        5.854271    0.671100   -7.949941
     64          1           0        6.482388    0.392854   -8.701067
     65          1           0        5.361548    1.497788   -8.285910
     66          8           0        3.418931   -2.538473   -4.084536
     67          1           0        3.716308   -3.413270   -3.767970
 ---------------------------------------------------------------------

 SCF Done:  E(RB3LYP) =  -1396.76889248     A.U. after    1 cycles

 Alpha  occ. eigenvalues --  -19.27827 -19.26368 -19.25576 -19.22184 -19.21955
 Alpha  occ. eigenvalues --  -14.60248 -14.49816 -14.48040 -14.45864 -14.36470
 Alpha  occ. eigenvalues --  -10.43781 -10.41871 -10.40752 -10.40097 -10.38789
 Alpha  occ. eigenvalues --  -10.35775 -10.33784 -10.32164 -10.30077 -10.29060
 Alpha  occ. eigenvalues --  -10.28608 -10.27188 -10.26153 -10.26094 -10.25980
 Alpha  occ. eigenvalues --  -10.25740 -10.25239 -10.24245 -10.23914  -1.19332
 Alpha  occ. eigenvalues --   -1.18803  -1.16437  -1.14305  -1.13964  -1.09750
 Alpha  occ. eigenvalues --   -1.06757  -1.04792  -1.02548  -0.93271  -0.92647
 Alpha  occ. eigenvalues --   -0.90390  -0.89314  -0.87806  -0.85457  -0.82639
 Alpha  occ. eigenvalues --   -0.80645  -0.77191  -0.76928  -0.76422  -0.76128
 Alpha  occ. eigenvalues --   -0.75086  -0.73596  -0.72898  -0.71893  -0.70957
 Alpha  occ. eigenvalues --   -0.68379  -0.67554  -0.67095  -0.65649  -0.64926
 Alpha  occ. eigenvalues --   -0.64788  -0.63512  -0.62640  -0.60911  -0.60092
 Alpha  occ. eigenvalues --   -0.59356  -0.58033  -0.57590  -0.56913  -0.56562
 Alpha  occ. eigenvalues --   -0.55862  -0.55488  -0.55044  -0.54565  -0.54186
 Alpha  occ. eigenvalues --   -0.53678  -0.53342  -0.52564  -0.51573  -0.51336
 Alpha  occ. eigenvalues --   -0.51232  -0.50008  -0.49593  -0.49266  -0.49125
 Alpha  occ. eigenvalues --   -0.48364  -0.48289  -0.47355  -0.47005  -0.46979
 Alpha  occ. eigenvalues --   -0.46198  -0.45996  -0.45817  -0.44116  -0.43531
 Alpha  occ. eigenvalues --   -0.43175  -0.42579  -0.42515  -0.42170  -0.42110
 Alpha  occ. eigenvalues --   -0.41980  -0.40974  -0.39980  -0.39926  -0.39759
 Alpha  occ. eigenvalues --   -0.38989  -0.38879  -0.38526  -0.37879  -0.36418
 Alpha  occ. eigenvalues --   -0.35715  -0.34962  -0.28694
 Alpha virt. eigenvalues --   -0.14598  -0.10989  -0.09702  -0.08158  -0.06858
 Alpha virt. eigenvalues --   -0.06007  -0.04572  -0.02334  -0.01682  -0.01392
 Alpha virt. eigenvalues --   -0.00070   0.00150   0.00836   0.01593   0.02230

 Mulliken charges:
               1
     1  N   -0.754749
     2  H    0.412964
     3  H    0.421978
     4  H    0.458975
     5  C   -0.265997
     6  H    0.216056
     7  H    0.244690
     8  C    0.589673
     9  O   -0.480381
    10  N   -0.547966
    11  H    0.340031
    12  C   -0.092797
    13  H    0.220002
    14  C    0.666370
    15  C   -0.297632
    16  H    0.145482
    17  H    0.168271
    18  O   -0.620072
    19  C   -0.070888
    20  H    0.132164
    21  C   -0.447735
    22  H    0.155452
    23  H    0.164730
    24  H    0.146483
    25  C   -0.460628
    26  H    0.152486
    27  H    0.152240
    28  H    0.168696
    29  N   -0.602861
    30  H    0.378761
    31  C   -0.058309
    32  H    0.172801
    33  C    0.644439
    34  C   -0.068543
    35  H    0.131097
    36  O   -0.542711
    37  C   -0.469962
    38  H    0.194607
    39  H    0.158407
    40  H    0.141397
    41  C   -0.492485
    42  H    0.191624
    43  H    0.166565
    44  H    0.133617
    45  N   -0.610553
    46  H    0.344218
    47  C   -0.020566
    48  H    0.202378
    49  C    0.604124
    50  C   -0.315047
    51  H    0.159825
    52  H    0.150058
    53  O   -0.466694
    54  C   -0.258939
    55  H    0.140860
    56  H    0.183353
    57  C   -0.264896
    58  H    0.147147
    59  H    0.123074
    60  C   -0.143688
    61  H    0.143778
    62  H    0.124833
    63  N   -0.715812
    64  H    0.306992
    65  H    0.296091
    66  O   -0.550287
    67  H    0.423406
 Sum of Mulliken charges =   1.00000

 Dipole moment (field-independent basis, Debye):
    X=             -4.5383    Y=              9.4647    Z=              5.5320  Tot=             11.8651
 Quadrupole moment (field-independent basis, Debye-Ang):
   XX=           -125.7891   YY=           -144.5701   ZZ=            -80.4898
   XY=            -23.4019   XZ=            -42.5053   YZ=             36.6625

 Normal termination of Gaussian 16 at Tue Jul 12 17:42:45 2022.
