 Gaussian 16, Revision C.01,
 Gaussian 16:  ES64L-G16RevC.01  3-Jul-2019

 ----------------------------------------------------------------------
 # B3LYP/6-31G* empiricaldispersion=gd3bj guess=read geom=check nosymm
 integral(ultrafinegrid)
 ----------------------------------------------------------------------

 ------------------------------------------------------
 Candidate Structure: Conf:428 Charge calc in gas phase
 ------------------------------------------------------
 Structure from the checkpoint file:  "conf-428.chk"
 Charge =  1 Multiplicity = 1

                          Input orientation:
 ---------------------------------------------------------------------
 Center     Atomic      Atomic             Coordinates (Angstroms)
 Number     Number       Type             X           Y           Z
 ---------------------------------------------------------------------
      1          7           0       -1.807482    1.649663    3.807930
      2          1           0       -1.619796    2.247667    4.617507
      3          1           0       -1.766751    0.662008    4.089215
      4          1           0       -1.068175    1.764203    3.048777
      5          6           0       -3.151278    1.903573    3.161759
      6          1           0       -3.231910    2.972172    2.958191
      7          1           0       -3.939304    1.580225    3.842299
      8          6           0       -3.046007    1.005270    1.921565
      9          8           0       -2.879770   -0.193148    2.106023
     10          7           0       -2.899732    1.628522    0.725358
     11          1           0       -2.916803    2.641283    0.733757
     12          6           0       -1.921449    1.047564   -0.194264
     13          1           0       -2.265528    0.053541   -0.486199
     14          6           0       -0.583590    0.916546    0.572773
     15          6           0       -1.734453    1.947698   -1.422666
     16          1           0       -1.393581    2.933974   -1.075064
     17          1           0       -0.909938    1.538498   -2.017607
     18          8           0       -0.327619    1.636508    1.563320
     19          6           0       -2.974004    2.100939   -2.320996
     20          1           0       -3.810281    2.457267   -1.702482
     21          6           0       -2.689965    3.157029   -3.396944
     22          1           0       -1.845895    2.851917   -4.027478
     23          1           0       -3.560417    3.296690   -4.045699
     24          1           0       -2.441361    4.127671   -2.952623
     25          6           0       -3.382912    0.766051   -2.954731
     26          1           0       -2.561466    0.351729   -3.553831
     27          1           0       -3.666574    0.016727   -2.207486
     28          1           0       -4.241967    0.901748   -3.619045
     29          7           0        0.270430    0.030476    0.075741
     30          1           0        0.044077   -0.511920   -0.756019
     31          6           0        1.641273   -0.173975    0.536608
     32          1           0        1.980976    0.752772    1.008322
     33          6           0        2.420183   -0.488365   -0.752775
     34          6           0        1.743898   -1.348811    1.544216
     35          1           0        1.429036   -2.250390    1.002618
     36          8           0        1.881658   -1.183899   -1.616687
     37          6           0        3.192311   -1.536864    2.013138
     38          1           0        3.565051   -0.633250    2.512849
     39          1           0        3.252388   -2.359751    2.731725
     40          1           0        3.867792   -1.769263    1.185401
     41          6           0        0.804552   -1.150136    2.740938
     42          1           0        1.067298   -0.236701    3.289495
     43          1           0        0.898385   -1.996433    3.428962
     44          1           0       -0.242822   -1.088175    2.428980
     45          7           0        3.655607    0.030159   -0.842048
     46          1           0        4.029269    0.617290   -0.103532
     47          6           0        4.549800   -0.168691   -1.977176
     48          1           0        4.794781   -1.234276   -2.069057
     49          6           0        5.828991    0.578281   -1.628672
     50          6           0        3.949198    0.304571   -3.317923
     51          1           0        4.686783    0.106223   -4.101830
     52          1           0        3.088600   -0.336993   -3.513892
     53          8           0        5.974056    1.251218   -0.628583
     54          6           0        3.541112    1.782824   -3.336025
     55          1           0        4.437242    2.409346   -3.424485
     56          1           0        3.072096    2.051778   -2.379324
     57          6           0        2.566896    2.098721   -4.480139
     58          1           0        2.544025    3.182563   -4.656070
     59          1           0        2.911477    1.638694   -5.413957
     60          6           0        1.140933    1.614311   -4.198075
     61          1           0        1.152290    0.549475   -3.936350
     62          1           0        0.767553    2.150238   -3.302468
     63          7           0        0.302698    1.767666   -5.385486
     64          1           0       -0.617230    1.355959   -5.249023
     65          1           0        0.161930    2.751573   -5.606591
     66          8           0        6.773109    0.412083   -2.564871
     67          1           0        7.557026    0.920884   -2.282040
 ---------------------------------------------------------------------

 SCF Done:  E(RB3LYP) =  -1396.76968654     A.U. after    3 cycles

 Alpha  occ. eigenvalues --  -19.29026 -19.26973 -19.25699 -19.23695 -19.21820
 Alpha  occ. eigenvalues --  -14.60505 -14.50302 -14.48812 -14.46167 -14.38379
 Alpha  occ. eigenvalues --  -10.44251 -10.42216 -10.41598 -10.41134 -10.39035
 Alpha  occ. eigenvalues --  -10.36239 -10.34165 -10.33146 -10.30488 -10.29757
 Alpha  occ. eigenvalues --  -10.29274 -10.27953 -10.27636 -10.26829 -10.26695
 Alpha  occ. eigenvalues --  -10.26493 -10.26407 -10.25907 -10.24976  -1.20217
 Alpha  occ. eigenvalues --   -1.19851  -1.16760  -1.14574  -1.13891  -1.11333
 Alpha  occ. eigenvalues --   -1.07168  -1.05341  -1.02800  -0.95070  -0.93173
 Alpha  occ. eigenvalues --   -0.91177  -0.89797  -0.88514  -0.86108  -0.84269
 Alpha  occ. eigenvalues --   -0.81644  -0.78304  -0.77757  -0.77017  -0.76395
 Alpha  occ. eigenvalues --   -0.75407  -0.73780  -0.73252  -0.71979  -0.71383
 Alpha  occ. eigenvalues --   -0.70672  -0.68316  -0.67490  -0.67038  -0.65571
 Alpha  occ. eigenvalues --   -0.65263  -0.64507  -0.63344  -0.61827  -0.60703
 Alpha  occ. eigenvalues --   -0.59779  -0.58518  -0.57894  -0.57490  -0.57329
 Alpha  occ. eigenvalues --   -0.56354  -0.56222  -0.55764  -0.55580  -0.54927
 Alpha  occ. eigenvalues --   -0.54221  -0.53986  -0.53532  -0.52998  -0.52132
 Alpha  occ. eigenvalues --   -0.52067  -0.51369  -0.50981  -0.50066  -0.49738
 Alpha  occ. eigenvalues --   -0.49112  -0.48864  -0.48758  -0.48397  -0.47775
 Alpha  occ. eigenvalues --   -0.47589  -0.46389  -0.46206  -0.45166  -0.44496
 Alpha  occ. eigenvalues --   -0.44059  -0.43746  -0.43374  -0.43225  -0.42830
 Alpha  occ. eigenvalues --   -0.42680  -0.41603  -0.41441  -0.41153  -0.40446
 Alpha  occ. eigenvalues --   -0.40339  -0.39728  -0.39150  -0.38362  -0.37165
 Alpha  occ. eigenvalues --   -0.35616  -0.35178  -0.30322
 Alpha virt. eigenvalues --   -0.15330  -0.11345  -0.10170  -0.08660  -0.07485
 Alpha virt. eigenvalues --   -0.06350  -0.04888  -0.03571  -0.02416  -0.01687
 Alpha virt. eigenvalues --   -0.01172  -0.00582  -0.00062   0.00632   0.01399

 Mulliken charges:
               1
     1  N   -0.760275
     2  H    0.413591
     3  H    0.424279
     4  H    0.462608
     5  C   -0.263732
     6  H    0.217522
     7  H    0.245517
     8  C    0.587376
     9  O   -0.479630
    10  N   -0.549836
    11  H    0.342859
    12  C   -0.071524
    13  H    0.205696
    14  C    0.662245
    15  C   -0.308291
    16  H    0.146826
    17  H    0.177682
    18  O   -0.622395
    19  C   -0.075638
    20  H    0.134681
    21  C   -0.454184
    22  H    0.139761
    23  H    0.166570
    24  H    0.146551
    25  C   -0.461967
    26  H    0.149198
    27  H    0.152907
    28  H    0.171929
    29  N   -0.588926
    30  H    0.370998
    31  C   -0.052725
    32  H    0.170388
    33  C    0.631834
    34  C   -0.073013
    35  H    0.162163
    36  O   -0.543631
    37  C   -0.466533
    38  H    0.147554
    39  H    0.170548
    40  H    0.167315
    41  C   -0.472143
    42  H    0.128292
    43  H    0.167986
    44  H    0.156217
    45  N   -0.624822
    46  H    0.362709
    47  C   -0.029968
    48  H    0.201809
    49  C    0.590693
    50  C   -0.292019
    51  H    0.175431
    52  H    0.196178
    53  O   -0.470775
    54  C   -0.275869
    55  H    0.148735
    56  H    0.125015
    57  C   -0.256158
    58  H    0.135236
    59  H    0.163532
    60  C   -0.151965
    61  H    0.154703
    62  H    0.099721
    63  N   -0.712007
    64  H    0.305078
    65  H    0.303092
    66  O   -0.555441
    67  H    0.430439
 Sum of Mulliken charges =   1.00000

 Dipole moment (field-independent basis, Debye):
    X=             -3.2538    Y=              9.1268    Z=              8.9228  Tot=             13.1720
 Quadrupole moment (field-independent basis, Debye-Ang):
   XX=           -113.6542   YY=           -153.4578   ZZ=           -120.2326
   XY=            -23.2076   XZ=            -28.4298   YZ=             11.3793

 Normal termination of Gaussian 16 at Tue Jul 12 17:43:15 2022.
