 Gaussian 16, Revision C.01,
 Gaussian 16:  ES64L-G16RevC.01  3-Jul-2019

 ----------------------------------------------------------------------
 # B3LYP/6-31G* empiricaldispersion=gd3bj guess=read geom=check nosymm
 integral(ultrafinegrid)
 ----------------------------------------------------------------------

 ------------------------------------------------------
 Candidate Structure: Conf:883 Charge calc in gas phase
 ------------------------------------------------------
 Structure from the checkpoint file:  "conf-883.chk"
 Charge =  1 Multiplicity = 1

                          Input orientation:
 ---------------------------------------------------------------------
 Center     Atomic      Atomic             Coordinates (Angstroms)
 Number     Number       Type             X           Y           Z
 ---------------------------------------------------------------------
      1          7           0       -1.282590   -1.624350   -3.605315
      2          1           0       -1.293618   -2.545644   -4.048522
      3          1           0       -1.358960   -0.835155   -4.397209
      4          1           0       -0.381259   -1.513796   -3.089406
      5          6           0       -2.411790   -1.483413   -2.647118
      6          1           0       -2.409565   -2.328664   -1.954774
      7          1           0       -3.351084   -1.491035   -3.208625
      8          6           0       -2.220604   -0.143656   -1.925701
      9          8           0       -1.625364    0.776029   -2.480570
     10          7           0       -2.688104   -0.072165   -0.662316
     11          1           0       -3.181592   -0.855268   -0.252618
     12          6           0       -2.367796    1.082440    0.189419
     13          1           0       -2.733448    1.989451   -0.294449
     14          6           0       -0.839417    1.252764    0.297823
     15          6           0       -3.024280    0.889505    1.564839
     16          1           0       -4.112475    0.842159    1.417888
     17          1           0       -2.709122   -0.084271    1.967176
     18          8           0       -0.322128    2.354918    0.364548
     19          6           0       -2.703081    1.982949    2.599575
     20          1           0       -1.619352    1.974037    2.775181
     21          6           0       -3.089199    3.381776    2.103067
     22          1           0       -4.147614    3.418379    1.813385
     23          1           0       -2.938629    4.120892    2.896586
     24          1           0       -2.477963    3.687677    1.249459
     25          6           0       -3.403871    1.648408    3.921860
     26          1           0       -4.494580    1.664511    3.803523
     27          1           0       -3.119548    0.655821    4.290832
     28          1           0       -3.143199    2.380187    4.693039
     29          7           0       -0.144401    0.075616    0.385390
     30          1           0       -0.636078   -0.770824    0.133864
     31          6           0        1.286372    0.017762    0.161136
     32          1           0        1.663231    1.036906    0.286935
     33          6           0        1.522380   -0.454967   -1.277276
     34          6           0        1.973431   -0.923282    1.185042
     35          1           0        1.483574   -1.903627    1.090976
     36          8           0        0.803578   -1.338090   -1.782690
     37          6           0        3.469006   -1.105612    0.897488
     38          1           0        3.996247   -0.143747    0.889927
     39          1           0        3.925041   -1.722133    1.677926
     40          1           0        3.656321   -1.597780   -0.061757
     41          6           0        1.747515   -0.390983    2.604400
     42          1           0        2.248411    0.574961    2.739874
     43          1           0        2.157307   -1.088198    3.342009
     44          1           0        0.683721   -0.252089    2.816006
     45          7           0        2.554581    0.123616   -1.910999
     46          1           0        3.147005    0.754631   -1.379556
     47          6           0        3.165028   -0.362068   -3.139514
     48          1           0        2.896994   -1.415912   -3.267369
     49          6           0        4.674525   -0.254904   -2.943988
     50          6           0        2.723808    0.435386   -4.384716
     51          1           0        2.891831    1.502178   -4.191329
     52          1           0        3.365673    0.151488   -5.225513
     53          8           0        5.196928    0.352423   -2.035364
     54          6           0        1.258843    0.181602   -4.735443
     55          1           0        0.640425    0.375236   -3.854119
     56          1           0        1.144542   -0.883310   -4.989772
     57          6           0        0.758962    1.042437   -5.899948
     58          1           0        0.653857    2.082659   -5.563917
     59          1           0        1.498034    1.053364   -6.710474
     60          6           0       -0.564035    0.556151   -6.490696
     61          1           0       -0.913856    1.269896   -7.246406
     62          1           0       -0.417147   -0.406211   -6.995126
     63          7           0       -1.594889    0.348112   -5.440021
     64          1           0       -1.633231    1.148354   -4.805849
     65          1           0       -2.515635    0.280304   -5.874560
     66          8           0        5.344504   -0.887711   -3.918649
     67          1           0        6.298240   -0.754231   -3.753946
 ---------------------------------------------------------------------

 SCF Done:  E(RB3LYP) =  -1396.81535751     A.U. after    2 cycles

 Alpha  occ. eigenvalues --  -19.30492 -19.25337 -19.25060 -19.24447 -19.20943
 Alpha  occ. eigenvalues --  -14.54474 -14.49575 -14.47895 -14.46814 -14.45438
 Alpha  occ. eigenvalues --  -10.43052 -10.42891 -10.40779 -10.38792 -10.38184
 Alpha  occ. eigenvalues --  -10.35191 -10.33731 -10.33126 -10.33030 -10.29907
 Alpha  occ. eigenvalues --  -10.29491 -10.29467 -10.28933 -10.28709 -10.26887
 Alpha  occ. eigenvalues --  -10.26214 -10.25494 -10.24428 -10.23966  -1.21600
 Alpha  occ. eigenvalues --   -1.17703  -1.15643  -1.12990  -1.12777  -1.09893
 Alpha  occ. eigenvalues --   -1.05935  -1.04723  -1.02305  -1.02214  -0.92102
 Alpha  occ. eigenvalues --   -0.91071  -0.89508  -0.87437  -0.87354  -0.83431
 Alpha  occ. eigenvalues --   -0.81779  -0.79989  -0.76999  -0.75568  -0.74779
 Alpha  occ. eigenvalues --   -0.74398  -0.72879  -0.72500  -0.70592  -0.70052
 Alpha  occ. eigenvalues --   -0.69375  -0.68503  -0.68266  -0.66905  -0.64923
 Alpha  occ. eigenvalues --   -0.64136  -0.63292  -0.62832  -0.61370  -0.60414
 Alpha  occ. eigenvalues --   -0.59924  -0.59299  -0.58865  -0.58445  -0.57994
 Alpha  occ. eigenvalues --   -0.57321  -0.56900  -0.56417  -0.55916  -0.55033
 Alpha  occ. eigenvalues --   -0.54312  -0.53971  -0.53634  -0.52831  -0.51991
 Alpha  occ. eigenvalues --   -0.51296  -0.50991  -0.50741  -0.50278  -0.50031
 Alpha  occ. eigenvalues --   -0.49542  -0.48676  -0.48516  -0.47934  -0.47008
 Alpha  occ. eigenvalues --   -0.46901  -0.46704  -0.46244  -0.45656  -0.45441
 Alpha  occ. eigenvalues --   -0.44907  -0.44261  -0.44148  -0.43207  -0.42783
 Alpha  occ. eigenvalues --   -0.42374  -0.42078  -0.41074  -0.40416  -0.40174
 Alpha  occ. eigenvalues --   -0.39825  -0.39650  -0.39096  -0.38783  -0.38334
 Alpha  occ. eigenvalues --   -0.37598  -0.35127  -0.34007
 Alpha virt. eigenvalues --   -0.12206  -0.10293  -0.09637  -0.07535  -0.07181
 Alpha virt. eigenvalues --   -0.05191  -0.03763  -0.02262  -0.01349  -0.00990
 Alpha virt. eigenvalues --   -0.00719   0.00373   0.00852   0.01031   0.01384

 Mulliken charges:
               1
     1  N   -0.811094
     2  H    0.381027
     3  H    0.466089
     4  H    0.449131
     5  C   -0.274519
     6  H    0.204986
     7  H    0.220580
     8  C    0.642270
     9  O   -0.513096
    10  N   -0.640639
    11  H    0.344926
    12  C   -0.019611
    13  H    0.203804
    14  C    0.625061
    15  C   -0.305258
    16  H    0.155050
    17  H    0.135761
    18  O   -0.503428
    19  C   -0.083062
    20  H    0.154201
    21  C   -0.462091
    22  H    0.138002
    23  H    0.160709
    24  H    0.173047
    25  C   -0.446564
    26  H    0.147248
    27  H    0.142116
    28  H    0.162697
    29  N   -0.587814
    30  H    0.319701
    31  C   -0.075051
    32  H    0.190994
    33  C    0.656120
    34  C   -0.079959
    35  H    0.133573
    36  O   -0.611003
    37  C   -0.467766
    38  H    0.160219
    39  H    0.171060
    40  H    0.145162
    41  C   -0.448718
    42  H    0.159788
    43  H    0.162389
    44  H    0.158157
    45  N   -0.576459
    46  H    0.372006
    47  C   -0.061272
    48  H    0.190756
    49  C    0.592440
    50  C   -0.267520
    51  H    0.166229
    52  H    0.177928
    53  O   -0.453428
    54  C   -0.286976
    55  H    0.172661
    56  H    0.119578
    57  C   -0.282139
    58  H    0.163324
    59  H    0.166620
    60  C   -0.141306
    61  H    0.170856
    62  H    0.159493
    63  N   -0.801246
    64  H    0.367087
    65  H    0.339179
    66  O   -0.556448
    67  H    0.434442
 Sum of Mulliken charges =   1.00000

 Dipole moment (field-independent basis, Debye):
    X=             -3.5452    Y=             -5.8675    Z=            -14.9630  Tot=             16.4587
 Quadrupole moment (field-independent basis, Debye-Ang):
   XX=           -119.9233   YY=           -167.1913   ZZ=            -83.8765
   XY=              3.6139   XZ=              1.0131   YZ=             10.5672

 Normal termination of Gaussian 16 at Tue Jul 12 17:43:03 2022.
