 Gaussian 16, Revision C.01,
 Gaussian 16:  ES64L-G16RevC.01  3-Jul-2019

 ----------------------------------------------------------------------
 # B3LYP/6-31G* empiricaldispersion=gd3bj guess=read geom=check nosymm
 integral(ultrafinegrid)
 ----------------------------------------------------------------------

 ------------------------------------------------------
 Candidate Structure: Conf:727 Charge calc in gas phase
 ------------------------------------------------------
 Structure from the checkpoint file:  "conf-727.chk"
 Charge =  1 Multiplicity = 1

                          Input orientation:
 ---------------------------------------------------------------------
 Center     Atomic      Atomic             Coordinates (Angstroms)
 Number     Number       Type             X           Y           Z
 ---------------------------------------------------------------------
      1          7           0       -2.593169    2.005117    4.695944
      2          1           0       -3.390350    2.117813    5.327506
      3          1           0       -2.404692    0.961816    4.522318
      4          1           0       -1.772895    2.442733    5.123314
      5          6           0       -2.859127    2.477495    3.294430
      6          1           0       -2.078163    3.176562    2.990673
      7          1           0       -3.837008    2.957556    3.237585
      8          6           0       -2.754539    1.187727    2.450700
      9          8           0       -2.453739    0.150180    3.050096
     10          7           0       -2.992052    1.293428    1.140994
     11          1           0       -3.054850    2.237342    0.773754
     12          6           0       -2.343336    0.344356    0.225202
     13          1           0       -2.654861   -0.661329    0.514859
     14          6           0       -0.817333    0.512690    0.432647
     15          6           0       -2.799227    0.672359   -1.209197
     16          1           0       -3.896849    0.710985   -1.194273
     17          1           0       -2.437567    1.679252   -1.458687
     18          8           0       -0.369086    1.498075    1.017004
     19          6           0       -2.350199   -0.293038   -2.321085
     20          1           0       -1.259639   -0.235707   -2.395748
     21          6           0       -2.783938   -1.741060   -2.054356
     22          1           0       -3.874154   -1.812646   -1.952876
     23          1           0       -2.485877   -2.389374   -2.884635
     24          1           0       -2.347018   -2.167121   -1.141187
     25          6           0       -2.913789    0.196411   -3.661387
     26          1           0       -4.011102    0.182502   -3.660728
     27          1           0       -2.584267    1.218343   -3.877639
     28          1           0       -2.571636   -0.444566   -4.480153
     29          7           0       -0.050343   -0.486414   -0.052069
     30          1           0       -0.498221   -1.176457   -0.638736
     31          6           0        1.376906   -0.294983   -0.264483
     32          1           0        1.809367    0.042076    0.682760
     33          6           0        1.578137    0.803412   -1.326979
     34          6           0        2.022969   -1.648078   -0.665668
     35          1           0        1.689149   -2.354691    0.106591
     36          8           0        0.721860    1.061681   -2.167042
     37          6           0        1.547598   -2.152149   -2.036961
     38          1           0        1.868192   -1.476555   -2.834582
     39          1           0        1.978041   -3.138743   -2.235133
     40          1           0        0.457962   -2.260798   -2.102548
     41          6           0        3.555719   -1.590225   -0.622364
     42          1           0        3.951585   -1.000732   -1.454298
     43          1           0        3.967274   -2.600144   -0.713889
     44          1           0        3.919114   -1.174345    0.326259
     45          7           0        2.767296    1.459121   -1.273440
     46          1           0        3.489647    1.097677   -0.665115
     47          6           0        3.188347    2.299006   -2.378532
     48          1           0        2.370462    2.984007   -2.618134
     49          6           0        3.447786    1.444350   -3.619974
     50          6           0        4.447569    3.097986   -2.004675
     51          1           0        5.241752    2.391906   -1.721529
     52          1           0        4.801033    3.618262   -2.900806
     53          8           0        3.646665    0.249513   -3.623082
     54          6           0        4.209808    4.104160   -0.875246
     55          1           0        3.760749    3.591811   -0.015885
     56          1           0        3.479363    4.853610   -1.213981
     57          6           0        5.502578    4.794798   -0.431605
     58          1           0        6.193931    4.041463   -0.033231
     59          1           0        5.990753    5.257622   -1.300083
     60          6           0        5.281594    5.867107    0.637619
     61          1           0        6.254280    6.279815    0.926515
     62          1           0        4.702339    6.700457    0.200202
     63          7           0        4.664947    5.293694    1.843193
     64          1           0        4.749750    5.953736    2.613871
     65          1           0        3.664944    5.175166    1.690539
     66          8           0        3.470972    2.205276   -4.730695
     67          1           0        3.676463    1.612842   -5.478856
 ---------------------------------------------------------------------

 SCF Done:  E(RB3LYP) =  -1396.75719789     A.U. after    1 cycles

 Alpha  occ. eigenvalues --  -19.28603 -19.27075 -19.21805 -19.21557 -19.19855
 Alpha  occ. eigenvalues --  -14.61860 -14.50314 -14.45458 -14.44207 -14.37422
 Alpha  occ. eigenvalues --  -10.45093 -10.42039 -10.39385 -10.38697 -10.36731
 Alpha  occ. eigenvalues --  -10.34617 -10.31788 -10.31425 -10.28792 -10.27995
 Alpha  occ. eigenvalues --  -10.27112 -10.26809 -10.26661 -10.25900 -10.25268
 Alpha  occ. eigenvalues --  -10.24836 -10.24724 -10.24612 -10.24118  -1.21144
 Alpha  occ. eigenvalues --   -1.18074  -1.15561  -1.13818  -1.11762  -1.09049
 Alpha  occ. eigenvalues --   -1.07276  -1.02351  -1.00962  -0.94080  -0.92402
 Alpha  occ. eigenvalues --   -0.89905  -0.88941  -0.87316  -0.84582  -0.82710
 Alpha  occ. eigenvalues --   -0.79431  -0.76609  -0.76243  -0.75934  -0.75811
 Alpha  occ. eigenvalues --   -0.75664  -0.74611  -0.73149  -0.70790  -0.69391
 Alpha  occ. eigenvalues --   -0.67643  -0.67178  -0.66286  -0.65676  -0.64682
 Alpha  occ. eigenvalues --   -0.63932  -0.63824  -0.61802  -0.61505  -0.59670
 Alpha  occ. eigenvalues --   -0.58752  -0.57655  -0.57064  -0.55886  -0.55752
 Alpha  occ. eigenvalues --   -0.55332  -0.54899  -0.54410  -0.54233  -0.53431
 Alpha  occ. eigenvalues --   -0.52624  -0.52254  -0.51795  -0.51373  -0.50834
 Alpha  occ. eigenvalues --   -0.50400  -0.49571  -0.49300  -0.48222  -0.47702
 Alpha  occ. eigenvalues --   -0.47471  -0.46710  -0.46566  -0.46113  -0.46062
 Alpha  occ. eigenvalues --   -0.45222  -0.45021  -0.44480  -0.44436  -0.43635
 Alpha  occ. eigenvalues --   -0.42891  -0.42071  -0.41552  -0.41415  -0.41168
 Alpha  occ. eigenvalues --   -0.41114  -0.40707  -0.40413  -0.40154  -0.40008
 Alpha  occ. eigenvalues --   -0.39235  -0.38891  -0.36259  -0.35479  -0.35383
 Alpha  occ. eigenvalues --   -0.33856  -0.32951  -0.29692
 Alpha virt. eigenvalues --   -0.13820  -0.12994  -0.08038  -0.07634  -0.06681
 Alpha virt. eigenvalues --   -0.06505  -0.05681  -0.02587  -0.02096  -0.01250
 Alpha virt. eigenvalues --   -0.00656  -0.00463   0.00652   0.01333   0.02560

 Mulliken charges:
               1
     1  N   -0.750291
     2  H    0.421934
     3  H    0.440855
     4  H    0.425157
     5  C   -0.284540
     6  H    0.261150
     7  H    0.242650
     8  C    0.654358
     9  O   -0.516935
    10  N   -0.569202
    11  H    0.350694
    12  C   -0.098696
    13  H    0.201611
    14  C    0.656179
    15  C   -0.283283
    16  H    0.157261
    17  H    0.158634
    18  O   -0.563814
    19  C   -0.117267
    20  H    0.182828
    21  C   -0.467570
    22  H    0.154640
    23  H    0.170887
    24  H    0.130044
    25  C   -0.447946
    26  H    0.143858
    27  H    0.157252
    28  H    0.160189
    29  N   -0.606066
    30  H    0.354681
    31  C   -0.064355
    32  H    0.170300
    33  C    0.662010
    34  C   -0.098277
    35  H    0.148750
    36  O   -0.538693
    37  C   -0.480065
    38  H    0.199938
    39  H    0.164105
    40  H    0.132506
    41  C   -0.488789
    42  H    0.187881
    43  H    0.167565
    44  H    0.136292
    45  N   -0.595545
    46  H    0.341089
    47  C   -0.030351
    48  H    0.195280
    49  C    0.598685
    50  C   -0.304756
    51  H    0.148628
    52  H    0.177218
    53  O   -0.461516
    54  C   -0.268970
    55  H    0.147054
    56  H    0.134588
    57  C   -0.236526
    58  H    0.145448
    59  H    0.135772
    60  C   -0.151267
    61  H    0.150766
    62  H    0.119059
    63  N   -0.718428
    64  H    0.301860
    65  H    0.290170
    66  O   -0.559558
    67  H    0.422880
 Sum of Mulliken charges =   1.00000

 Dipole moment (field-independent basis, Debye):
    X=             -7.6516    Y=             10.7168    Z=             12.1468  Tot=             17.9149
 Quadrupole moment (field-independent basis, Debye-Ang):
   XX=           -118.8971   YY=           -128.8423   ZZ=            -86.3794
   XY=            -12.6319   XZ=            -49.5084   YZ=             38.9695

 Normal termination of Gaussian 16 at Tue Jul 12 17:42:47 2022.
