 Gaussian 16, Revision C.01,
 Gaussian 16:  ES64L-G16RevC.01  3-Jul-2019

 ----------------------------------------------------------------------
 # B3LYP/6-31G* empiricaldispersion=gd3bj guess=read geom=check nosymm
 integral(ultrafinegrid)
 ----------------------------------------------------------------------

 ------------------------------------------------------
 Candidate Structure: Conf:503 Charge calc in gas phase
 ------------------------------------------------------
 Structure from the checkpoint file:  "conf-503.chk"
 Charge =  1 Multiplicity = 1

                          Input orientation:
 ---------------------------------------------------------------------
 Center     Atomic      Atomic             Coordinates (Angstroms)
 Number     Number       Type             X           Y           Z
 ---------------------------------------------------------------------
      1          7           0       -3.166788   -1.984243    2.076817
      2          1           0       -4.089808   -2.348696    2.327958
      3          1           0       -3.041255   -1.914018    1.025983
      4          1           0       -2.446770   -2.628748    2.422302
      5          6           0       -2.919824   -0.569114    2.519376
      6          1           0       -2.342383   -0.563814    3.444586
      7          1           0       -3.882973   -0.081284    2.684642
      8          6           0       -2.167363    0.058859    1.323183
      9          8           0       -2.187504   -0.577913    0.258847
     10          7           0       -1.552831    1.218706    1.521093
     11          1           0       -1.521165    1.617611    2.452979
     12          6           0       -0.623048    1.798683    0.522970
     13          1           0       -0.999917    1.495297   -0.455006
     14          6           0        0.746488    1.136212    0.801534
     15          6           0       -0.565657    3.315751    0.645738
     16          1           0       -0.067073    3.568879    1.588635
     17          1           0        0.099919    3.673080   -0.148058
     18          8           0        1.589040    1.679171    1.506805
     19          6           0       -1.920183    4.036165    0.534857
     20          1           0       -2.556925    3.708763    1.371598
     21          6           0       -1.703105    5.547595    0.677593
     22          1           0       -1.082859    5.926438   -0.143813
     23          1           0       -2.655671    6.086362    0.652274
     24          1           0       -1.197277    5.794874    1.617374
     25          6           0       -2.653673    3.710930   -0.772545
     26          1           0       -2.042326    3.986833   -1.639543
     27          1           0       -2.899165    2.646107   -0.862665
     28          1           0       -3.593076    4.269525   -0.837102
     29          7           0        0.869709   -0.121496    0.307930
     30          1           0        0.200128   -0.453107   -0.375249
     31          6           0        2.055210   -0.944914    0.571070
     32          1           0        2.453400   -0.597450    1.529184
     33          6           0        3.073758   -0.653406   -0.552655
     34          6           0        1.700245   -2.435111    0.660404
     35          1           0        1.394435   -2.758838   -0.342230
     36          8           0        3.162150   -1.368869   -1.546010
     37          6           0        2.939640   -3.244570    1.061145
     38          1           0        3.309895   -2.936044    2.046828
     39          1           0        2.701389   -4.311914    1.110955
     40          1           0        3.740908   -3.114709    0.330352
     41          6           0        0.546816   -2.681791    1.645677
     42          1           0        0.800335   -2.308673    2.646529
     43          1           0        0.346754   -3.756102    1.726849
     44          1           0       -0.368364   -2.179941    1.308088
     45          7           0        3.781945    0.482326   -0.361660
     46          1           0        3.589626    1.077420    0.440176
     47          6           0        4.618888    1.053698   -1.404077
     48          1           0        5.338416    0.301486   -1.742700
     49          6           0        5.375304    2.211876   -0.777642
     50          6           0        3.804153    1.536884   -2.629284
     51          1           0        4.497446    1.997007   -3.341612
     52          1           0        3.385179    0.646709   -3.107484
     53          8           0        5.100645    2.715514    0.290613
     54          6           0        2.682671    2.511570   -2.263063
     55          1           0        3.103110    3.387325   -1.751567
     56          1           0        2.012130    2.023880   -1.541843
     57          6           0        1.866038    2.959900   -3.478633
     58          1           0        2.487389    3.576166   -4.138958
     59          1           0        1.557996    2.075712   -4.053098
     60          6           0        0.613315    3.749848   -3.096226
     61          1           0        0.054655    4.004817   -4.003750
     62          1           0       -0.046469    3.086285   -2.499792
     63          7           0        0.959753    5.004587   -2.428788
     64          1           0        0.137213    5.581829   -2.272223
     65          1           0        1.395008    4.841406   -1.524216
     66          8           0        6.366328    2.644809   -1.576752
     67          1           0        6.780487    3.408133   -1.130861
 ---------------------------------------------------------------------

 SCF Done:  E(RB3LYP) =  -1396.75519966     A.U. after    1 cycles

 Alpha  occ. eigenvalues --  -19.30384 -19.27251 -19.22994 -19.21760 -19.19287
 Alpha  occ. eigenvalues --  -14.63962 -14.53445 -14.47351 -14.43335 -14.38521
 Alpha  occ. eigenvalues --  -10.47339 -10.44299 -10.40126 -10.39678 -10.36478
 Alpha  occ. eigenvalues --  -10.36216 -10.32453 -10.31132 -10.29203 -10.29189
 Alpha  occ. eigenvalues --  -10.29168 -10.29094 -10.27914 -10.26851 -10.26215
 Alpha  occ. eigenvalues --  -10.25691 -10.25680 -10.25432 -10.24715  -1.22934
 Alpha  occ. eigenvalues --   -1.18332  -1.17627  -1.15085  -1.11284  -1.09691
 Alpha  occ. eigenvalues --   -1.09394  -1.03583  -1.00223  -0.95186  -0.94331
 Alpha  occ. eigenvalues --   -0.91370  -0.90519  -0.87447  -0.86494  -0.83351
 Alpha  occ. eigenvalues --   -0.80748  -0.78647  -0.78012  -0.77707  -0.77188
 Alpha  occ. eigenvalues --   -0.76670  -0.76431  -0.75276  -0.71136  -0.70385
 Alpha  occ. eigenvalues --   -0.69596  -0.68755  -0.67175  -0.66644  -0.65570
 Alpha  occ. eigenvalues --   -0.65396  -0.64144  -0.63737  -0.62708  -0.61656
 Alpha  occ. eigenvalues --   -0.60590  -0.58882  -0.57443  -0.57047  -0.56795
 Alpha  occ. eigenvalues --   -0.56152  -0.55920  -0.55192  -0.54730  -0.54529
 Alpha  occ. eigenvalues --   -0.54140  -0.53295  -0.52690  -0.52497  -0.51805
 Alpha  occ. eigenvalues --   -0.51226  -0.50694  -0.49755  -0.49500  -0.49235
 Alpha  occ. eigenvalues --   -0.48823  -0.47782  -0.47666  -0.47473  -0.46990
 Alpha  occ. eigenvalues --   -0.46867  -0.46306  -0.45201  -0.44849  -0.44235
 Alpha  occ. eigenvalues --   -0.44036  -0.43798  -0.43723  -0.43066  -0.42697
 Alpha  occ. eigenvalues --   -0.42525  -0.42348  -0.41875  -0.40608  -0.40275
 Alpha  occ. eigenvalues --   -0.39535  -0.39167  -0.37688  -0.36292  -0.35305
 Alpha  occ. eigenvalues --   -0.33070  -0.32337  -0.30387
 Alpha virt. eigenvalues --   -0.16437  -0.14299  -0.09981  -0.09138  -0.08344
 Alpha virt. eigenvalues --   -0.06734  -0.05491  -0.04912  -0.04173  -0.03415
 Alpha virt. eigenvalues --   -0.02857  -0.01165  -0.00233   0.00328   0.00592

 Mulliken charges:
               1
     1  N   -0.745705
     2  H    0.427839
     3  H    0.441757
     4  H    0.432310
     5  C   -0.282584
     6  H    0.244859
     7  H    0.258646
     8  C    0.660786
     9  O   -0.535166
    10  N   -0.578959
    11  H    0.362185
    12  C   -0.091702
    13  H    0.202579
    14  C    0.628476
    15  C   -0.295462
    16  H    0.173105
    17  H    0.166692
    18  O   -0.508543
    19  C   -0.077532
    20  H    0.107284
    21  C   -0.448315
    22  H    0.147542
    23  H    0.161383
    24  H    0.155235
    25  C   -0.463735
    26  H    0.166409
    27  H    0.134065
    28  H    0.164076
    29  N   -0.618230
    30  H    0.354003
    31  C   -0.052039
    32  H    0.178077
    33  C    0.634451
    34  C   -0.088311
    35  H    0.162726
    36  O   -0.528772
    37  C   -0.463535
    38  H    0.146751
    39  H    0.156376
    40  H    0.192306
    41  C   -0.475814
    42  H    0.149156
    43  H    0.159636
    44  H    0.089380
    45  N   -0.629325
    46  H    0.378019
    47  C   -0.024728
    48  H    0.199197
    49  C    0.584718
    50  C   -0.286872
    51  H    0.170430
    52  H    0.181001
    53  O   -0.466690
    54  C   -0.288029
    55  H    0.152976
    56  H    0.115280
    57  C   -0.244821
    58  H    0.161194
    59  H    0.134308
    60  C   -0.140815
    61  H    0.152977
    62  H    0.088110
    63  N   -0.725995
    64  H    0.310620
    65  H    0.310746
    66  O   -0.560524
    67  H    0.424538
 Sum of Mulliken charges =   1.00000

 Dipole moment (field-independent basis, Debye):
    X=            -12.2398    Y=             -2.6738    Z=             10.1015  Tot=             16.0936
 Quadrupole moment (field-independent basis, Debye-Ang):
   XX=           -114.4198   YY=           -144.3461   ZZ=           -150.7041
   XY=             20.6915   XZ=            -35.3903   YZ=            -20.9372

 Normal termination of Gaussian 16 at Tue Jul 12 17:42:49 2022.
