 Gaussian 16, Revision C.01,
 Gaussian 16:  ES64L-G16RevC.01  3-Jul-2019

 ----------------------------------------------------------------------
 # B3LYP/6-31G* empiricaldispersion=gd3bj guess=read geom=check nosymm
 integral(ultrafinegrid)
 ----------------------------------------------------------------------

 ------------------------------------------------------
 Candidate Structure: Conf:746 Charge calc in gas phase
 ------------------------------------------------------
 Structure from the checkpoint file:  "conf-746.chk"
 Charge =  1 Multiplicity = 1

                          Input orientation:
 ---------------------------------------------------------------------
 Center     Atomic      Atomic             Coordinates (Angstroms)
 Number     Number       Type             X           Y           Z
 ---------------------------------------------------------------------
      1          7           0       -5.938855    0.007443    3.547071
      2          1           0       -6.721648    0.664867    3.589079
      3          1           0       -5.915236   -0.487544    2.586494
      4          1           0       -6.051314   -0.679506    4.296912
      5          6           0       -4.591533    0.672321    3.534969
      6          1           0       -3.996091    0.320145    4.378503
      7          1           0       -4.712092    1.754344    3.605060
      8          6           0       -3.992409    0.238463    2.169938
      9          8           0       -4.708647   -0.488754    1.459420
     10          7           0       -2.782180    0.673719    1.886965
     11          1           0       -2.228941    1.260901    2.518906
     12          6           0       -2.053505    0.379659    0.649272
     13          1           0       -2.155947   -0.686238    0.430483
     14          6           0       -0.595593    0.734746    0.998613
     15          6           0       -2.609781    1.226920   -0.517439
     16          1           0       -3.687236    1.026209   -0.568801
     17          1           0       -2.487681    2.283678   -0.248404
     18          8           0       -0.369569    1.493710    1.946566
     19          6           0       -1.993547    0.970039   -1.904837
     20          1           0       -0.925994    1.215596   -1.875513
     21          6           0       -2.135712   -0.491934   -2.348728
     22          1           0       -3.190734   -0.792057   -2.376173
     23          1           0       -1.716810   -0.627478   -3.349989
     24          1           0       -1.611295   -1.195149   -1.689985
     25          6           0       -2.653201    1.906396   -2.925797
     26          1           0       -3.725891    1.694971   -3.018661
     27          1           0       -2.539886    2.957482   -2.636784
     28          1           0       -2.200576    1.778641   -3.914153
     29          7           0        0.345463    0.174742    0.224150
     30          1           0        0.078968   -0.297421   -0.636463
     31          6           0        1.740221    0.595840    0.228880
     32          1           0        1.789518    1.586293    0.692655
     33          6           0        2.146939    0.679786   -1.251058
     34          6           0        2.657470   -0.376800    1.017703
     35          1           0        3.675212    0.031502    0.940195
     36          8           0        1.442625    0.183068   -2.131681
     37          6           0        2.269934   -0.408399    2.499398
     38          1           0        1.273987   -0.845124    2.630347
     39          1           0        2.980894   -1.022353    3.061870
     40          1           0        2.253526    0.594447    2.937164
     41          6           0        2.658880   -1.781244    0.404219
     42          1           0        1.652467   -2.215082    0.426964
     43          1           0        3.317167   -2.441552    0.977641
     44          1           0        3.008394   -1.772005   -0.631805
     45          7           0        3.312190    1.307245   -1.516718
     46          1           0        3.912179    1.587675   -0.752748
     47          6           0        3.861833    1.335696   -2.866220
     48          1           0        3.097888    1.727334   -3.540463
     49          6           0        4.199043   -0.056697   -3.390894
     50          6           0        5.108605    2.241829   -2.885611
     51          1           0        4.788434    3.233493   -2.539979
     52          1           0        5.825898    1.856799   -2.147620
     53          8           0        4.131811   -0.379150   -4.552356
     54          6           0        5.795431    2.369045   -4.249204
     55          1           0        6.208484    1.398459   -4.550757
     56          1           0        6.644596    3.051320   -4.144398
     57          6           0        4.888304    2.893522   -5.366816
     58          1           0        4.134982    2.141590   -5.628231
     59          1           0        4.344223    3.784797   -5.015747
     60          6           0        5.675595    3.257221   -6.629490
     61          1           0        6.252014    2.381853   -6.953780
     62          1           0        4.964580    3.484550   -7.442479
     63          7           0        6.628171    4.339337   -6.353147
     64          1           0        7.248126    4.469710   -7.150031
     65          1           0        6.122947    5.217866   -6.242701
     66          8           0        4.661964   -0.879711   -2.416908
     67          1           0        4.892072   -1.718702   -2.859784
 ---------------------------------------------------------------------

 SCF Done:  E(RB3LYP) =  -1396.76263673     A.U. after    1 cycles

 Alpha  occ. eigenvalues --  -19.28430 -19.26674 -19.22559 -19.20826 -19.20627
 Alpha  occ. eigenvalues --  -14.61806 -14.50517 -14.45861 -14.44992 -14.35628
 Alpha  occ. eigenvalues --  -10.45167 -10.42344 -10.39489 -10.38673 -10.37617
 Alpha  occ. eigenvalues --  -10.34976 -10.32154 -10.31140 -10.28668 -10.27967
 Alpha  occ. eigenvalues --  -10.27348 -10.26265 -10.25374 -10.25104 -10.24937
 Alpha  occ. eigenvalues --  -10.24892 -10.24669 -10.23218 -10.22795  -1.20926
 Alpha  occ. eigenvalues --   -1.17381  -1.15458  -1.14556  -1.12726  -1.08343
 Alpha  occ. eigenvalues --   -1.07282  -1.02792  -1.01510  -0.92590  -0.92370
 Alpha  occ. eigenvalues --   -0.90009  -0.88992  -0.86810  -0.85000  -0.81683
 Alpha  occ. eigenvalues --   -0.79267  -0.76940  -0.76098  -0.75980  -0.75848
 Alpha  occ. eigenvalues --   -0.75484  -0.75268  -0.72235  -0.70592  -0.69308
 Alpha  occ. eigenvalues --   -0.67781  -0.67414  -0.66479  -0.65670  -0.64514
 Alpha  occ. eigenvalues --   -0.64183  -0.62789  -0.61912  -0.61347  -0.59772
 Alpha  occ. eigenvalues --   -0.59095  -0.57546  -0.56487  -0.55837  -0.55534
 Alpha  occ. eigenvalues --   -0.54646  -0.54301  -0.54043  -0.53872  -0.53361
 Alpha  occ. eigenvalues --   -0.52649  -0.51914  -0.51479  -0.50664  -0.50632
 Alpha  occ. eigenvalues --   -0.50431  -0.49704  -0.48370  -0.48032  -0.47851
 Alpha  occ. eigenvalues --   -0.47062  -0.46709  -0.46290  -0.46209  -0.45706
 Alpha  occ. eigenvalues --   -0.45438  -0.45101  -0.44729  -0.43638  -0.43353
 Alpha  occ. eigenvalues --   -0.42846  -0.42253  -0.41590  -0.41499  -0.41307
 Alpha  occ. eigenvalues --   -0.41249  -0.40770  -0.39240  -0.38969  -0.38479
 Alpha  occ. eigenvalues --   -0.38047  -0.37695  -0.36781  -0.36419  -0.35576
 Alpha  occ. eigenvalues --   -0.34345  -0.32820  -0.27836
 Alpha virt. eigenvalues --   -0.13459  -0.13158  -0.08427  -0.07624  -0.06736
 Alpha virt. eigenvalues --   -0.06035  -0.05615  -0.02460  -0.01600  -0.01213
 Alpha virt. eigenvalues --   -0.00666   0.00734   0.00975   0.02166   0.02906

 Mulliken charges:
               1
     1  N   -0.752011
     2  H    0.422349
     3  H    0.441254
     4  H    0.422363
     5  C   -0.276342
     6  H    0.248050
     7  H    0.248038
     8  C    0.643392
     9  O   -0.534476
    10  N   -0.603492
    11  H    0.376222
    12  C   -0.070148
    13  H    0.194508
    14  C    0.622839
    15  C   -0.259515
    16  H    0.160503
    17  H    0.150814
    18  O   -0.547777
    19  C   -0.104544
    20  H    0.156789
    21  C   -0.454510
    22  H    0.149486
    23  H    0.178519
    24  H    0.131590
    25  C   -0.448223
    26  H    0.144923
    27  H    0.146966
    28  H    0.165812
    29  N   -0.610962
    30  H    0.381266
    31  C   -0.079999
    32  H    0.184660
    33  C    0.649088
    34  C   -0.075433
    35  H    0.134031
    36  O   -0.544009
    37  C   -0.442420
    38  H    0.141844
    39  H    0.157394
    40  H    0.159014
    41  C   -0.471589
    42  H    0.142681
    43  H    0.159368
    44  H    0.176144
    45  N   -0.620329
    46  H    0.342411
    47  C   -0.004039
    48  H    0.199991
    49  C    0.607813
    50  C   -0.322165
    51  H    0.156961
    52  H    0.149171
    53  O   -0.452115
    54  C   -0.262801
    55  H    0.148014
    56  H    0.179889
    57  C   -0.266034
    58  H    0.156664
    59  H    0.117759
    60  C   -0.145057
    61  H    0.147250
    62  H    0.122515
    63  N   -0.715713
    64  H    0.305000
    65  H    0.293990
    66  O   -0.573540
    67  H    0.419908
 Sum of Mulliken charges =   1.00000

 Dipole moment (field-independent basis, Debye):
    X=            -15.3482    Y=              3.4398    Z=             11.8192  Tot=             19.6747
 Quadrupole moment (field-independent basis, Debye-Ang):
   XX=            -28.9162   YY=           -157.1350   ZZ=           -108.8146
   XY=              0.2320   XZ=            -91.2992   YZ=            -14.3859

 Normal termination of Gaussian 16 at Tue Jul 12 17:42:46 2022.
