 Gaussian 16, Revision C.01,
 Gaussian 16:  ES64L-G16RevC.01  3-Jul-2019

 ----------------------------------------------------------------------
 # B3LYP/6-31G* empiricaldispersion=gd3bj guess=read geom=check nosymm
 integral(ultrafinegrid)
 ----------------------------------------------------------------------

 ------------------------------------------------------
 Candidate Structure: Conf:217 Charge calc in gas phase
 ------------------------------------------------------
 Structure from the checkpoint file:  "conf-217.chk"
 Charge =  1 Multiplicity = 1

                          Input orientation:
 ---------------------------------------------------------------------
 Center     Atomic      Atomic             Coordinates (Angstroms)
 Number     Number       Type             X           Y           Z
 ---------------------------------------------------------------------
      1          7           0       -5.828777    0.750983    2.886788
      2          1           0       -6.594126    1.415289    2.746942
      3          1           0       -5.758631    0.074940    2.045337
      4          1           0       -6.005951    0.227908    3.748009
      5          6           0       -4.465362    1.379674    2.832354
      6          1           0       -3.932686    1.193352    3.765951
      7          1           0       -4.559724    2.455722    2.679056
      8          6           0       -3.796648    0.673572    1.621978
      9          8           0       -4.489215   -0.168778    1.023846
     10          7           0       -2.558289    1.021324    1.340212
     11          1           0       -2.037967    1.730346    1.864645
     12          6           0       -1.769215    0.488950    0.223353
     13          1           0       -1.920963   -0.591982    0.173867
     14          6           0       -0.322422    0.840639    0.611363
     15          6           0       -2.199684    1.165786   -1.095976
     16          1           0       -3.272611    0.971461   -1.219629
     17          1           0       -2.077234    2.247812   -0.962400
     18          8           0       -0.117394    1.822132    1.333205
     19          6           0       -1.465995    0.723706   -2.374822
     20          1           0       -0.398127    0.956532   -2.263245
     21          6           0       -1.602368   -0.779554   -2.646969
     22          1           0       -2.658023   -1.063899   -2.739222
     23          1           0       -1.099654   -1.042354   -3.582373
     24          1           0       -1.158755   -1.403880   -1.862071
     25          6           0       -2.009953    1.536020   -3.558633
     26          1           0       -3.076908    1.325702   -3.708849
     27          1           0       -1.904225    2.612784   -3.378895
     28          1           0       -1.483161    1.302078   -4.489908
     29          7           0        0.626448    0.032855    0.122421
     30          1           0        0.396120   -0.709018   -0.533690
     31          6           0        2.058334    0.302718    0.202912
     32          1           0        2.191932    1.374779    0.378850
     33          6           0        2.597580   -0.119071   -1.172984
     34          6           0        2.742927   -0.497576    1.343815
     35          1           0        2.622060   -1.561039    1.095810
     36          8           0        2.068829   -1.059517   -1.770929
     37          6           0        4.241909   -0.179305    1.422743
     38          1           0        4.407121    0.890568    1.605509
     39          1           0        4.698675   -0.726537    2.253029
     40          1           0        4.777219   -0.455521    0.510235
     41          6           0        2.061956   -0.227073    2.690085
     42          1           0        2.113425    0.835459    2.950980
     43          1           0        2.557995   -0.799384    3.480889
     44          1           0        1.008015   -0.518791    2.674906
     45          7           0        3.641434    0.580882   -1.654346
     46          1           0        4.071570    1.325102   -1.116782
     47          6           0        4.281070    0.261440   -2.922567
     48          1           0        4.550679   -0.801128   -2.935080
     49          6           0        5.555908    1.084614   -2.980908
     50          6           0        3.356776    0.544087   -4.126044
     51          1           0        3.849446    0.171438   -5.028969
     52          1           0        2.465354   -0.069689   -3.968134
     53          8           0        5.870297    1.916372   -2.155152
     54          6           0        2.972862    2.026129   -4.271395
     55          1           0        3.708765    2.542616   -4.901350
     56          1           0        3.013632    2.512706   -3.288980
     57          6           0        1.560855    2.214093   -4.836118
     58          1           0        0.837551    1.763519   -4.145625
     59          1           0        1.324321    3.286457   -4.881009
     60          6           0        1.348337    1.595111   -6.217340
     61          1           0        2.060084    2.047233   -6.931885
     62          1           0        1.580019    0.524211   -6.180766
     63          7           0       -0.059338    1.721961   -6.613302
     64          1           0       -0.285767    2.705642   -6.757238
     65          1           0       -0.211174    1.265123   -7.511032
     66          8           0        6.284353    0.797971   -4.071310
     67          1           0        7.073230    1.372838   -4.049465
 ---------------------------------------------------------------------

 SCF Done:  E(RB3LYP) =  -1396.76736947     A.U. after    1 cycles

 Alpha  occ. eigenvalues --  -19.28228 -19.27902 -19.22501 -19.21968 -19.20199
 Alpha  occ. eigenvalues --  -14.61613 -14.50370 -14.45681 -14.44551 -14.37490
 Alpha  occ. eigenvalues --  -10.44968 -10.42168 -10.40388 -10.39021 -10.37284
 Alpha  occ. eigenvalues --  -10.34625 -10.31842 -10.31817 -10.28229 -10.27501
 Alpha  occ. eigenvalues --  -10.27062 -10.26647 -10.25642 -10.24956 -10.24937
 Alpha  occ. eigenvalues --  -10.24898 -10.24706 -10.24295 -10.23566  -1.20733
 Alpha  occ. eigenvalues --   -1.19029  -1.15237  -1.14058  -1.12241  -1.10122
 Alpha  occ. eigenvalues --   -1.07077  -1.02430  -1.01198  -0.94055  -0.92312
 Alpha  occ. eigenvalues --   -0.89690  -0.88762  -0.87194  -0.84650  -0.83042
 Alpha  occ. eigenvalues --   -0.79598  -0.76554  -0.75859  -0.75673  -0.75634
 Alpha  occ. eigenvalues --   -0.75492  -0.75078  -0.71919  -0.70765  -0.70266
 Alpha  occ. eigenvalues --   -0.68555  -0.67450  -0.66286  -0.65494  -0.64736
 Alpha  occ. eigenvalues --   -0.63951  -0.63102  -0.61787  -0.61645  -0.59461
 Alpha  occ. eigenvalues --   -0.58575  -0.57358  -0.56679  -0.56435  -0.55997
 Alpha  occ. eigenvalues --   -0.55200  -0.54552  -0.54216  -0.53961  -0.53561
 Alpha  occ. eigenvalues --   -0.52937  -0.52283  -0.51491  -0.51169  -0.50821
 Alpha  occ. eigenvalues --   -0.50534  -0.50008  -0.49108  -0.48499  -0.47717
 Alpha  occ. eigenvalues --   -0.47597  -0.46880  -0.46349  -0.46153  -0.45534
 Alpha  occ. eigenvalues --   -0.45408  -0.45127  -0.44239  -0.43861  -0.43495
 Alpha  occ. eigenvalues --   -0.43380  -0.42474  -0.41856  -0.41426  -0.40936
 Alpha  occ. eigenvalues --   -0.40637  -0.40523  -0.40302  -0.40076  -0.39199
 Alpha  occ. eigenvalues --   -0.38837  -0.38787  -0.36239  -0.36030  -0.35410
 Alpha  occ. eigenvalues --   -0.34013  -0.33477  -0.29679
 Alpha virt. eigenvalues --   -0.13260  -0.12991  -0.08136  -0.07495  -0.07284
 Alpha virt. eigenvalues --   -0.05906  -0.05772  -0.02277  -0.01495  -0.00884
 Alpha virt. eigenvalues --   -0.00278   0.00606   0.01328   0.01598   0.02507

 Mulliken charges:
               1
     1  N   -0.752194
     2  H    0.421969
     3  H    0.441344
     4  H    0.422001
     5  C   -0.276392
     6  H    0.247913
     7  H    0.247673
     8  C    0.643386
     9  O   -0.534446
    10  N   -0.600760
    11  H    0.374861
    12  C   -0.068619
    13  H    0.190482
    14  C    0.627052
    15  C   -0.256447
    16  H    0.158198
    17  H    0.150710
    18  O   -0.551742
    19  C   -0.101693
    20  H    0.140378
    21  C   -0.453498
    22  H    0.148804
    23  H    0.176195
    24  H    0.132664
    25  C   -0.470434
    26  H    0.135697
    27  H    0.135505
    28  H    0.209606
    29  N   -0.618809
    30  H    0.376448
    31  C   -0.053068
    32  H    0.174967
    33  C    0.630088
    34  C   -0.073830
    35  H    0.147366
    36  O   -0.548033
    37  C   -0.468628
    38  H    0.150230
    39  H    0.166120
    40  H    0.158992
    41  C   -0.443776
    42  H    0.161309
    43  H    0.155900
    44  H    0.136094
    45  N   -0.617803
    46  H    0.362840
    47  C   -0.043180
    48  H    0.200080
    49  C    0.592983
    50  C   -0.283426
    51  H    0.169312
    52  H    0.187526
    53  O   -0.468918
    54  C   -0.276728
    55  H    0.146518
    56  H    0.138544
    57  C   -0.274015
    58  H    0.155519
    59  H    0.131429
    60  C   -0.137910
    61  H    0.123116
    62  H    0.148224
    63  N   -0.718318
    64  H    0.299200
    65  H    0.306673
    66  O   -0.558881
    67  H    0.427636
 Sum of Mulliken charges =   1.00000

 Dipole moment (field-independent basis, Debye):
    X=            -14.4325    Y=              5.5384    Z=              6.0935  Tot=             16.6163
 Quadrupole moment (field-independent basis, Debye-Ang):
   XX=            -29.5769   YY=           -169.1688   ZZ=            -99.6122
   XY=            -20.5068   XZ=            -82.7706   YZ=             -4.7054

 Normal termination of Gaussian 16 at Tue Jul 12 17:42:47 2022.
