 Gaussian 16, Revision C.01,
 Gaussian 16:  ES64L-G16RevC.01  3-Jul-2019

 ----------------------------------------------------------------------
 # B3LYP/6-31G* empiricaldispersion=gd3bj guess=read geom=check nosymm
 integral(ultrafinegrid)
 ----------------------------------------------------------------------

 ------------------------------------------------------
 Candidate Structure: Conf:121 Charge calc in gas phase
 ------------------------------------------------------
 Structure from the checkpoint file:  "conf-121.chk"
 Charge =  1 Multiplicity = 1

                          Input orientation:
 ---------------------------------------------------------------------
 Center     Atomic      Atomic             Coordinates (Angstroms)
 Number     Number       Type             X           Y           Z
 ---------------------------------------------------------------------
      1          7           0       -5.621328    1.464507    3.548645
      2          1           0       -6.164094    2.324400    3.659340
      3          1           0       -5.766663    1.047669    2.559634
      4          1           0       -5.923360    0.795575    4.261409
      5          6           0       -4.135489    1.684469    3.520407
      6          1           0       -3.661254    1.132737    4.333235
      7          1           0       -3.917561    2.747744    3.630571
      8          6           0       -3.724328    1.146977    2.122744
      9          8           0       -4.648029    0.727227    1.401974
     10          7           0       -2.442968    1.180082    1.825794
     11          1           0       -1.716143    1.496233    2.476605
     12          6           0       -1.862428    0.691529    0.571709
     13          1           0       -2.324218   -0.269872    0.332075
     14          6           0       -0.371243    0.517876    0.913134
     15          6           0       -2.094620    1.703255   -0.574666
     16          1           0       -3.160930    1.962379   -0.550326
     17          1           0       -1.519390    2.612044   -0.359374
     18          8           0        0.090407    1.071437    1.916379
     19          6           0       -1.747757    1.216092   -1.994924
     20          1           0       -0.665687    1.065764   -2.070491
     21          6           0       -2.449327   -0.098286   -2.362102
     22          1           0       -3.536742   -0.011294   -2.242494
     23          1           0       -2.244427   -0.361130   -3.404416
     24          1           0       -2.118556   -0.948143   -1.751490
     25          6           0       -2.114449    2.319657   -2.995115
     26          1           0       -3.195906    2.507468   -2.998435
     27          1           0       -1.601664    3.252487   -2.744001
     28          1           0       -1.820954    2.033618   -4.010409
     29          7           0        0.340217   -0.242440    0.065662
     30          1           0       -0.078165   -0.540489   -0.810060
     31          6           0        1.801573   -0.240265    0.037172
     32          1           0        2.136181    0.461977    0.805347
     33          6           0        2.161342    0.258668   -1.368543
     34          6           0        2.391243   -1.640742    0.321746
     35          1           0        2.029425   -2.306736   -0.473753
     36          8           0        1.488025   -0.095730   -2.337742
     37          6           0        3.924388   -1.607920    0.273248
     38          1           0        4.325589   -0.924282    1.032791
     39          1           0        4.330132   -2.602558    0.481740
     40          1           0        4.307875   -1.289873   -0.700641
     41          6           0        1.894990   -2.164225    1.673371
     42          1           0        2.218535   -1.506292    2.488881
     43          1           0        2.298016   -3.163787    1.865654
     44          1           0        0.803117   -2.227339    1.702727
     45          7           0        3.202075    1.112816   -1.446069
     46          1           0        3.807421    1.250204   -0.645321
     47          6           0        3.693023    1.636951   -2.708531
     48          1           0        3.346433    0.975480   -3.507836
     49          6           0        5.211771    1.611126   -2.647038
     50          6           0        3.186996    3.072778   -2.971724
     51          1           0        3.547195    3.712100   -2.154568
     52          1           0        3.655336    3.438720   -3.892398
     53          8           0        5.849248    1.429607   -1.631092
     54          6           0        1.661399    3.165386   -3.087631
     55          1           0        1.186510    2.693119   -2.222508
     56          1           0        1.336718    2.601937   -3.970018
     57          6           0        1.175718    4.620156   -3.170490
     58          1           0        1.835414    5.201608   -3.827949
     59          1           0        0.180753    4.653742   -3.633797
     60          6           0        1.098383    5.309084   -1.803447
     61          1           0        2.024405    5.131053   -1.243738
     62          1           0        1.023433    6.399009   -1.946362
     63          7           0       -0.012951    4.759545   -1.003020
     64          1           0        0.045505    5.122147   -0.052405
     65          1           0       -0.891436    5.115430   -1.379315
     66          8           0        5.765596    1.854285   -3.846807
     67          1           0        6.734070    1.856061   -3.721691
 ---------------------------------------------------------------------

 SCF Done:  E(RB3LYP) =  -1396.76947634     A.U. after    2 cycles

 Alpha  occ. eigenvalues --  -19.28173 -19.27559 -19.22170 -19.22056 -19.19842
 Alpha  occ. eigenvalues --  -14.61555 -14.50140 -14.45596 -14.44359 -14.39351
 Alpha  occ. eigenvalues --  -10.44860 -10.42129 -10.39984 -10.39108 -10.36939
 Alpha  occ. eigenvalues --  -10.34455 -10.31419 -10.31418 -10.27806 -10.27714
 Alpha  occ. eigenvalues --  -10.27178 -10.26704 -10.26193 -10.25130 -10.24790
 Alpha  occ. eigenvalues --  -10.24562 -10.24519 -10.24481 -10.24408  -1.20665
 Alpha  occ. eigenvalues --   -1.18611  -1.15181  -1.14170  -1.11920  -1.09683
 Alpha  occ. eigenvalues --   -1.06926  -1.02386  -1.01052  -0.95579  -0.92184
 Alpha  occ. eigenvalues --   -0.89603  -0.88572  -0.87125  -0.84610  -0.83140
 Alpha  occ. eigenvalues --   -0.79251  -0.76504  -0.76290  -0.75786  -0.75639
 Alpha  occ. eigenvalues --   -0.75575  -0.75183  -0.71778  -0.70470  -0.69746
 Alpha  occ. eigenvalues --   -0.68206  -0.67423  -0.66596  -0.65394  -0.64487
 Alpha  occ. eigenvalues --   -0.64242  -0.63817  -0.61694  -0.61308  -0.59384
 Alpha  occ. eigenvalues --   -0.58197  -0.57382  -0.56708  -0.56433  -0.56158
 Alpha  occ. eigenvalues --   -0.55104  -0.54898  -0.54229  -0.53988  -0.53507
 Alpha  occ. eigenvalues --   -0.52995  -0.52857  -0.51731  -0.51196  -0.50884
 Alpha  occ. eigenvalues --   -0.50347  -0.49797  -0.49522  -0.48021  -0.47666
 Alpha  occ. eigenvalues --   -0.47330  -0.46579  -0.46231  -0.46097  -0.45878
 Alpha  occ. eigenvalues --   -0.45209  -0.44898  -0.44782  -0.44463  -0.43614
 Alpha  occ. eigenvalues --   -0.43313  -0.42339  -0.41676  -0.41282  -0.41058
 Alpha  occ. eigenvalues --   -0.40818  -0.40648  -0.40161  -0.39910  -0.39681
 Alpha  occ. eigenvalues --   -0.38904  -0.38825  -0.36398  -0.35888  -0.35417
 Alpha  occ. eigenvalues --   -0.33638  -0.33245  -0.31487
 Alpha virt. eigenvalues --   -0.13240  -0.12925  -0.08055  -0.07445  -0.06885
 Alpha virt. eigenvalues --   -0.05822  -0.05645  -0.02229  -0.01349  -0.00851
 Alpha virt. eigenvalues --   -0.00130   0.00327   0.01161   0.01596   0.02910

 Mulliken charges:
               1
     1  N   -0.752587
     2  H    0.420918
     3  H    0.441128
     4  H    0.421698
     5  C   -0.275872
     6  H    0.247184
     7  H    0.246057
     8  C    0.642630
     9  O   -0.536447
    10  N   -0.602365
    11  H    0.375578
    12  C   -0.072904
    13  H    0.193016
    14  C    0.627933
    15  C   -0.280264
    16  H    0.149170
    17  H    0.180692
    18  O   -0.546804
    19  C   -0.109496
    20  H    0.172746
    21  C   -0.458028
    22  H    0.149632
    23  H    0.171081
    24  H    0.130199
    25  C   -0.462149
    26  H    0.138264
    27  H    0.159715
    28  H    0.158990
    29  N   -0.608657
    30  H    0.370384
    31  C   -0.068215
    32  H    0.179041
    33  C    0.632161
    34  C   -0.077899
    35  H    0.147796
    36  O   -0.544626
    37  C   -0.468687
    38  H    0.148302
    39  H    0.166174
    40  H    0.162946
    41  C   -0.445762
    42  H    0.153111
    43  H    0.159954
    44  H    0.143092
    45  N   -0.592937
    46  H    0.354902
    47  C   -0.057199
    48  H    0.207987
    49  C    0.589413
    50  C   -0.270303
    51  H    0.142306
    52  H    0.169141
    53  O   -0.467317
    54  C   -0.266119
    55  H    0.168127
    56  H    0.148458
    57  C   -0.258818
    58  H    0.141779
    59  H    0.137728
    60  C   -0.154162
    61  H    0.145123
    62  H    0.133243
    63  N   -0.719482
    64  H    0.300925
    65  H    0.298829
    66  O   -0.556560
    67  H    0.426104
 Sum of Mulliken charges =   1.00000

 Dipole moment (field-independent basis, Debye):
    X=            -14.6304    Y=              9.6005    Z=             10.8360  Tot=             20.5824
 Quadrupole moment (field-independent basis, Debye-Ang):
   XX=            -49.8091   YY=           -136.5284   ZZ=           -112.9662
   XY=            -26.5844   XZ=            -88.6624   YZ=             10.1853

 Normal termination of Gaussian 16 at Tue Jul 12 17:43:10 2022.
