 Gaussian 16, Revision C.01,
 Gaussian 16:  ES64L-G16RevC.01  3-Jul-2019

 ----------------------------------------------------------------------
 # B3LYP/6-31G* empiricaldispersion=gd3bj guess=read geom=check nosymm
 integral(ultrafinegrid)
 ----------------------------------------------------------------------

 ------------------------------------------------------
 Candidate Structure: Conf:474 Charge calc in gas phase
 ------------------------------------------------------
 Structure from the checkpoint file:  "conf-474.chk"
 Charge =  1 Multiplicity = 1

                          Input orientation:
 ---------------------------------------------------------------------
 Center     Atomic      Atomic             Coordinates (Angstroms)
 Number     Number       Type             X           Y           Z
 ---------------------------------------------------------------------
      1          7           0       -6.256354    1.180431    3.419549
      2          1           0       -6.437510    0.561877    4.214362
      3          1           0       -6.958139    1.925009    3.421723
      4          1           0       -6.303622    0.623124    2.497337
      5          6           0       -4.841744    1.683648    3.358234
      6          1           0       -4.283913    1.330721    4.226963
      7          1           0       -4.838172    2.774451    3.345818
      8          6           0       -4.303233    1.085055    2.030700
      9          8           0       -5.102755    0.398862    1.372464
     10          7           0       -3.052463    1.369117    1.724157
     11          1           0       -2.419676    1.827043    2.388141
     12          6           0       -2.308603    0.827839    0.585287
     13          1           0       -2.708402   -0.159009    0.338883
     14          6           0       -0.856969    0.736367    1.092500
     15          6           0       -2.342972    1.764737   -0.641543
     16          1           0       -1.959298    2.741271   -0.318186
     17          1           0       -1.624701    1.380418   -1.377353
     18          8           0       -0.515146    1.384556    2.084502
     19          6           0       -3.710048    1.937178   -1.322619
     20          1           0       -4.432155    2.286476   -0.570381
     21          6           0       -3.596739    3.016673   -2.407708
     22          1           0       -2.880385    2.715896   -3.181500
     23          1           0       -4.563051    3.184084   -2.894863
     24          1           0       -3.255353    3.971737   -1.991758
     25          6           0       -4.227875    0.620453   -1.913325
     26          1           0       -3.511348    0.212448   -2.637080
     27          1           0       -4.410853   -0.133441   -1.141775
     28          1           0       -5.173935    0.781823   -2.440748
     29          7           0       -0.043828   -0.027310    0.342862
     30          1           0       -0.393253   -0.362228   -0.553896
     31          6           0        1.401415    0.175073    0.301101
     32          1           0        1.625602    1.074961    0.882021
     33          6           0        1.719479    0.413768   -1.185869
     34          6           0        2.200276   -1.013141    0.888821
     35          1           0        3.262221   -0.749626    0.783091
     36          8           0        0.912967    0.080650   -2.058596
     37          6           0        1.889018   -1.171749    2.380342
     38          1           0        0.837556   -1.441947    2.527870
     39          1           0        2.505142   -1.964346    2.816877
     40          1           0        2.076892   -0.245057    2.932559
     41          6           0        1.946349   -2.312743    0.117369
     42          1           0        0.893476   -2.608461    0.191657
     43          1           0        2.549305   -3.124878    0.534980
     44          1           0        2.195731   -2.218290   -0.944342
     45          7           0        2.903244    1.000272   -1.444197
     46          1           0        3.583628    1.139452   -0.705250
     47          6           0        3.394432    1.215913   -2.796936
     48          1           0        2.947067    0.458618   -3.447709
     49          6           0        4.901751    1.023747   -2.751928
     50          6           0        3.049819    2.620410   -3.344734
     51          1           0        3.571080    3.372587   -2.737316
     52          1           0        3.456762    2.691197   -4.359630
     53          8           0        5.549290    0.968823   -1.727439
     54          6           0        1.547148    2.912787   -3.356095
     55          1           0        1.163917    2.875814   -2.328374
     56          1           0        1.024685    2.118860   -3.903265
     57          6           0        1.215747    4.274327   -3.970522
     58          1           0        1.768915    5.064034   -3.439941
     59          1           0        1.542497    4.315280   -5.016419
     60          6           0       -0.280002    4.587094   -3.917579
     61          1           0       -0.828441    3.802720   -4.455708
     62          1           0       -0.618487    4.535058   -2.863371
     63          7           0       -0.563471    5.860408   -4.579545
     64          1           0       -1.565571    6.040129   -4.586158
     65          1           0       -0.138993    6.624639   -4.055786
     66          8           0        5.435212    0.964450   -3.982347
     67          1           0        6.402331    0.882163   -3.874765
 ---------------------------------------------------------------------

 SCF Done:  E(RB3LYP) =  -1396.76358433     A.U. after    1 cycles

 Alpha  occ. eigenvalues --  -19.28740 -19.27767 -19.22850 -19.22294 -19.20699
 Alpha  occ. eigenvalues --  -14.62102 -14.50779 -14.45656 -14.44790 -14.36711
 Alpha  occ. eigenvalues --  -10.45502 -10.42577 -10.40237 -10.39581 -10.37619
 Alpha  occ. eigenvalues --  -10.35181 -10.31979 -10.31765 -10.28915 -10.28227
 Alpha  occ. eigenvalues --  -10.27697 -10.26618 -10.26249 -10.25595 -10.25474
 Alpha  occ. eigenvalues --  -10.24724 -10.24714 -10.24713 -10.23900  -1.21217
 Alpha  occ. eigenvalues --   -1.18853  -1.15745  -1.14755  -1.12639  -1.09953
 Alpha  occ. eigenvalues --   -1.07577  -1.02826  -1.01463  -0.93578  -0.92920
 Alpha  occ. eigenvalues --   -0.90195  -0.89222  -0.87258  -0.85442  -0.83087
 Alpha  occ. eigenvalues --   -0.79480  -0.76966  -0.76560  -0.76104  -0.75992
 Alpha  occ. eigenvalues --   -0.75874  -0.75811  -0.72573  -0.70668  -0.69206
 Alpha  occ. eigenvalues --   -0.68255  -0.67891  -0.66728  -0.65454  -0.65108
 Alpha  occ. eigenvalues --   -0.64610  -0.64169  -0.62424  -0.61997  -0.59918
 Alpha  occ. eigenvalues --   -0.58425  -0.57700  -0.57392  -0.56857  -0.55641
 Alpha  occ. eigenvalues --   -0.55149  -0.54655  -0.54513  -0.53960  -0.53762
 Alpha  occ. eigenvalues --   -0.53650  -0.52578  -0.52006  -0.51765  -0.51146
 Alpha  occ. eigenvalues --   -0.50593  -0.49777  -0.49293  -0.48775  -0.48181
 Alpha  occ. eigenvalues --   -0.48167  -0.48116  -0.46731  -0.46174  -0.45860
 Alpha  occ. eigenvalues --   -0.45505  -0.45295  -0.45005  -0.44233  -0.43701
 Alpha  occ. eigenvalues --   -0.42591  -0.42137  -0.41856  -0.41773  -0.41520
 Alpha  occ. eigenvalues --   -0.41331  -0.41176  -0.40865  -0.40014  -0.39809
 Alpha  occ. eigenvalues --   -0.39597  -0.38982  -0.36781  -0.36200  -0.35885
 Alpha  occ. eigenvalues --   -0.34404  -0.33864  -0.28869
 Alpha virt. eigenvalues --   -0.13739  -0.13368  -0.08517  -0.07909  -0.07138
 Alpha virt. eigenvalues --   -0.06377  -0.06211  -0.02723  -0.02295  -0.00738
 Alpha virt. eigenvalues --   -0.00175   0.00392   0.00638   0.01028   0.02457

 Mulliken charges:
               1
     1  N   -0.751369
     2  H    0.423339
     3  H    0.422900
     4  H    0.441212
     5  C   -0.278818
     6  H    0.249420
     7  H    0.249132
     8  C    0.640589
     9  O   -0.529413
    10  N   -0.586069
    11  H    0.373295
    12  C   -0.090453
    13  H    0.195931
    14  C    0.620891
    15  C   -0.271380
    16  H    0.150407
    17  H    0.177584
    18  O   -0.539582
    19  C   -0.071117
    20  H    0.111975
    21  C   -0.452315
    22  H    0.161926
    23  H    0.156083
    24  H    0.144268
    25  C   -0.461804
    26  H    0.154275
    27  H    0.157028
    28  H    0.157730
    29  N   -0.589803
    30  H    0.363909
    31  C   -0.087594
    32  H    0.183181
    33  C    0.642310
    34  C   -0.079185
    35  H    0.144140
    36  O   -0.553204
    37  C   -0.444937
    38  H    0.146641
    39  H    0.160017
    40  H    0.156534
    41  C   -0.463842
    42  H    0.147900
    43  H    0.164051
    44  H    0.163729
    45  N   -0.607293
    46  H    0.357647
    47  C   -0.051079
    48  H    0.204497
    49  C    0.588051
    50  C   -0.264758
    51  H    0.145165
    52  H    0.172391
    53  O   -0.467044
    54  C   -0.261415
    55  H    0.126451
    56  H    0.156066
    57  C   -0.252883
    58  H    0.126901
    59  H    0.159315
    60  C   -0.134719
    61  H    0.141954
    62  H    0.097463
    63  N   -0.711013
    64  H    0.297553
    65  H    0.295283
    66  O   -0.555495
    67  H    0.427454
 Sum of Mulliken charges =   1.00000

 Dipole moment (field-independent basis, Debye):
    X=            -18.1696    Y=              7.1814    Z=             11.2466  Tot=             22.5432
 Quadrupole moment (field-independent basis, Debye-Ang):
   XX=            -17.4240   YY=           -153.3341   ZZ=           -126.1218
   XY=            -34.4792   XZ=            -93.4242   YZ=             15.2685

 Normal termination of Gaussian 16 at Tue Jul 12 17:42:46 2022.
