 Gaussian 16, Revision C.01,
 Gaussian 16:  ES64L-G16RevC.01  3-Jul-2019

 ----------------------------------------------------------------------
 # B3LYP/6-31G* empiricaldispersion=gd3bj guess=read geom=check nosymm
 integral(ultrafinegrid)
 ----------------------------------------------------------------------

 ------------------------------------------------------
 Candidate Structure: Conf:472 Charge calc in gas phase
 ------------------------------------------------------
 Structure from the checkpoint file:  "conf-472.chk"
 Charge =  1 Multiplicity = 1

                          Input orientation:
 ---------------------------------------------------------------------
 Center     Atomic      Atomic             Coordinates (Angstroms)
 Number     Number       Type             X           Y           Z
 ---------------------------------------------------------------------
      1          7           0       -5.662418    1.533560    2.932297
      2          1           0       -6.290234    2.333406    2.819216
      3          1           0       -5.692663    0.904577    2.053718
      4          1           0       -5.956524    1.003990    3.756853
      5          6           0       -4.206466    1.904428    2.941533
      6          1           0       -3.744871    1.574228    3.873184
      7          1           0       -4.099722    2.986288    2.849350
      8          6           0       -3.640345    1.154214    1.705737
      9          8           0       -4.455519    0.488144    1.043867
     10          7           0       -2.350686    1.282088    1.470562
     11          1           0       -1.725271    1.850014    2.049091
     12          6           0       -1.638160    0.667523    0.346015
     13          1           0       -1.979683   -0.364784    0.237323
     14          6           0       -0.162114    0.736645    0.771017
     15          6           0       -1.895716    1.471240   -0.950632
     16          1           0       -2.981708    1.484619   -1.107064
     17          1           0       -1.581165    2.504973   -0.759931
     18          8           0        0.200394    1.615430    1.559880
     19          6           0       -1.217445    0.958496   -2.235619
     20          1           0       -0.130128    0.966587   -2.085631
     21          6           0       -1.641146   -0.470795   -2.595723
     22          1           0       -2.726221   -0.527505   -2.747021
     23          1           0       -1.153831   -0.789766   -3.521737
     24          1           0       -1.374615   -1.207038   -1.828112
     25          6           0       -1.540560    1.923023   -3.385924
     26          1           0       -2.624012    1.973062   -3.554486
     27          1           0       -1.192233    2.938106   -3.159569
     28          1           0       -1.078529    1.609040   -4.328234
     29          7           0        0.645423   -0.171012    0.208568
     30          1           0        0.292761   -0.816412   -0.494240
     31          6           0        2.100283   -0.060873    0.199556
     32          1           0        2.355896    0.993155    0.349020
     33          6           0        2.493282   -0.516869   -1.214620
     34          6           0        2.763382   -0.890888    1.328886
     35          1           0        2.302609   -0.516075    2.252112
     36          8           0        1.777910   -1.316039   -1.824397
     37          6           0        2.463278   -2.387612    1.202450
     38          1           0        2.904266   -2.809593    0.293065
     39          1           0        2.876635   -2.928468    2.059699
     40          1           0        1.385883   -2.579376    1.171410
     41          6           0        4.270299   -0.619562    1.402210
     42          1           0        4.789708   -0.999754    0.515766
     43          1           0        4.702549   -1.117187    2.275747
     44          1           0        4.484187    0.452695    1.493546
     45          7           0        3.616132    0.012880   -1.741686
     46          1           0        4.132172    0.723569   -1.241293
     47          6           0        3.944595   -0.209289   -3.149525
     48          1           0        3.857911   -1.278454   -3.357193
     49          6           0        5.371776    0.200000   -3.453779
     50          6           0        2.951849    0.554381   -4.057284
     51          1           0        1.955483    0.281920   -3.695344
     52          1           0        3.079645    1.629075   -3.881477
     53          8           0        6.000267   -0.183481   -4.409144
     54          6           0        3.042816    0.215764   -5.550705
     55          1           0        3.274872   -0.849631   -5.666636
     56          1           0        3.872954    0.757531   -6.018234
     57          6           0        1.721119    0.512121   -6.272002
     58          1           0        1.796049    0.186244   -7.318359
     59          1           0        0.919025   -0.084144   -5.816624
     60          6           0        1.298249    1.981341   -6.234888
     61          1           0        1.311970    2.347841   -5.201065
     62          1           0        2.037036    2.584418   -6.793071
     63          7           0       -0.080549    2.119125   -6.718209
     64          1           0       -0.341648    3.103431   -6.747816
     65          1           0       -0.140053    1.784724   -7.679883
     66          8           0        5.849490    1.108369   -2.562468
     67          1           0        6.752370    1.339641   -2.852848
 ---------------------------------------------------------------------

 SCF Done:  E(RB3LYP) =  -1396.76063526     A.U. after    3 cycles

 Alpha  occ. eigenvalues --  -19.28397 -19.27976 -19.22282 -19.21666 -19.20639
 Alpha  occ. eigenvalues --  -14.61780 -14.50560 -14.45737 -14.45115 -14.37247
 Alpha  occ. eigenvalues --  -10.45151 -10.42333 -10.39983 -10.39239 -10.37669
 Alpha  occ. eigenvalues --  -10.34864 -10.32138 -10.31777 -10.28541 -10.27612
 Alpha  occ. eigenvalues --  -10.27358 -10.26477 -10.26024 -10.25185 -10.25106
 Alpha  occ. eigenvalues --  -10.24585 -10.24434 -10.24082 -10.23868  -1.20905
 Alpha  occ. eigenvalues --   -1.18566  -1.15414  -1.14325  -1.12704  -1.09558
 Alpha  occ. eigenvalues --   -1.07273  -1.02680  -1.01568  -0.93840  -0.92503
 Alpha  occ. eigenvalues --   -0.89894  -0.88921  -0.87145  -0.84884  -0.82795
 Alpha  occ. eigenvalues --   -0.79532  -0.76730  -0.76067  -0.75827  -0.75776
 Alpha  occ. eigenvalues --   -0.75720  -0.75338  -0.71924  -0.70751  -0.69602
 Alpha  occ. eigenvalues --   -0.68756  -0.67659  -0.67263  -0.65225  -0.64621
 Alpha  occ. eigenvalues --   -0.64182  -0.63673  -0.62135  -0.61864  -0.59542
 Alpha  occ. eigenvalues --   -0.59225  -0.57329  -0.56440  -0.55891  -0.55755
 Alpha  occ. eigenvalues --   -0.55166  -0.54660  -0.54221  -0.53962  -0.53735
 Alpha  occ. eigenvalues --   -0.53301  -0.52141  -0.51893  -0.51337  -0.50929
 Alpha  occ. eigenvalues --   -0.50357  -0.49970  -0.49533  -0.48400  -0.47807
 Alpha  occ. eigenvalues --   -0.47534  -0.46920  -0.46684  -0.46248  -0.45733
 Alpha  occ. eigenvalues --   -0.45514  -0.44961  -0.44564  -0.43810  -0.43599
 Alpha  occ. eigenvalues --   -0.43102  -0.42575  -0.41749  -0.41456  -0.41347
 Alpha  occ. eigenvalues --   -0.40919  -0.40746  -0.40454  -0.39751  -0.39153
 Alpha  occ. eigenvalues --   -0.39079  -0.38354  -0.36482  -0.35896  -0.35504
 Alpha  occ. eigenvalues --   -0.34522  -0.33176  -0.29487
 Alpha virt. eigenvalues --   -0.13436  -0.13130  -0.08512  -0.07664  -0.07208
 Alpha virt. eigenvalues --   -0.06203  -0.06005  -0.02442  -0.01643  -0.01099
 Alpha virt. eigenvalues --   -0.01005   0.00348   0.01198   0.01275   0.02542

 Mulliken charges:
               1
     1  N   -0.751985
     2  H    0.422251
     3  H    0.441487
     4  H    0.422414
     5  C   -0.276440
     6  H    0.248159
     7  H    0.247766
     8  C    0.643266
     9  O   -0.533577
    10  N   -0.600702
    11  H    0.374475
    12  C   -0.068680
    13  H    0.191841
    14  C    0.619722
    15  C   -0.257095
    16  H    0.159969
    17  H    0.149802
    18  O   -0.549474
    19  C   -0.098305
    20  H    0.135888
    21  C   -0.453220
    22  H    0.149569
    23  H    0.177772
    24  H    0.134126
    25  C   -0.472197
    26  H    0.140862
    27  H    0.135393
    28  H    0.206397
    29  N   -0.618722
    30  H    0.381084
    31  C   -0.057952
    32  H    0.171757
    33  C    0.638933
    34  C   -0.071943
    35  H    0.153871
    36  O   -0.549355
    37  C   -0.457551
    38  H    0.166444
    39  H    0.158912
    40  H    0.145311
    41  C   -0.469318
    42  H    0.158083
    43  H    0.167965
    44  H    0.145318
    45  N   -0.623664
    46  H    0.359444
    47  C   -0.040223
    48  H    0.207758
    49  C    0.591166
    50  C   -0.289676
    51  H    0.180655
    52  H    0.145123
    53  O   -0.441223
    54  C   -0.266236
    55  H    0.155252
    56  H    0.155749
    57  C   -0.269958
    58  H    0.139945
    59  H    0.148748
    60  C   -0.136463
    61  H    0.134665
    62  H    0.124734
    63  N   -0.721326
    64  H    0.301154
    65  H    0.302447
    66  O   -0.587669
    67  H    0.427275
 Sum of Mulliken charges =   1.00000

 Dipole moment (field-independent basis, Debye):
    X=            -14.2370    Y=              9.1057    Z=              8.5536  Tot=             18.9412
 Quadrupole moment (field-independent basis, Debye-Ang):
   XX=            -45.6305   YY=           -156.4941   ZZ=           -114.6425
   XY=            -27.5522   XZ=            -66.4439   YZ=              1.5011

 Normal termination of Gaussian 16 at Tue Jul 12 17:43:12 2022.
