 Gaussian 16, Revision C.01,
 Gaussian 16:  ES64L-G16RevC.01  3-Jul-2019

 ----------------------------------------------------------------------
 # B3LYP/6-31G* empiricaldispersion=gd3bj guess=read geom=check nosymm
 integral(ultrafinegrid)
 ----------------------------------------------------------------------

 ------------------------------------------------------
 Candidate Structure: Conf:252 Charge calc in gas phase
 ------------------------------------------------------
 Structure from the checkpoint file:  "conf-252.chk"
 Charge =  1 Multiplicity = 1

                          Input orientation:
 ---------------------------------------------------------------------
 Center     Atomic      Atomic             Coordinates (Angstroms)
 Number     Number       Type             X           Y           Z
 ---------------------------------------------------------------------
      1          7           0       -6.054863    2.822750    1.587733
      2          1           0       -6.380248    2.747160    2.555054
      3          1           0       -6.665563    3.476319    1.090752
      4          1           0       -6.076995    1.855573    1.113035
      5          6           0       -4.593441    3.151759    1.467996
      6          1           0       -4.165318    3.305978    2.459648
      7          1           0       -4.466707    4.058783    0.875253
      8          6           0       -3.999328    1.905411    0.758379
      9          8           0       -4.801559    1.003890    0.464543
     10          7           0       -2.700768    1.923962    0.526578
     11          1           0       -2.087614    2.648645    0.911623
     12          6           0       -1.922380    0.820805   -0.038735
     13          1           0       -2.405512   -0.123410    0.224569
     14          6           0       -0.538142    0.952324    0.621456
     15          6           0       -1.743335    0.949379   -1.567057
     16          1           0       -1.297823    1.933684   -1.761608
     17          1           0       -0.998002    0.207863   -1.881908
     18          8           0       -0.201271    2.026998    1.121932
     19          6           0       -3.012130    0.768606   -2.415448
     20          1           0       -3.770562    1.485150   -2.068789
     21          6           0       -2.684630    1.098726   -3.878106
     22          1           0       -1.903525    0.430385   -4.260981
     23          1           0       -3.567772    0.980555   -4.514525
     24          1           0       -2.323379    2.127987   -3.985794
     25          6           0       -3.591052   -0.645237   -2.287775
     26          1           0       -2.847758   -1.396767   -2.581780
     27          1           0       -3.921889   -0.863454   -1.267792
     28          1           0       -4.459697   -0.765788   -2.943473
     29          7           0        0.235680   -0.146976    0.537826
     30          1           0       -0.090568   -0.904816   -0.057768
     31          6           0        1.698257   -0.074743    0.546565
     32          1           0        1.971473    0.948362    0.820582
     33          6           0        2.092926   -0.389461   -0.906850
     34          6           0        2.321284   -1.067743    1.553275
     35          1           0        2.015440   -2.075304    1.238944
     36          8           0        1.421408   -1.193209   -1.558518
     37          6           0        3.853513   -0.992371    1.526822
     38          1           0        4.199017    0.012935    1.802769
     39          1           0        4.276308   -1.692165    2.254060
     40          1           0        4.271750   -1.236908    0.546292
     41          6           0        1.782154   -0.801621    2.962481
     42          1           0        2.060784    0.203375    3.302416
     43          1           0        2.198498   -1.524002    3.671781
     44          1           0        0.691690   -0.880158    2.996018
     45          7           0        3.154717    0.275012   -1.408134
     46          1           0        3.697943    0.876382   -0.804466
     47          6           0        3.607406    0.072299   -2.776896
     48          1           0        3.173106   -0.878356   -3.101620
     49          6           0        5.119222   -0.071641   -2.873058
     50          6           0        3.123821    1.182887   -3.733431
     51          1           0        3.615322    2.129658   -3.470560
     52          1           0        3.475502    0.915370   -4.734397
     53          8           0        5.705889   -0.247886   -3.912666
     54          6           0        1.603288    1.369283   -3.707131
     55          1           0        1.305067    1.703648   -2.705831
     56          1           0        1.111215    0.399567   -3.856175
     57          6           0        1.097748    2.375325   -4.749006
     58          1           0        0.054894    2.633900   -4.516466
     59          1           0        1.672072    3.309352   -4.666892
     60          6           0        1.156971    1.870719   -6.203964
     61          1           0        0.839768    2.682126   -6.869670
     62          1           0        2.192635    1.640872   -6.481802
     63          7           0        0.346473    0.695339   -6.521895
     64          1           0        0.655277   -0.116391   -5.991364
     65          1           0       -0.628662    0.856739   -6.275512
     66          8           0        5.742634    0.045754   -1.674155
     67          1           0        6.698777   -0.047355   -1.850271
 ---------------------------------------------------------------------

 SCF Done:  E(RB3LYP) =  -1396.75874978     A.U. after    3 cycles

 Alpha  occ. eigenvalues --  -19.29014 -19.28025 -19.23270 -19.21658 -19.20946
 Alpha  occ. eigenvalues --  -14.62371 -14.51143 -14.46260 -14.45587 -14.37023
 Alpha  occ. eigenvalues --  -10.45807 -10.42853 -10.40051 -10.40038 -10.38000
 Alpha  occ. eigenvalues --  -10.35558 -10.32461 -10.32050 -10.29237 -10.28612
 Alpha  occ. eigenvalues --  -10.27984 -10.26528 -10.26398 -10.26090 -10.25817
 Alpha  occ. eigenvalues --  -10.25525 -10.25329 -10.25102 -10.24697  -1.21499
 Alpha  occ. eigenvalues --   -1.18628  -1.16038  -1.15179  -1.12966  -1.09587
 Alpha  occ. eigenvalues --   -1.07920  -1.03333  -1.02058  -0.93812  -0.93253
 Alpha  occ. eigenvalues --   -0.90537  -0.89606  -0.87548  -0.85868  -0.83218
 Alpha  occ. eigenvalues --   -0.79729  -0.77294  -0.76987  -0.76450  -0.76353
 Alpha  occ. eigenvalues --   -0.76173  -0.76099  -0.72711  -0.70951  -0.70110
 Alpha  occ. eigenvalues --   -0.68582  -0.68435  -0.67784  -0.65989  -0.65771
 Alpha  occ. eigenvalues --   -0.64661  -0.64239  -0.62728  -0.62244  -0.60453
 Alpha  occ. eigenvalues --   -0.59578  -0.57993  -0.57699  -0.56813  -0.56196
 Alpha  occ. eigenvalues --   -0.55611  -0.54965  -0.54901  -0.54535  -0.54283
 Alpha  occ. eigenvalues --   -0.53552  -0.52725  -0.52226  -0.51840  -0.51078
 Alpha  occ. eigenvalues --   -0.50359  -0.50133  -0.49456  -0.48823  -0.48505
 Alpha  occ. eigenvalues --   -0.48105  -0.47825  -0.47422  -0.47105  -0.46739
 Alpha  occ. eigenvalues --   -0.45977  -0.45778  -0.45660  -0.44422  -0.44006
 Alpha  occ. eigenvalues --   -0.43723  -0.42963  -0.42383  -0.42221  -0.42006
 Alpha  occ. eigenvalues --   -0.41870  -0.41410  -0.40881  -0.40385  -0.40140
 Alpha  occ. eigenvalues --   -0.39731  -0.38954  -0.37154  -0.36690  -0.36469
 Alpha  occ. eigenvalues --   -0.34670  -0.33489  -0.28911
 Alpha virt. eigenvalues --   -0.14020  -0.13604  -0.09082  -0.08165  -0.07068
 Alpha virt. eigenvalues --   -0.06788  -0.06559  -0.03010  -0.02614  -0.01584
 Alpha virt. eigenvalues --   -0.01341  -0.00306   0.00151   0.01033   0.01273

 Mulliken charges:
               1
     1  N   -0.751064
     2  H    0.423909
     3  H    0.423584
     4  H    0.441425
     5  C   -0.278725
     6  H    0.249720
     7  H    0.249585
     8  C    0.641229
     9  O   -0.528902
    10  N   -0.586432
    11  H    0.373203
    12  C   -0.090974
    13  H    0.195631
    14  C    0.619480
    15  C   -0.275966
    16  H    0.153360
    17  H    0.180936
    18  O   -0.535024
    19  C   -0.072494
    20  H    0.113893
    21  C   -0.457811
    22  H    0.152333
    23  H    0.160127
    24  H    0.150097
    25  C   -0.461982
    26  H    0.154632
    27  H    0.156927
    28  H    0.159598
    29  N   -0.586998
    30  H    0.357934
    31  C   -0.082830
    32  H    0.176812
    33  C    0.635974
    34  C   -0.077973
    35  H    0.148783
    36  O   -0.548592
    37  C   -0.474203
    38  H    0.142709
    39  H    0.168612
    40  H    0.168373
    41  C   -0.445604
    42  H    0.151365
    43  H    0.162202
    44  H    0.149811
    45  N   -0.593254
    46  H    0.350517
    47  C   -0.073172
    48  H    0.220188
    49  C    0.597308
    50  C   -0.266812
    51  H    0.142685
    52  H    0.184995
    53  O   -0.441326
    54  C   -0.270318
    55  H    0.125264
    56  H    0.140676
    57  C   -0.270842
    58  H    0.121428
    59  H    0.133065
    60  C   -0.149879
    61  H    0.151636
    62  H    0.154170
    63  N   -0.706760
    64  H    0.299537
    65  H    0.297525
    66  O   -0.579776
    67  H    0.426477
 Sum of Mulliken charges =   1.00000

 Dipole moment (field-independent basis, Debye):
    X=            -17.1698    Y=             12.6609    Z=              7.1532  Tot=             22.5005
 Quadrupole moment (field-independent basis, Debye-Ang):
   XX=            -25.2708   YY=           -135.1307   ZZ=           -179.3427
   XY=            -66.2410   XZ=            -27.5194   YZ=              9.4089

 Normal termination of Gaussian 16 at Tue Jul 12 17:43:15 2022.
