 Gaussian 16, Revision C.01,
 Gaussian 16:  ES64L-G16RevC.01  3-Jul-2019

 ----------------------------------------------------------------------
 # B3LYP/6-31G* empiricaldispersion=gd3bj guess=read geom=check nosymm
 integral(ultrafinegrid)
 ----------------------------------------------------------------------

 -----------------------------------------------------
 Candidate Structure: Conf:34 Charge calc in gas phase
 -----------------------------------------------------
 Structure from the checkpoint file:  "conf-34.chk"
 Charge =  1 Multiplicity = 1

                          Input orientation:
 ---------------------------------------------------------------------
 Center     Atomic      Atomic             Coordinates (Angstroms)
 Number     Number       Type             X           Y           Z
 ---------------------------------------------------------------------
      1          7           0       -3.626848    0.362475    4.569231
      2          1           0       -2.879204    0.599963    5.226622
      3          1           0       -4.494026    0.226469    5.095040
      4          1           0       -3.368894   -0.532986    4.037196
      5          6           0       -3.749949    1.340677    3.434958
      6          1           0       -3.004180    2.128751    3.550452
      7          1           0       -4.752284    1.771133    3.418308
      8          6           0       -3.426569    0.491441    2.185912
      9          8           0       -3.155727   -0.699740    2.372577
     10          7           0       -3.449293    1.108058    1.001560
     11          1           0       -3.521278    2.119752    1.022718
     12          6           0       -2.597287    0.585466   -0.077928
     13          1           0       -2.948816   -0.417296   -0.328365
     14          6           0       -1.158690    0.521274    0.493904
     15          6           0       -2.712625    1.529360   -1.287809
     16          1           0       -3.779322    1.625410   -1.530934
     17          1           0       -2.361313    2.523191   -0.974526
     18          8           0       -0.840132    1.224527    1.454077
     19          6           0       -1.949328    1.110221   -2.558215
     20          1           0       -0.881047    1.038374   -2.323637
     21          6           0       -2.411627   -0.249309   -3.097715
     22          1           0       -3.477285   -0.224557   -3.357551
     23          1           0       -1.848283   -0.510805   -3.997911
     24          1           0       -2.265245   -1.069191   -2.384311
     25          6           0       -2.117287    2.196980   -3.627727
     26          1           0       -3.170168    2.308955   -3.914680
     27          1           0       -1.758758    3.169933   -3.273188
     28          1           0       -1.550662    1.943239   -4.528398
     29          7           0       -0.341415   -0.344516   -0.128513
     30          1           0       -0.627004   -0.780771   -1.001292
     31          6           0        1.098597   -0.373089    0.073608
     32          1           0        1.393146    0.580778    0.522479
     33          6           0        1.706845   -0.511717   -1.330566
     34          6           0        1.549721   -1.528710    1.006337
     35          1           0        2.643242   -1.450659    1.085398
     36          8           0        1.015401   -0.883979   -2.280993
     37          6           0        0.953680   -1.353709    2.407559
     38          1           0       -0.138090   -1.442057    2.375949
     39          1           0        1.338324   -2.128232    3.079569
     40          1           0        1.198863   -0.373443    2.828605
     41          6           0        1.204265   -2.902624    0.421525
     42          1           0        0.119384   -3.016674    0.315616
     43          1           0        1.559694   -3.697093    1.085053
     44          1           0        1.656549   -3.058224   -0.562908
     45          7           0        3.017661   -0.212118   -1.428856
     46          1           0        3.569373   -0.044889   -0.594718
     47          6           0        3.782918   -0.436654   -2.645792
     48          1           0        3.284673   -1.223336   -3.220705
     49          6           0        5.160075   -0.916461   -2.215908
     50          6           0        3.903342    0.829166   -3.524867
     51          1           0        4.471478    1.589372   -2.972005
     52          1           0        4.495870    0.566760   -4.408504
     53          8           0        5.573383   -0.864623   -1.076196
     54          6           0        2.546721    1.398799   -3.946002
     55          1           0        1.981647    1.685230   -3.049811
     56          1           0        1.956787    0.615149   -4.437027
     57          6           0        2.670360    2.614309   -4.868770
     58          1           0        3.284692    3.388738   -4.385790
     59          1           0        3.197493    2.331506   -5.791310
     60          6           0        1.301225    3.211284   -5.229071
     61          1           0        0.684497    2.437403   -5.705523
     62          1           0        0.777903    3.490738   -4.304353
     63          7           0        1.306079    4.379028   -6.108431
     64          1           0        1.878223    5.116913   -5.699332
     65          1           0        1.748920    4.141365   -6.995133
     66          8           0        5.879856   -1.367742   -3.255442
     67          1           0        6.758166   -1.620215   -2.911261
 ---------------------------------------------------------------------

 SCF Done:  E(RB3LYP) =  -1396.76359093     A.U. after    1 cycles

 Alpha  occ. eigenvalues --  -19.28826 -19.28016 -19.22549 -19.21762 -19.20761
 Alpha  occ. eigenvalues --  -14.61981 -14.50563 -14.45494 -14.44858 -14.36458
 Alpha  occ. eigenvalues --  -10.45293 -10.42192 -10.40476 -10.38867 -10.37717
 Alpha  occ. eigenvalues --  -10.34849 -10.32071 -10.31936 -10.29302 -10.28104
 Alpha  occ. eigenvalues --  -10.27686 -10.26438 -10.26301 -10.25499 -10.25407
 Alpha  occ. eigenvalues --  -10.25054 -10.24878 -10.24871 -10.24110  -1.21325
 Alpha  occ. eigenvalues --   -1.19099  -1.15705  -1.13819  -1.12627  -1.10189
 Alpha  occ. eigenvalues --   -1.07460  -1.02444  -1.01568  -0.93351  -0.92638
 Alpha  occ. eigenvalues --   -0.90164  -0.89236  -0.87399  -0.84790  -0.83173
 Alpha  occ. eigenvalues --   -0.79971  -0.76595  -0.76327  -0.75966  -0.75917
 Alpha  occ. eigenvalues --   -0.75787  -0.74910  -0.73471  -0.70702  -0.69151
 Alpha  occ. eigenvalues --   -0.68423  -0.67322  -0.66803  -0.65748  -0.65018
 Alpha  occ. eigenvalues --   -0.64741  -0.64035  -0.62179  -0.61999  -0.60075
 Alpha  occ. eigenvalues --   -0.59179  -0.57669  -0.57422  -0.55921  -0.55692
 Alpha  occ. eigenvalues --   -0.55501  -0.55147  -0.55022  -0.54014  -0.53687
 Alpha  occ. eigenvalues --   -0.53143  -0.52183  -0.51902  -0.51723  -0.50858
 Alpha  occ. eigenvalues --   -0.50489  -0.49750  -0.49430  -0.49127  -0.47924
 Alpha  occ. eigenvalues --   -0.47578  -0.46819  -0.46526  -0.46366  -0.46233
 Alpha  occ. eigenvalues --   -0.45673  -0.45140  -0.44818  -0.44107  -0.43809
 Alpha  occ. eigenvalues --   -0.42681  -0.42453  -0.41832  -0.41614  -0.41573
 Alpha  occ. eigenvalues --   -0.41428  -0.41039  -0.40971  -0.40754  -0.40412
 Alpha  occ. eigenvalues --   -0.39926  -0.39038  -0.36377  -0.35959  -0.35523
 Alpha  occ. eigenvalues --   -0.34420  -0.33983  -0.28508
 Alpha virt. eigenvalues --   -0.14124  -0.13066  -0.08166  -0.07596  -0.07350
 Alpha virt. eigenvalues --   -0.06711  -0.06302  -0.02772  -0.01788  -0.00943
 Alpha virt. eigenvalues --   -0.00793  -0.00410   0.00234   0.01069   0.02578

 Mulliken charges:
               1
     1  N   -0.749955
     2  H    0.426717
     3  H    0.422414
     4  H    0.441107
     5  C   -0.283321
     6  H    0.260458
     7  H    0.244490
     8  C    0.654896
     9  O   -0.517052
    10  N   -0.573172
    11  H    0.351035
    12  C   -0.074880
    13  H    0.199844
    14  C    0.636161
    15  C   -0.290740
    16  H    0.162295
    17  H    0.147495
    18  O   -0.567755
    19  C   -0.105310
    20  H    0.153804
    21  C   -0.452369
    22  H    0.149758
    23  H    0.177038
    24  H    0.134437
    25  C   -0.450989
    26  H    0.148362
    27  H    0.150332
    28  H    0.169931
    29  N   -0.606237
    30  H    0.378396
    31  C   -0.072030
    32  H    0.180331
    33  C    0.639401
    34  C   -0.077982
    35  H    0.143893
    36  O   -0.550077
    37  C   -0.451121
    38  H    0.147341
    39  H    0.153393
    40  H    0.150783
    41  C   -0.463316
    42  H    0.149895
    43  H    0.161069
    44  H    0.164806
    45  N   -0.607370
    46  H    0.356395
    47  C   -0.052498
    48  H    0.204049
    49  C    0.587772
    50  C   -0.264271
    51  H    0.144983
    52  H    0.170081
    53  O   -0.468408
    54  C   -0.261543
    55  H    0.133091
    56  H    0.155269
    57  C   -0.266542
    58  H    0.127056
    59  H    0.133711
    60  C   -0.145798
    61  H    0.143420
    62  H    0.134252
    63  N   -0.702370
    64  H    0.294940
    65  H    0.298347
    66  O   -0.555397
    67  H    0.427257
 Sum of Mulliken charges =   1.00000

 Dipole moment (field-independent basis, Debye):
    X=             -9.6173    Y=              3.6778    Z=             11.6383  Tot=             15.5393
 Quadrupole moment (field-independent basis, Debye-Ang):
   XX=            -84.5373   YY=           -166.4706   ZZ=            -86.6912
   XY=            -15.9150   XZ=            -81.0764   YZ=             10.2824

 Normal termination of Gaussian 16 at Tue Jul 12 17:42:46 2022.
