 Gaussian 16, Revision C.01,
 Gaussian 16:  ES64L-G16RevC.01  3-Jul-2019

 ----------------------------------------------------------------------
 # B3LYP/6-31G* empiricaldispersion=gd3bj guess=read geom=check nosymm
 integral(ultrafinegrid)
 ----------------------------------------------------------------------

 ------------------------------------------------------
 Candidate Structure: Conf:306 Charge calc in gas phase
 ------------------------------------------------------
 Structure from the checkpoint file:  "conf-306.chk"
 Charge =  1 Multiplicity = 1

                          Input orientation:
 ---------------------------------------------------------------------
 Center     Atomic      Atomic             Coordinates (Angstroms)
 Number     Number       Type             X           Y           Z
 ---------------------------------------------------------------------
      1          7           0       -1.456782    1.228489    4.228727
      2          1           0       -1.158136    1.932664    4.909230
      3          1           0       -1.157953    0.295134    4.538268
      4          1           0       -1.005947    1.376158    3.276514
      5          6           0       -2.951565    1.191906    4.002770
      6          1           0       -3.283238    2.204353    3.768830
      7          1           0       -3.438622    0.825772    4.906947
      8          6           0       -3.037998    0.188440    2.844418
      9          8           0       -2.589170   -0.933713    3.037917
     10          7           0       -3.386750    0.683468    1.630789
     11          1           0       -3.600533    1.672587    1.585327
     12          6           0       -2.645204    0.167841    0.482251
     13          1           0       -2.814056   -0.908871    0.424632
     14          6           0       -1.138022    0.409730    0.753824
     15          6           0       -3.096593    0.854652   -0.813973
     16          1           0       -2.869912    1.928155   -0.738693
     17          1           0       -2.477840    0.472042   -1.635182
     18          8           0       -0.744843    1.208705    1.630890
     19          6           0       -4.582202    0.654294   -1.165309
     20          1           0       -5.187036    1.068227   -0.345633
     21          6           0       -4.912279    1.436921   -2.442479
     22          1           0       -4.343252    1.048567   -3.295910
     23          1           0       -5.976077    1.352084   -2.685558
     24          1           0       -4.674702    2.501683   -2.336386
     25          6           0       -4.941470   -0.828301   -1.318960
     26          1           0       -4.318492   -1.304369   -2.086733
     27          1           0       -4.818744   -1.386745   -0.384451
     28          1           0       -5.986013   -0.938602   -1.626559
     29          7           0       -0.312749   -0.283421   -0.023392
     30          1           0       -0.667088   -0.802575   -0.826557
     31          6           0        1.137313   -0.156435   -0.038287
     32          1           0        1.396032    0.855191    0.290580
     33          6           0        1.536797   -0.368819   -1.510812
     34          6           0        1.833733   -1.193003    0.886304
     35          1           0        2.911395   -1.001817    0.790849
     36          8           0        0.726591   -0.835898   -2.312847
     37          6           0        1.444285   -0.985287    2.355159
     38          1           0        0.382694   -1.210724    2.510316
     39          1           0        2.024297   -1.659583    2.993404
     40          1           0        1.633585    0.044410    2.677966
     41          6           0        1.556400   -2.633656    0.441864
     42          1           0        0.487450   -2.864395    0.512177
     43          1           0        2.090041   -3.337159    1.087987
     44          1           0        1.874697   -2.816375   -0.588827
     45          7           0        2.811299   -0.066456   -1.821556
     46          1           0        3.424991    0.349352   -1.134095
     47          6           0        3.352117   -0.289248   -3.161932
     48          1           0        2.873727   -1.182881   -3.568441
     49          6           0        4.843509   -0.564882   -3.085468
     50          6           0        3.061274    0.904933   -4.100870
     51          1           0        1.984044    1.094373   -4.030230
     52          1           0        3.573356    1.794188   -3.710412
     53          8           0        5.464896   -1.219705   -3.884106
     54          6           0        3.448028    0.657940   -5.561288
     55          1           0        2.940386   -0.248574   -5.918522
     56          1           0        4.522061    0.452564   -5.637788
     57          6           0        3.085781    1.838100   -6.468743
     58          1           0        2.006703    2.041852   -6.399630
     59          1           0        3.595661    2.746714   -6.114977
     60          6           0        3.458517    1.593078   -7.939730
     61          1           0        4.534191    1.386619   -8.011385
     62          1           0        2.949859    0.687857   -8.296029
     63          7           0        3.148488    2.675827   -8.871768
     64          1           0        2.151495    2.885185   -8.842440
     65          1           0        3.625977    3.529193   -8.584676
     66          8           0        5.423527    0.073213   -2.032425
     67          1           0        6.379537   -0.119055   -2.079549
 ---------------------------------------------------------------------

 SCF Done:  E(RB3LYP) =  -1396.76260014     A.U. after    3 cycles

 Alpha  occ. eigenvalues --  -19.28906 -19.26925 -19.25913 -19.22682 -19.22330
 Alpha  occ. eigenvalues --  -14.60657 -14.50303 -14.48593 -14.46575 -14.35784
 Alpha  occ. eigenvalues --  -10.44264 -10.42313 -10.41193 -10.40897 -10.39404
 Alpha  occ. eigenvalues --  -10.36156 -10.34482 -10.32795 -10.30476 -10.30320
 Alpha  occ. eigenvalues --  -10.29042 -10.27915 -10.27002 -10.26704 -10.26333
 Alpha  occ. eigenvalues --  -10.26079 -10.25486 -10.24878 -10.23933  -1.19867
 Alpha  occ. eigenvalues --   -1.19502  -1.16884  -1.14707  -1.14336  -1.10541
 Alpha  occ. eigenvalues --   -1.07189  -1.05392  -1.03126  -0.93162  -0.92682
 Alpha  occ. eigenvalues --   -0.91315  -0.89747  -0.88249  -0.85995  -0.83616
 Alpha  occ. eigenvalues --   -0.81339  -0.78395  -0.77541  -0.76680  -0.76244
 Alpha  occ. eigenvalues --   -0.75468  -0.73932  -0.73251  -0.71365  -0.71049
 Alpha  occ. eigenvalues --   -0.69439  -0.68217  -0.67616  -0.66785  -0.65468
 Alpha  occ. eigenvalues --   -0.65107  -0.64735  -0.63415  -0.62330  -0.60704
 Alpha  occ. eigenvalues --   -0.59538  -0.58714  -0.57872  -0.56807  -0.56696
 Alpha  occ. eigenvalues --   -0.56586  -0.55922  -0.55524  -0.55096  -0.54855
 Alpha  occ. eigenvalues --   -0.54190  -0.53737  -0.53336  -0.52126  -0.51784
 Alpha  occ. eigenvalues --   -0.51667  -0.50637  -0.50220  -0.49772  -0.48860
 Alpha  occ. eigenvalues --   -0.48660  -0.48612  -0.48323  -0.47956  -0.47344
 Alpha  occ. eigenvalues --   -0.47180  -0.46161  -0.45307  -0.44846  -0.44089
 Alpha  occ. eigenvalues --   -0.43787  -0.43709  -0.43139  -0.42644  -0.42534
 Alpha  occ. eigenvalues --   -0.42383  -0.41524  -0.41468  -0.40407  -0.40357
 Alpha  occ. eigenvalues --   -0.40119  -0.39150  -0.38609  -0.38429  -0.37137
 Alpha  occ. eigenvalues --   -0.36343  -0.34576  -0.27788
 Alpha virt. eigenvalues --   -0.15230  -0.11352  -0.10264  -0.08552  -0.07389
 Alpha virt. eigenvalues --   -0.06436  -0.05005  -0.02932  -0.02606  -0.02099
 Alpha virt. eigenvalues --   -0.00582  -0.00404   0.00261   0.01347   0.01839

 Mulliken charges:
               1
     1  N   -0.757819
     2  H    0.413356
     3  H    0.423731
     4  H    0.461361
     5  C   -0.265262
     6  H    0.217431
     7  H    0.245679
     8  C    0.590747
     9  O   -0.483360
    10  N   -0.549982
    11  H    0.342582
    12  C   -0.080534
    13  H    0.212824
    14  C    0.663202
    15  C   -0.302715
    16  H    0.147254
    17  H    0.172935
    18  O   -0.619622
    19  C   -0.072805
    20  H    0.130547
    21  C   -0.447231
    22  H    0.156506
    23  H    0.165961
    24  H    0.146524
    25  C   -0.459983
    26  H    0.153699
    27  H    0.151109
    28  H    0.170242
    29  N   -0.586062
    30  H    0.375961
    31  C   -0.074216
    32  H    0.178183
    33  C    0.642160
    34  C   -0.074333
    35  H    0.143663
    36  O   -0.543869
    37  C   -0.461514
    38  H    0.149306
    39  H    0.167213
    40  H    0.134699
    41  C   -0.467410
    42  H    0.155031
    43  H    0.168073
    44  H    0.173547
    45  N   -0.625393
    46  H    0.357982
    47  C   -0.038512
    48  H    0.208834
    49  C    0.587998
    50  C   -0.270726
    51  H    0.164328
    52  H    0.144394
    53  O   -0.434698
    54  C   -0.272343
    55  H    0.148087
    56  H    0.162737
    57  C   -0.265545
    58  H    0.123281
    59  H    0.124946
    60  C   -0.142406
    61  H    0.148107
    62  H    0.146166
    63  N   -0.698848
    64  H    0.292585
    65  H    0.293814
    66  O   -0.589869
    67  H    0.428270
 Sum of Mulliken charges =   1.00000

 Dipole moment (field-independent basis, Debye):
    X=             -4.7600    Y=              7.4787    Z=             12.6516  Tot=             15.4484
 Quadrupole moment (field-independent basis, Debye-Ang):
   XX=           -122.6002   YY=           -162.7390   ZZ=           -131.8712
   XY=             -9.9126   XZ=            -12.0440   YZ=             13.2961

 Normal termination of Gaussian 16 at Tue Jul 12 17:43:10 2022.
