 Gaussian 16, Revision C.01,
 Gaussian 16:  ES64L-G16RevC.01  3-Jul-2019

 ----------------------------------------------------------------------
 # B3LYP/6-31G* empiricaldispersion=gd3bj guess=read geom=check nosymm
 integral(ultrafinegrid)
 ----------------------------------------------------------------------

 ------------------------------------------------------
 Candidate Structure: Conf:197 Charge calc in gas phase
 ------------------------------------------------------
 Structure from the checkpoint file:  "conf-197.chk"
 Charge =  1 Multiplicity = 1

                          Input orientation:
 ---------------------------------------------------------------------
 Center     Atomic      Atomic             Coordinates (Angstroms)
 Number     Number       Type             X           Y           Z
 ---------------------------------------------------------------------
      1          7           0       -5.450555    1.635906    4.002886
      2          1           0       -5.363075    1.407911    4.996613
      3          1           0       -6.294564    2.199585    3.872765
      4          1           0       -5.510884    0.732040    3.418203
      5          6           0       -4.214171    2.256081    3.415473
      6          1           0       -3.461881    2.392727    4.193863
      7          1           0       -4.459271    3.224160    2.976510
      8          6           0       -3.768612    1.226337    2.342243
      9          8           0       -4.480447    0.215693    2.220608
     10          7           0       -2.684002    1.528910    1.655208
     11          1           0       -2.071572    2.306299    1.923816
     12          6           0       -2.021963    0.659801    0.679679
     13          1           0       -2.211503   -0.381715    0.951727
     14          6           0       -0.525953    1.002086    0.831667
     15          6           0       -2.477520    0.944127   -0.765831
     16          1           0       -2.298879    2.008941   -0.963911
     17          1           0       -1.814952    0.389200   -1.442904
     18          8           0       -0.190873    2.033989    1.420092
     19          6           0       -3.936808    0.585187   -1.091925
     20          1           0       -4.590085    1.111572   -0.381296
     21          6           0       -4.275810    1.082949   -2.503221
     22          1           0       -3.646430    0.587146   -3.252174
     23          1           0       -5.319978    0.867479   -2.752603
     24          1           0       -4.120951    2.163901   -2.597727
     25          6           0       -4.201086   -0.919868   -0.964763
     26          1           0       -3.535262   -1.487811   -1.626527
     27          1           0       -4.062592   -1.278427    0.059575
     28          1           0       -5.230951   -1.154046   -1.253982
     29          7           0        0.315321    0.126197    0.261906
     30          1           0       -0.054957   -0.585224   -0.366335
     31          6           0        1.715331    0.420206   -0.012919
     32          1           0        1.848372    1.506033    0.042713
     33          6           0        1.953612   -0.071890   -1.452739
     34          6           0        2.682859   -0.257301    0.991963
     35          1           0        3.696622    0.033550    0.682797
     36          8           0        1.112114   -0.765173   -2.028581
     37          6           0        2.448944    0.269590    2.411200
     38          1           0        1.458853   -0.024732    2.775742
     39          1           0        3.195170   -0.145514    3.096450
     40          1           0        2.507877    1.361619    2.453200
     41          6           0        2.582497   -1.785494    0.935809
     42          1           0        1.577475   -2.118486    1.219033
     43          1           0        3.291893   -2.238407    1.635242
     44          1           0        2.799170   -2.177033   -0.063388
     45          7           0        3.137584    0.267848   -1.999317
     46          1           0        3.780614    0.867140   -1.500153
     47          6           0        3.526036   -0.179062   -3.334796
     48          1           0        3.105265   -1.175289   -3.487225
     49          6           0        5.036345   -0.303114   -3.429898
     50          6           0        2.983256    0.765355   -4.433022
     51          1           0        1.909721    0.872265   -4.239824
     52          1           0        3.436428    1.756754   -4.301873
     53          8           0        5.621122   -1.053355   -4.171125
     54          6           0        3.203762    0.256340   -5.859647
     55          1           0        2.758819   -0.743578   -5.956634
     56          1           0        4.275139    0.129994   -6.054195
     57          6           0        2.598011    1.189881   -6.912671
     58          1           0        1.521427    1.314898   -6.722224
     59          1           0        3.046338    2.190560   -6.821211
     60          6           0        2.798691    0.678670   -8.347973
     61          1           0        3.871560    0.549585   -8.540496
     62          1           0        2.349653   -0.318544   -8.443414
     63          7           0        2.251889    1.518641   -9.413131
     64          1           0        1.251423    1.651268   -9.270178
     65          1           0        2.668634    2.447780   -9.369412
     66          8           0        5.670484    0.586422   -2.619305
     67          1           0        6.628124    0.469100   -2.767918
 ---------------------------------------------------------------------

 SCF Done:  E(RB3LYP) =  -1396.75802790     A.U. after    2 cycles

 Alpha  occ. eigenvalues --  -19.28810 -19.27923 -19.22962 -19.21727 -19.20928
 Alpha  occ. eigenvalues --  -14.62168 -14.50820 -14.45992 -14.45165 -14.35368
 Alpha  occ. eigenvalues --  -10.45568 -10.42634 -10.39928 -10.39774 -10.37883
 Alpha  occ. eigenvalues --  -10.35299 -10.32386 -10.31718 -10.29085 -10.28261
 Alpha  occ. eigenvalues --  -10.28167 -10.26095 -10.25559 -10.25537 -10.25136
 Alpha  occ. eigenvalues --  -10.25133 -10.24997 -10.24158 -10.23349  -1.21285
 Alpha  occ. eigenvalues --   -1.18540  -1.15819  -1.14887  -1.12846  -1.09562
 Alpha  occ. eigenvalues --   -1.07641  -1.03057  -1.01730  -0.93022  -0.92232
 Alpha  occ. eigenvalues --   -0.90299  -0.89456  -0.87141  -0.85560  -0.82559
 Alpha  occ. eigenvalues --   -0.79577  -0.77069  -0.76575  -0.76277  -0.76162
 Alpha  occ. eigenvalues --   -0.75873  -0.75536  -0.72497  -0.70266  -0.69802
 Alpha  occ. eigenvalues --   -0.68094  -0.67781  -0.66758  -0.65595  -0.65286
 Alpha  occ. eigenvalues --   -0.64319  -0.64175  -0.62662  -0.62414  -0.60227
 Alpha  occ. eigenvalues --   -0.59079  -0.57884  -0.57180  -0.56084  -0.55530
 Alpha  occ. eigenvalues --   -0.55485  -0.54841  -0.54371  -0.54068  -0.53939
 Alpha  occ. eigenvalues --   -0.53100  -0.52557  -0.52299  -0.51164  -0.50658
 Alpha  occ. eigenvalues --   -0.50213  -0.49472  -0.49038  -0.48365  -0.48223
 Alpha  occ. eigenvalues --   -0.47836  -0.47571  -0.46754  -0.46362  -0.46291
 Alpha  occ. eigenvalues --   -0.45662  -0.45440  -0.44354  -0.43746  -0.43345
 Alpha  occ. eigenvalues --   -0.42850  -0.42473  -0.42058  -0.41892  -0.41690
 Alpha  occ. eigenvalues --   -0.41555  -0.41446  -0.40725  -0.40105  -0.39593
 Alpha  occ. eigenvalues --   -0.39411  -0.38029  -0.36989  -0.36156  -0.35923
 Alpha  occ. eigenvalues --   -0.34851  -0.33347  -0.27367
 Alpha virt. eigenvalues --   -0.13806  -0.13436  -0.08535  -0.07953  -0.07398
 Alpha virt. eigenvalues --   -0.06361  -0.06071  -0.02792  -0.02351  -0.01369
 Alpha virt. eigenvalues --   -0.00477   0.00491   0.01188   0.01403   0.02798

 Mulliken charges:
               1
     1  N   -0.751296
     2  H    0.423313
     3  H    0.423178
     4  H    0.441189
     5  C   -0.278849
     6  H    0.249237
     7  H    0.249500
     8  C    0.639573
     9  O   -0.528747
    10  N   -0.586162
    11  H    0.373622
    12  C   -0.089566
    13  H    0.196714
    14  C    0.626607
    15  C   -0.266317
    16  H    0.151620
    17  H    0.171141
    18  O   -0.545001
    19  C   -0.071144
    20  H    0.113232
    21  C   -0.447313
    22  H    0.157714
    23  H    0.157500
    24  H    0.145326
    25  C   -0.461272
    26  H    0.152949
    27  H    0.156636
    28  H    0.158568
    29  N   -0.597521
    30  H    0.366209
    31  C   -0.078809
    32  H    0.182896
    33  C    0.637897
    34  C   -0.075319
    35  H    0.135656
    36  O   -0.549283
    37  C   -0.443390
    38  H    0.143290
    39  H    0.158122
    40  H    0.158949
    41  C   -0.463922
    42  H    0.148164
    43  H    0.163874
    44  H    0.165281
    45  N   -0.623905
    46  H    0.359156
    47  C   -0.036111
    48  H    0.206571
    49  C    0.587312
    50  C   -0.270422
    51  H    0.163288
    52  H    0.144350
    53  O   -0.438595
    54  C   -0.271806
    55  H    0.146561
    56  H    0.162074
    57  C   -0.264932
    58  H    0.121876
    59  H    0.124951
    60  C   -0.142555
    61  H    0.147892
    62  H    0.145119
    63  N   -0.699391
    64  H    0.291442
    65  H    0.293433
    66  O   -0.587340
    67  H    0.426986
 Sum of Mulliken charges =   1.00000

 Dipole moment (field-independent basis, Debye):
    X=            -15.2480    Y=              9.8987    Z=             14.0329  Tot=             22.9654
 Quadrupole moment (field-independent basis, Debye-Ang):
   XX=            -45.7260   YY=           -158.2132   ZZ=           -129.5650
   XY=            -30.8737   XZ=            -72.7775   YZ=             13.0267

 Normal termination of Gaussian 16 at Tue Jul 12 17:42:46 2022.
