 Gaussian 16, Revision C.01,
 Gaussian 16:  ES64L-G16RevC.01  3-Jul-2019

 ----------------------------------------------------------------------
 # B3LYP/6-31G* empiricaldispersion=gd3 guess=read geom=check nosymm in
 tegral(ultrafinegrid)
 ----------------------------------------------------------------------

 ------------------------------------------------------
 Candidate Structure: Conf:231 Charge calc in gas phase
 ------------------------------------------------------
 Structure from the checkpoint file:  "conf-231.chk"
 Charge =  1 Multiplicity = 1

                          Input orientation:
 ---------------------------------------------------------------------
 Center     Atomic      Atomic             Coordinates (Angstroms)
 Number     Number       Type             X           Y           Z
 ---------------------------------------------------------------------
      1          7           0       -7.600416   -0.191077    2.413325
      2          1           0       -7.771349   -0.705475    3.281789
      3          1           0       -8.264493   -0.518772    1.655280
      4          1           0       -7.663615    0.821241    2.634836
      5          6           0       -6.206586   -0.410117    1.889637
      6          1           0       -5.907875   -1.431284    2.139352
      7          6           0       -5.330733    0.657481    2.587027
      8          6           0       -6.182308   -0.190638    0.362637
      9          1           0       -6.401735    0.864636    0.151220
     10          1           0       -5.165768   -0.380647    0.004823
     11          8           0       -5.891748    1.645632    3.062638
     12          6           0       -7.227421   -1.036777   -0.370378
     13          7           0       -6.886289   -1.527051   -1.570313
     14          1           0       -7.583468   -2.034771   -2.102506
     15          1           0       -5.982004   -1.371195   -1.992990
     16          8           0       -8.346222   -1.222154    0.132293
     17          7           0       -4.016942    0.421314    2.558404
     18          1           0       -3.644872   -0.370513    2.038578
     19          6           0       -2.987277    1.416834    2.869432
     20          1           0       -3.484038    2.383893    2.994567
     21          6           0       -2.064499    1.399310    1.641314
     22          6           0       -2.209298    1.047993    4.166918
     23          1           0       -1.772463    0.054264    3.996313
     24          8           0       -1.910751    0.338005    1.018805
     25          6           0       -3.181176    0.979188    5.361918
     26          1           0       -4.057952    0.383173    5.080580
     27          1           0       -3.555038    1.989766    5.577649
     28          6           0       -1.052905    2.027531    4.415972
     29          1           0       -1.414428    3.064100    4.466594
     30          1           0       -0.565807    1.805347    5.367868
     31          1           0       -0.280107    1.946925    3.649575
     32          6           0       -2.564850    0.367651    6.625307
     33          1           0       -3.317437    0.275864    7.415282
     34          1           0       -2.168156   -0.635222    6.423723
     35          1           0       -1.747608    0.976258    7.024024
     36          7           0       -1.446488    2.547963    1.309845
     37          1           0       -1.532686    3.345029    1.928791
     38          6           0       -0.382063    2.600434    0.292386
     39          1           0       -0.661368    1.874801   -0.477090
     40          6           0        0.948208    2.140572    0.933289
     41          6           0       -0.266408    3.994664   -0.308812
     42          1           0        0.472076    3.984851   -1.114786
     43          1           0       -1.229970    4.310552   -0.719179
     44          1           0        0.068211    4.718097    0.440903
     45          8           0        1.882780    2.927975    1.126655
     46          7           0        0.988574    0.837703    1.276590
     47          1           0        0.180342    0.254735    1.079736
     48          6           0        2.163537    0.210878    1.888527
     49          1           0        2.614050    0.944527    2.565054
     50          6           0        3.126555   -0.133092    0.730398
     51          6           0        1.752738   -1.027321    2.685349
     52          1           0        1.346394   -1.767757    1.980605
     53          8           0        3.171375   -1.259242    0.233830
     54          6           0        2.941754   -1.635206    3.423383
     55          1           0        3.702392   -1.970573    2.713822
     56          1           0        2.621928   -2.508622    4.004538
     57          1           0        3.381426   -0.905694    4.112460
     58          8           0        0.728497   -0.590321    3.592427
     59          1           0        0.585663   -1.306627    4.229928
     60          7           0        3.815229    0.931723    0.259295
     61          1           0        3.629919    1.817074    0.718509
     62          6           0        4.300097    0.997065   -1.123653
     63          1           0        3.641136    0.356575   -1.725610
     64          6           0        5.724395    0.445696   -1.301639
     65          6           0        4.191861    2.438537   -1.642728
     66          1           0        4.507477    2.447157   -2.686128
     67          1           0        4.884561    3.087556   -1.089044
     68          8           0        6.588721    1.082960   -1.897346
     69          8           0        2.853457    2.921919   -1.595196
     70          1           0        2.667603    3.231394   -0.692952
     71          7           0        5.926663   -0.803207   -0.792837
     72          1           0        5.084933   -1.332197   -0.575554
     73          6           0        7.071433   -1.550059   -1.279851
     74          1           0        7.980216   -0.967053   -1.108844
     75          1           0        7.147432   -2.484882   -0.715796
     76          6           0        6.886471   -1.865980   -2.778420
     77          8           0        5.764682   -2.027434   -3.248028
     78          7           0        8.028689   -1.935366   -3.506330
     79          1           0        8.929844   -1.775441   -3.074769
     80          6           0        8.019008   -2.108270   -4.948879
     81          1           0        7.124156   -2.680593   -5.208134
     82          6           0        9.260444   -2.889964   -5.341105
     83          6           0        7.993447   -0.758382   -5.717857
     84          1           0        8.955731   -0.247872   -5.569576
     85          1           0        7.911790   -0.983378   -6.788296
     86          8           0       10.247273   -3.015113   -4.647685
     87          6           0        6.850916    0.152987   -5.260362
     88          1           0        5.908735   -0.402643   -5.325810
     89          1           0        6.995302    0.398532   -4.202505
     90          6           0        6.746991    1.460541   -6.054286
     91          1           0        6.406105    1.257749   -7.077890
     92          1           0        7.738677    1.929558   -6.127556
     93          6           0        5.792808    2.458591   -5.387001
     94          1           0        6.212857    2.734006   -4.402857
     95          1           0        5.747635    3.375492   -5.987286
     96          7           0        4.426426    1.914892   -5.309321
     97          1           0        3.793814    2.613047   -4.921456
     98          1           0        4.406724    1.125074   -4.665817
     99          8           0        9.160345   -3.383952   -6.592566
    100          1           0       10.011222   -3.817981   -6.793972
 ---------------------------------------------------------------------

 SCF Done:  E(RB3LYP) =  -2418.56913468     A.U. after    1 cycles

 Alpha  occ. eigenvalues --  -19.28030 -19.27234 -19.24314 -19.24251 -19.23602
 Alpha  occ. eigenvalues --  -19.21775 -19.19770 -19.19602 -19.18679 -19.16791
 Alpha  occ. eigenvalues --  -19.15268 -14.59192 -14.51306 -14.50598 -14.48445
 Alpha  occ. eigenvalues --  -14.45599 -14.42982 -14.40184 -14.39959 -14.34031
 Alpha  occ. eigenvalues --  -10.45630 -10.44450 -10.42314 -10.41143 -10.38590
 Alpha  occ. eigenvalues --  -10.37298 -10.36596 -10.36409 -10.35645 -10.33693
 Alpha  occ. eigenvalues --  -10.33505 -10.32772 -10.32510 -10.31805 -10.29926
 Alpha  occ. eigenvalues --  -10.28867 -10.28665 -10.27848 -10.27825 -10.27405
 Alpha  occ. eigenvalues --  -10.26934 -10.26807 -10.26266 -10.25485 -10.23022
 Alpha  occ. eigenvalues --  -10.22559 -10.20361 -10.20215  -1.20104  -1.19280
 Alpha  occ. eigenvalues --   -1.16161  -1.15213  -1.13811  -1.13509  -1.11328
 Alpha  occ. eigenvalues --   -1.10659  -1.08682  -1.07300  -1.07266  -1.07005
 Alpha  occ. eigenvalues --   -1.06295  -1.06234  -1.04574  -1.01873  -0.99435
 Alpha  occ. eigenvalues --   -0.96792  -0.96484  -0.95581  -0.91949  -0.90503
 Alpha  occ. eigenvalues --   -0.88220  -0.86313  -0.85575  -0.83624  -0.83048
 Alpha  occ. eigenvalues --   -0.82518  -0.80366  -0.79344  -0.78856  -0.76365
 Alpha  occ. eigenvalues --   -0.76029  -0.74787  -0.74445  -0.73894  -0.72737
 Alpha  occ. eigenvalues --   -0.72518  -0.72330  -0.71214  -0.70517  -0.69142
 Alpha  occ. eigenvalues --   -0.68750  -0.68031  -0.67504  -0.66435  -0.65998
 Alpha  occ. eigenvalues --   -0.65787  -0.64846  -0.64791  -0.63643  -0.62665
 Alpha  occ. eigenvalues --   -0.62602  -0.61790  -0.61068  -0.60543  -0.59914
 Alpha  occ. eigenvalues --   -0.59824  -0.59585  -0.58982  -0.58581  -0.58012
 Alpha  occ. eigenvalues --   -0.57289  -0.56874  -0.56639  -0.56189  -0.55846
 Alpha  occ. eigenvalues --   -0.55310  -0.54869  -0.54428  -0.54207  -0.53599
 Alpha  occ. eigenvalues --   -0.52968  -0.52784  -0.52362  -0.51920  -0.51899
 Alpha  occ. eigenvalues --   -0.51798  -0.51558  -0.51331  -0.50967  -0.50630
 Alpha  occ. eigenvalues --   -0.50048  -0.49965  -0.49679  -0.49545  -0.48655
 Alpha  occ. eigenvalues --   -0.48431  -0.48207  -0.47721  -0.47647  -0.47426
 Alpha  occ. eigenvalues --   -0.47126  -0.46919  -0.46384  -0.45891  -0.45716
 Alpha  occ. eigenvalues --   -0.45562  -0.45434  -0.45359  -0.44842  -0.44714
 Alpha  occ. eigenvalues --   -0.44330  -0.43933  -0.43763  -0.43198  -0.42634
 Alpha  occ. eigenvalues --   -0.42543  -0.42472  -0.42337  -0.42193  -0.41682
 Alpha  occ. eigenvalues --   -0.41481  -0.41340  -0.40679  -0.40156  -0.39802
 Alpha  occ. eigenvalues --   -0.39144  -0.39034  -0.38560  -0.37722  -0.36562
 Alpha  occ. eigenvalues --   -0.36478  -0.36076  -0.36053  -0.35609  -0.35187
 Alpha  occ. eigenvalues --   -0.34892  -0.34049  -0.33047  -0.32422  -0.32228
 Alpha  occ. eigenvalues --   -0.31133  -0.29543  -0.29439  -0.28459  -0.26131
 Alpha virt. eigenvalues --   -0.13837  -0.12926  -0.10799  -0.10213  -0.08108
 Alpha virt. eigenvalues --   -0.06099  -0.05672  -0.05424  -0.03639  -0.03526
 Alpha virt. eigenvalues --   -0.03497  -0.02934  -0.02289  -0.02036  -0.01435

 Mulliken charges:
               1
     1  N   -0.750939
     2  H    0.412085
     3  H    0.445973
     4  H    0.417605
     5  C   -0.129015
     6  H    0.218328
     7  C    0.643681
     8  C   -0.403826
     9  H    0.229062
    10  H    0.208894
    11  O   -0.519738
    12  C    0.649016
    13  N   -0.724988
    14  H    0.385402
    15  H    0.374312
    16  O   -0.534220
    17  N   -0.589932
    18  H    0.360881
    19  C   -0.089652
    20  H    0.186835
    21  C    0.644154
    22  C   -0.067894
    23  H    0.148382
    24  O   -0.572236
    25  C   -0.253165
    26  H    0.121823
    27  H    0.149464
    28  C   -0.484223
    29  H    0.135625
    30  H    0.177255
    31  H    0.183251
    32  C   -0.451936
    33  H    0.161181
    34  H    0.141343
    35  H    0.164652
    36  N   -0.585333
    37  H    0.351310
    38  C   -0.073782
    39  H    0.200303
    40  C    0.643463
    41  C   -0.479335
    42  H    0.209078
    43  H    0.159591
    44  H    0.174791
    45  O   -0.558358
    46  N   -0.606854
    47  H    0.379619
    48  C   -0.063689
    49  H    0.185251
    50  C    0.635508
    51  C    0.127182
    52  H    0.150828
    53  O   -0.538347
    54  C   -0.488515
    55  H    0.191545
    56  H    0.149316
    57  H    0.163309
    58  O   -0.643178
    59  H    0.399403
    60  N   -0.602740
    61  H    0.357536
    62  C   -0.090366
    63  H    0.194834
    64  C    0.635801
    65  C   -0.083684
    66  H    0.174848
    67  H    0.151584
    68  O   -0.524453
    69  O   -0.660375
    70  H    0.421102
    71  N   -0.583395
    72  H    0.370454
    73  C   -0.246595
    74  H    0.182702
    75  H    0.180193
    76  C    0.631092
    77  O   -0.534051
    78  N   -0.597378
    79  H    0.343612
    80  C   -0.043869
    81  H    0.198804
    82  C    0.583251
    83  C   -0.267182
    84  H    0.139764
    85  H    0.158970
    86  O   -0.469406
    87  C   -0.299545
    88  H    0.157807
    89  H    0.175779
    90  C   -0.242456
    91  H    0.140023
    92  H    0.125183
    93  C   -0.150457
    94  H    0.133841
    95  H    0.134582
    96  N   -0.725299
    97  H    0.299265
    98  H    0.304799
    99  O   -0.562780
   100  H    0.417659
 Sum of Mulliken charges =   1.00000

 Dipole moment (field-independent basis, Debye):
    X=            -25.0161    Y=             -2.0163    Z=             10.4410  Tot=             27.1824
 Quadrupole moment (field-independent basis, Debye-Ang):
   XX=            -95.2695   YY=           -265.9361   ZZ=           -236.4551
   XY=              3.1678   XZ=            -35.1213   YZ=              5.8164

 Normal termination of Gaussian 16 at Mon Jun  6 03:05:54 2022.
