 Gaussian 16, Revision C.01,
 Gaussian 16:  ES64L-G16RevC.01  3-Jul-2019

 ----------------------------------------------------------------------
 # B3LYP/6-31G* empiricaldispersion=gd3 guess=read geom=check nosymm in
 tegral(ultrafinegrid)
 ----------------------------------------------------------------------

 ------------------------------------------------------
 Candidate Structure: Conf:217 Charge calc in gas phase
 ------------------------------------------------------
 Structure from the checkpoint file:  "conf-217.chk"
 Charge =  1 Multiplicity = 1

                          Input orientation:
 ---------------------------------------------------------------------
 Center     Atomic      Atomic             Coordinates (Angstroms)
 Number     Number       Type             X           Y           Z
 ---------------------------------------------------------------------
      1          7           0       -4.635587   -0.938444    4.685558
      2          1           0       -4.846196   -1.941562    4.694271
      3          1           0       -5.433531   -0.429123    5.075410
      4          1           0       -3.749937   -0.781001    5.256085
      5          6           0       -4.192737   -0.437166    3.324936
      6          1           0       -4.620114   -1.080689    2.553863
      7          6           0       -2.644789   -0.567837    3.417610
      8          6           0       -4.634433    1.033857    3.151767
      9          1           0       -5.709986    1.073546    2.941740
     10          1           0       -4.424064    1.590506    4.069674
     11          8           0       -2.160286   -0.565860    4.558348
     12          6           0       -3.781486    1.694496    2.051797
     13          7           0       -4.171793    1.426284    0.777031
     14          1           0       -3.553083    1.728166    0.032853
     15          1           0       -5.115454    1.158219    0.536455
     16          8           0       -2.750068    2.272025    2.347528
     17          7           0       -1.993828   -0.656149    2.266330
     18          1           0       -2.498264   -0.541792    1.385878
     19          6           0       -0.558811   -0.387992    2.106434
     20          1           0       -0.205132    0.089061    3.024792
     21          6           0       -0.497159    0.602789    0.927323
     22          6           0        0.240895   -1.692238    1.826206
     23          1           0       -0.177484   -2.114043    0.905363
     24          8           0       -1.389645    0.598511    0.066593
     25          6           0        0.052332   -2.725646    2.958892
     26          1           0        0.488718   -3.668003    2.604071
     27          1           0       -1.019265   -2.925411    3.091378
     28          6           0        1.726881   -1.398549    1.563963
     29          1           0        2.180179   -0.806959    2.370331
     30          1           0        2.285202   -2.337938    1.502348
     31          1           0        1.885440   -0.884816    0.614903
     32          6           0        0.674450   -2.360477    4.312490
     33          1           0        0.504069   -3.165159    5.036050
     34          1           0        1.757193   -2.217744    4.234608
     35          1           0        0.234202   -1.450095    4.731725
     36          7           0        0.554573    1.438054    0.894439
     37          1           0        1.292421    1.327675    1.578115
     38          6           0        0.808106    2.350869   -0.230705
     39          1           0       -0.169697    2.718631   -0.555412
     40          6           0        1.450436    1.534844   -1.373512
     41          6           0        1.696024    3.505348    0.213096
     42          1           0        1.847152    4.198541   -0.618282
     43          1           0        1.229852    4.043902    1.043176
     44          1           0        2.682210    3.140364    0.515048
     45          8           0        2.675000    1.592466   -1.578791
     46          7           0        0.598791    0.774209   -2.072105
     47          1           0       -0.356970    0.733366   -1.728854
     48          6           0        1.002717   -0.278732   -3.012443
     49          1           0        2.026574   -0.559036   -2.771860
     50          6           0        1.066910    0.257541   -4.457955
     51          6           0        0.126508   -1.519385   -2.732710
     52          1           0       -0.929832   -1.227888   -2.799938
     53          8           0        0.479545   -0.248736   -5.408603
     54          6           0        0.382124   -2.719507   -3.634838
     55          1           0        0.177667   -2.475344   -4.677708
     56          1           0       -0.267969   -3.538079   -3.309669
     57          1           0        1.424400   -3.036952   -3.557492
     58          8           0        0.332565   -1.869712   -1.355395
     59          1           0        1.267987   -2.136729   -1.276015
     60          7           0        1.903158    1.327437   -4.575252
     61          1           0        2.455902    1.598967   -3.767574
     62          6           0        2.347827    1.835257   -5.871837
     63          1           0        1.574479    1.572897   -6.597716
     64          6           0        3.675811    1.114767   -6.175516
     65          6           0        2.541397    3.345271   -5.843884
     66          1           0        2.930319    3.657163   -6.824556
     67          1           0        3.308080    3.599502   -5.097020
     68          8           0        4.761496    1.637935   -5.958850
     69          8           0        1.283883    3.937547   -5.548023
     70          1           0        1.388528    4.897672   -5.624579
     71          7           0        3.530179   -0.183429   -6.601279
     72          1           0        2.593591   -0.572616   -6.524503
     73          6           0        4.602790   -1.125317   -6.320636
     74          1           0        4.592453   -1.933624   -7.059880
     75          1           0        5.553863   -0.594850   -6.396783
     76          6           0        4.374753   -1.730500   -4.930137
     77          8           0        3.231291   -1.973435   -4.545884
     78          7           0        5.453284   -1.993296   -4.147489
     79          1           0        6.336213   -1.549999   -4.366630
     80          6           0        5.225502   -2.431813   -2.771077
     81          1           0        4.726116   -3.404536   -2.789756
     82          6           0        4.266366   -1.481741   -2.043843
     83          6           0        6.558145   -2.530763   -2.009577
     84          1           0        7.247482   -3.143281   -2.605318
     85          1           0        6.996844   -1.526333   -1.936470
     86          8           0        3.384365   -1.856995   -1.285070
     87          6           0        6.406942   -3.137519   -0.609287
     88          1           0        5.652728   -2.574343   -0.047048
     89          1           0        6.025994   -4.165323   -0.702878
     90          6           0        7.723660   -3.138320    0.175219
     91          1           0        8.051734   -2.102434    0.330102
     92          1           0        8.503520   -3.643323   -0.412091
     93          6           0        7.613498   -3.827426    1.539407
     94          1           0        7.407806   -4.902914    1.383421
     95          1           0        8.584655   -3.764884    2.043780
     96          7           0        6.623099   -3.156940    2.396261
     97          1           0        6.716514   -3.495555    3.352246
     98          1           0        5.683521   -3.419254    2.102542
     99          8           0        4.546654   -0.207965   -2.303767
    100          1           0        3.871556    0.393706   -1.891896
 ---------------------------------------------------------------------

 SCF Done:  E(RB3LYP) =  -2418.56788516     A.U. after    1 cycles

 Alpha  occ. eigenvalues --  -19.27515 -19.24641 -19.24047 -19.23172 -19.21450
 Alpha  occ. eigenvalues --  -19.20410 -19.20312 -19.19648 -19.18533 -19.17603
 Alpha  occ. eigenvalues --  -19.17201 -14.61728 -14.49790 -14.48258 -14.47228
 Alpha  occ. eigenvalues --  -14.44527 -14.43137 -14.41564 -14.40961 -14.36285
 Alpha  occ. eigenvalues --  -10.44240 -10.42721 -10.42271 -10.40068 -10.38430
 Alpha  occ. eigenvalues --  -10.37940 -10.35900 -10.35416 -10.34842 -10.34379
 Alpha  occ. eigenvalues --  -10.34023 -10.33021 -10.30163 -10.30142 -10.29531
 Alpha  occ. eigenvalues --  -10.28789 -10.28520 -10.28431 -10.28127 -10.26551
 Alpha  occ. eigenvalues --  -10.26521 -10.25753 -10.25635 -10.25333 -10.24927
 Alpha  occ. eigenvalues --  -10.24122 -10.23092 -10.21298  -1.20193  -1.16386
 Alpha  occ. eigenvalues --   -1.16156  -1.15398  -1.14845  -1.12727  -1.10733
 Alpha  occ. eigenvalues --   -1.09585  -1.08758  -1.07836  -1.07291  -1.06940
 Alpha  occ. eigenvalues --   -1.06723  -1.03540  -1.03134  -1.00935  -0.99376
 Alpha  occ. eigenvalues --   -0.98260  -0.97125  -0.94965  -0.92914  -0.90665
 Alpha  occ. eigenvalues --   -0.87091  -0.86602  -0.84835  -0.83967  -0.82219
 Alpha  occ. eigenvalues --   -0.81977  -0.81054  -0.79411  -0.77855  -0.76952
 Alpha  occ. eigenvalues --   -0.75642  -0.75334  -0.74525  -0.73820  -0.72786
 Alpha  occ. eigenvalues --   -0.71883  -0.71385  -0.70189  -0.69982  -0.69398
 Alpha  occ. eigenvalues --   -0.67951  -0.67705  -0.66613  -0.66244  -0.65742
 Alpha  occ. eigenvalues --   -0.65330  -0.64632  -0.64487  -0.64457  -0.62826
 Alpha  occ. eigenvalues --   -0.62516  -0.62397  -0.60763  -0.60449  -0.59734
 Alpha  occ. eigenvalues --   -0.59469  -0.58875  -0.58427  -0.57803  -0.57191
 Alpha  occ. eigenvalues --   -0.56730  -0.56039  -0.55903  -0.55743  -0.55120
 Alpha  occ. eigenvalues --   -0.54515  -0.54315  -0.53855  -0.53770  -0.53411
 Alpha  occ. eigenvalues --   -0.53295  -0.53073  -0.53035  -0.51939  -0.51920
 Alpha  occ. eigenvalues --   -0.51685  -0.51480  -0.51321  -0.50638  -0.50269
 Alpha  occ. eigenvalues --   -0.50093  -0.49536  -0.49358  -0.48572  -0.48458
 Alpha  occ. eigenvalues --   -0.48320  -0.48130  -0.47881  -0.47467  -0.47062
 Alpha  occ. eigenvalues --   -0.46786  -0.46659  -0.46491  -0.45900  -0.45678
 Alpha  occ. eigenvalues --   -0.45442  -0.45073  -0.45008  -0.44844  -0.44679
 Alpha  occ. eigenvalues --   -0.44198  -0.43261  -0.43039  -0.42725  -0.42574
 Alpha  occ. eigenvalues --   -0.42371  -0.42018  -0.41652  -0.41419  -0.41364
 Alpha  occ. eigenvalues --   -0.40817  -0.40464  -0.39758  -0.39354  -0.39138
 Alpha  occ. eigenvalues --   -0.39079  -0.38871  -0.38262  -0.38184  -0.37899
 Alpha  occ. eigenvalues --   -0.37646  -0.37175  -0.36829  -0.35546  -0.35165
 Alpha  occ. eigenvalues --   -0.34270  -0.33315  -0.33067  -0.33006  -0.32368
 Alpha  occ. eigenvalues --   -0.32049  -0.30759  -0.30436  -0.29110  -0.28545
 Alpha virt. eigenvalues --   -0.13536  -0.12303  -0.11577  -0.09223  -0.07400
 Alpha virt. eigenvalues --   -0.07003  -0.06390  -0.05185  -0.05018  -0.04253
 Alpha virt. eigenvalues --   -0.03436  -0.02749  -0.02106  -0.01477  -0.00773

 Mulliken charges:
               1
     1  N   -0.750446
     2  H    0.420666
     3  H    0.417301
     4  H    0.435389
     5  C   -0.121223
     6  H    0.218739
     7  C    0.655688
     8  C   -0.375056
     9  H    0.185713
    10  H    0.211636
    11  O   -0.536306
    12  C    0.576518
    13  N   -0.733615
    14  H    0.384592
    15  H    0.350731
    16  O   -0.466183
    17  N   -0.580322
    18  H    0.376789
    19  C   -0.088872
    20  H    0.190994
    21  C    0.688246
    22  C   -0.078120
    23  H    0.184239
    24  O   -0.589603
    25  C   -0.258000
    26  H    0.154360
    27  H    0.113582
    28  C   -0.499539
    29  H    0.136444
    30  H    0.172058
    31  H    0.181957
    32  C   -0.467957
    33  H    0.152202
    34  H    0.156994
    35  H    0.162597
    36  N   -0.589263
    37  H    0.352587
    38  C   -0.067799
    39  H    0.187016
    40  C    0.647365
    41  C   -0.467034
    42  H    0.185473
    43  H    0.168549
    44  H    0.177971
    45  O   -0.581067
    46  N   -0.575573
    47  H    0.375861
    48  C   -0.114968
    49  H    0.195463
    50  C    0.657853
    51  C    0.110426
    52  H    0.135068
    53  O   -0.535914
    54  C   -0.472251
    55  H    0.189169
    56  H    0.138835
    57  H    0.174826
    58  O   -0.662845
    59  H    0.430258
    60  N   -0.598679
    61  H    0.356535
    62  C   -0.082860
    63  H    0.197807
    64  C    0.608007
    65  C   -0.035647
    66  H    0.146989
    67  H    0.145090
    68  O   -0.516008
    69  O   -0.621344
    70  H    0.399330
    71  N   -0.578216
    72  H    0.362203
    73  C   -0.253091
    74  H    0.192712
    75  H    0.194951
    76  C    0.626968
    77  O   -0.527765
    78  N   -0.609236
    79  H    0.345389
    80  C    0.009339
    81  H    0.182540
    82  C    0.629514
    83  C   -0.320108
    84  H    0.158469
    85  H    0.163156
    86  O   -0.529668
    87  C   -0.280329
    88  H    0.159780
    89  H    0.134890
    90  C   -0.237666
    91  H    0.147667
    92  H    0.131401
    93  C   -0.148959
    94  H    0.117493
    95  H    0.147665
    96  N   -0.718878
    97  H    0.300457
    98  H    0.293176
    99  O   -0.594983
   100  H    0.459704
 Sum of Mulliken charges =   1.00000

 Dipole moment (field-independent basis, Debye):
    X=            -13.8915    Y=             -3.3222    Z=             13.7975  Tot=             19.8591
 Quadrupole moment (field-independent basis, Debye-Ang):
   XX=           -138.1426   YY=           -250.1868   ZZ=           -213.3739
   XY=            -12.1315   XZ=            -88.3972   YZ=            -21.7441

 Normal termination of Gaussian 16 at Mon Jun  6 03:05:54 2022.
