 Gaussian 16, Revision C.01,
 Gaussian 16:  ES64L-G16RevC.01  3-Jul-2019

 ----------------------------------------------------------------------
 # B3LYP/6-31G* empiricaldispersion=gd3 guess=read geom=check nosymm in
 tegral(ultrafinegrid)
 ----------------------------------------------------------------------

 -----------------------------------------------------
 Candidate Structure: Conf:95 Charge calc in gas phase
 -----------------------------------------------------
 Structure from the checkpoint file:  "conf-95.chk"
 Charge =  1 Multiplicity = 1

                          Input orientation:
 ---------------------------------------------------------------------
 Center     Atomic      Atomic             Coordinates (Angstroms)
 Number     Number       Type             X           Y           Z
 ---------------------------------------------------------------------
      1          7           0       -4.429771   -2.414059    2.329015
      2          1           0       -5.111860   -2.264978    3.076591
      3          1           0       -4.036307   -3.411768    2.359555
      4          1           0       -4.887524   -2.162343    1.435536
      5          6           0       -3.232420   -1.509503    2.455566
      6          1           0       -3.022162   -1.385223    3.521670
      7          6           0       -3.631348   -0.184353    1.767352
      8          6           0       -2.035397   -2.157681    1.730231
      9          1           0       -2.232065   -2.152426    0.651882
     10          1           0       -1.145536   -1.540670    1.862180
     11          8           0       -4.544726   -0.202891    0.949186
     12          6           0       -1.781668   -3.601547    2.162262
     13          7           0       -0.511586   -4.010723    2.139404
     14          1           0       -0.323436   -4.983455    2.348043
     15          1           0        0.260232   -3.384113    1.901960
     16          8           0       -2.730991   -4.352028    2.470883
     17          7           0       -2.917799    0.906951    2.126992
     18          1           0       -2.104144    0.728091    2.706569
     19          6           0       -2.712986    2.014386    1.184651
     20          1           0       -3.684776    2.247492    0.735208
     21          6           0       -1.802730    1.430499    0.058734
     22          6           0       -2.211828    3.240593    2.006172
     23          1           0       -1.360777    2.891642    2.606342
     24          8           0       -1.571126    0.212684    0.053969
     25          6           0       -3.346583    3.698134    2.954273
     26          1           0       -3.853112    2.817044    3.364091
     27          1           0       -4.100456    4.238797    2.364192
     28          6           0       -1.701113    4.420680    1.165858
     29          1           0       -2.420011    4.710243    0.386679
     30          1           0       -1.563075    5.297709    1.802890
     31          1           0       -0.726931    4.212412    0.715606
     32          6           0       -2.867540    4.572201    4.118532
     33          1           0       -3.706440    4.837025    4.770383
     34          1           0       -2.124637    4.042500    4.727309
     35          1           0       -2.411907    5.508482    3.779979
     36          7           0       -1.311253    2.238452   -0.899547
     37          1           0       -1.452595    3.235141   -0.827685
     38          6           0       -0.246803    1.783582   -1.821384
     39          1           0       -0.536759    0.802470   -2.202700
     40          6           0        1.037761    1.651895   -0.968385
     41          6           0       -0.060010    2.761263   -2.969706
     42          1           0        0.659957    2.336664   -3.674163
     43          1           0       -1.007835    2.923986   -3.491635
     44          1           0        0.334482    3.715981   -2.609068
     45          8           0        1.864555    2.551973   -0.862261
     46          7           0        1.125492    0.458737   -0.302084
     47          1           0        0.244111   -0.048633   -0.224362
     48          6           0        2.043417    0.285017    0.816036
     49          1           0        2.991269    0.755958    0.536601
     50          6           0        2.185175   -1.235843    0.947179
     51          6           0        1.513870    0.919138    2.128518
     52          1           0        0.714242    0.272583    2.505779
     53          8           0        1.278440   -1.894848    1.482643
     54          6           0        2.622161    1.031009    3.172604
     55          1           0        3.053678    0.049069    3.400366
     56          1           0        2.225338    1.458256    4.097618
     57          1           0        3.426607    1.683410    2.811770
     58          8           0        0.881219    2.172085    1.884190
     59          1           0        1.483510    2.720829    1.351170
     60          7           0        3.264307   -1.775888    0.367161
     61          1           0        3.963463   -1.186068   -0.079351
     62          6           0        3.429922   -3.190119    0.080844
     63          1           0        3.332745   -3.785714    0.994426
     64          6           0        4.815843   -3.346959   -0.547498
     65          6           0        2.353621   -3.668041   -0.949568
     66          1           0        2.426063   -3.020415   -1.834626
     67          1           0        1.371946   -3.515519   -0.491592
     68          8           0        5.432566   -2.369676   -0.971073
     69          8           0        2.489966   -5.031961   -1.272122
     70          1           0        3.059984   -5.076861   -2.073242
     71          7           0        5.258244   -4.627228   -0.687714
     72          1           0        4.551059   -5.339501   -0.534120
     73          6           0        6.211332   -4.888977   -1.756736
     74          1           0        7.114076   -4.297555   -1.588612
     75          1           0        6.480868   -5.948784   -1.734048
     76          6           0        5.567670   -4.547460   -3.115848
     77          8           0        4.353557   -4.705522   -3.300885
     78          7           0        6.390771   -4.055012   -4.055890
     79          1           0        7.384547   -3.963369   -3.879241
     80          6           0        5.929371   -3.615030   -5.366663
     81          1           0        5.052634   -4.210347   -5.635351
     82          6           0        7.053427   -3.877458   -6.358068
     83          6           0        5.555358   -2.108425   -5.390747
     84          1           0        6.467498   -1.519058   -5.223716
     85          1           0        5.199182   -1.869955   -6.399855
     86          8           0        8.206353   -4.080900   -6.044324
     87          6           0        4.506039   -1.739950   -4.337796
     88          1           0        3.622033   -2.372850   -4.485763
     89          1           0        4.897627   -1.986380   -3.345642
     90          6           0        4.126309   -0.251833   -4.337251
     91          1           0        3.610094    0.021100   -5.267979
     92          1           0        5.040739    0.354242   -4.294402
     93          6           0        3.248802    0.117959   -3.135889
     94          1           0        3.767874   -0.226650   -2.225705
     95          1           0        3.167197    1.208355   -3.052830
     96          7           0        1.885240   -0.441268   -3.245734
     97          1           0        1.539293   -0.677631   -2.319877
     98          1           0        1.897601   -1.306678   -3.780729
     99          8           0        6.616584   -3.799068   -7.627259
    100          1           0        7.390037   -3.925808   -8.209945
 ---------------------------------------------------------------------

 SCF Done:  E(RB3LYP) =  -2418.61161083     A.U. after    1 cycles

 Alpha  occ. eigenvalues --  -19.27621 -19.24820 -19.24456 -19.23875 -19.23376
 Alpha  occ. eigenvalues --  -19.22800 -19.22174 -19.22095 -19.22029 -19.21251
 Alpha  occ. eigenvalues --  -19.21058 -14.55958 -14.48024 -14.46853 -14.46685
 Alpha  occ. eigenvalues --  -14.46600 -14.45278 -14.45232 -14.44595 -14.38047
 Alpha  occ. eigenvalues --  -10.41892 -10.41604 -10.40105 -10.40080 -10.39795
 Alpha  occ. eigenvalues --  -10.39110 -10.38538 -10.38304 -10.37815 -10.34310
 Alpha  occ. eigenvalues --  -10.33321 -10.33078 -10.32880 -10.32593 -10.32404
 Alpha  occ. eigenvalues --  -10.32347 -10.32234 -10.31942 -10.29191 -10.27074
 Alpha  occ. eigenvalues --  -10.26960 -10.26624 -10.26530 -10.26434 -10.25776
 Alpha  occ. eigenvalues --  -10.25174 -10.24763 -10.24727  -1.18617  -1.17327
 Alpha  occ. eigenvalues --   -1.15861  -1.15089  -1.14753  -1.14026  -1.12877
 Alpha  occ. eigenvalues --   -1.12652  -1.10935  -1.10658  -1.09861  -1.09737
 Alpha  occ. eigenvalues --   -1.04932  -1.03443  -1.02808  -1.02048  -1.01858
 Alpha  occ. eigenvalues --   -1.01664  -1.01498  -0.94554  -0.92185  -0.90104
 Alpha  occ. eigenvalues --   -0.88365  -0.87902  -0.86105  -0.85326  -0.83499
 Alpha  occ. eigenvalues --   -0.83236  -0.80970  -0.80936  -0.79571  -0.79089
 Alpha  occ. eigenvalues --   -0.76537  -0.74606  -0.73772  -0.72452  -0.72087
 Alpha  occ. eigenvalues --   -0.71327  -0.71244  -0.70689  -0.70158  -0.69544
 Alpha  occ. eigenvalues --   -0.69292  -0.68938  -0.68457  -0.67392  -0.67208
 Alpha  occ. eigenvalues --   -0.66846  -0.65903  -0.65423  -0.64579  -0.64414
 Alpha  occ. eigenvalues --   -0.63254  -0.62036  -0.61525  -0.61132  -0.60848
 Alpha  occ. eigenvalues --   -0.60360  -0.59295  -0.58908  -0.58477  -0.58234
 Alpha  occ. eigenvalues --   -0.57712  -0.57305  -0.56899  -0.56525  -0.55886
 Alpha  occ. eigenvalues --   -0.55780  -0.55486  -0.55116  -0.54960  -0.54795
 Alpha  occ. eigenvalues --   -0.54267  -0.54206  -0.53613  -0.53543  -0.53313
 Alpha  occ. eigenvalues --   -0.52859  -0.52453  -0.52181  -0.52004  -0.51788
 Alpha  occ. eigenvalues --   -0.51590  -0.51454  -0.50830  -0.50687  -0.50435
 Alpha  occ. eigenvalues --   -0.49973  -0.49602  -0.49271  -0.48984  -0.48917
 Alpha  occ. eigenvalues --   -0.48800  -0.48358  -0.48113  -0.47838  -0.47629
 Alpha  occ. eigenvalues --   -0.46968  -0.46845  -0.46636  -0.46400  -0.46210
 Alpha  occ. eigenvalues --   -0.46022  -0.45854  -0.45498  -0.44938  -0.44753
 Alpha  occ. eigenvalues --   -0.44335  -0.43779  -0.43238  -0.42807  -0.42091
 Alpha  occ. eigenvalues --   -0.41588  -0.41489  -0.41185  -0.40578  -0.40202
 Alpha  occ. eigenvalues --   -0.39826  -0.39455  -0.39357  -0.38818  -0.38586
 Alpha  occ. eigenvalues --   -0.38454  -0.38239  -0.37718  -0.37487  -0.37010
 Alpha  occ. eigenvalues --   -0.36659  -0.36200  -0.36015  -0.35684  -0.34838
 Alpha  occ. eigenvalues --   -0.34661  -0.34334  -0.33688  -0.33190  -0.30249
 Alpha virt. eigenvalues --   -0.11130  -0.09706  -0.09499  -0.09240  -0.08349
 Alpha virt. eigenvalues --   -0.07454  -0.07100  -0.07014  -0.06499  -0.05351
 Alpha virt. eigenvalues --   -0.02176  -0.01461  -0.01055  -0.00114   0.00194

 Mulliken charges:
               1
     1  N   -0.753636
     2  H    0.402762
     3  H    0.445315
     4  H    0.411133
     5  C   -0.143261
     6  H    0.204435
     7  C    0.664413
     8  C   -0.398876
     9  H    0.230679
    10  H    0.224742
    11  O   -0.513104
    12  C    0.632030
    13  N   -0.764227
    14  H    0.363648
    15  H    0.421495
    16  O   -0.560478
    17  N   -0.580636
    18  H    0.342435
    19  C   -0.104497
    20  H    0.208663
    21  C    0.664985
    22  C   -0.080486
    23  H    0.162645
    24  O   -0.569720
    25  C   -0.263857
    26  H    0.146280
    27  H    0.145853
    28  C   -0.510737
    29  H    0.152154
    30  H    0.181231
    31  H    0.166831
    32  C   -0.454005
    33  H    0.163069
    34  H    0.146218
    35  H    0.158512
    36  N   -0.603005
    37  H    0.353605
    38  C   -0.049052
    39  H    0.191597
    40  C    0.646280
    41  C   -0.483093
    42  H    0.203318
    43  H    0.162855
    44  H    0.174199
    45  O   -0.547404
    46  N   -0.633591
    47  H    0.382443
    48  C   -0.083324
    49  H    0.179214
    50  C    0.639180
    51  C    0.143306
    52  H    0.134763
    53  O   -0.573104
    54  C   -0.464847
    55  H    0.156482
    56  H    0.171683
    57  H    0.160490
    58  O   -0.644430
    59  H    0.417378
    60  N   -0.618319
    61  H    0.384067
    62  C   -0.060749
    63  H    0.181793
    64  C    0.601753
    65  C   -0.051451
    66  H    0.148000
    67  H    0.156615
    68  O   -0.527753
    69  O   -0.649684
    70  H    0.443616
    71  N   -0.569084
    72  H    0.350855
    73  C   -0.253414
    74  H    0.201502
    75  H    0.202961
    76  C    0.645073
    77  O   -0.559822
    78  N   -0.586369
    79  H    0.358390
    80  C   -0.051883
    81  H    0.204837
    82  C    0.589114
    83  C   -0.267371
    84  H    0.150209
    85  H    0.169739
    86  O   -0.461510
    87  C   -0.290946
    88  H    0.140384
    89  H    0.173005
    90  C   -0.280303
    91  H    0.148491
    92  H    0.145320
    93  C   -0.137636
    94  H    0.113277
    95  H    0.156776
    96  N   -0.761190
    97  H    0.308247
    98  H    0.307923
    99  O   -0.558446
   100  H    0.427028
 Sum of Mulliken charges =   1.00000

 Dipole moment (field-independent basis, Debye):
    X=             -0.7306    Y=             -6.2369    Z=              3.6616  Tot=              7.2691
 Quadrupole moment (field-independent basis, Debye-Ang):
   XX=           -191.3023   YY=           -232.8943   ZZ=           -215.4048
   XY=            -31.1823   XZ=            -61.9958   YZ=              7.9005

 Normal termination of Gaussian 16 at Mon Jun  6 03:05:55 2022.
