 Gaussian 16, Revision C.01,
 Gaussian 16:  ES64L-G16RevC.01  3-Jul-2019

 ----------------------------------------------------------------------
 # B3LYP/6-31G* empiricaldispersion=gd3 guess=read geom=check nosymm in
 tegral(ultrafinegrid)
 ----------------------------------------------------------------------

 ------------------------------------------------------
 Candidate Structure: Conf:234 Charge calc in gas phase
 ------------------------------------------------------
 Structure from the checkpoint file:  "conf-234.chk"
 Charge =  1 Multiplicity = 1

                          Input orientation:
 ---------------------------------------------------------------------
 Center     Atomic      Atomic             Coordinates (Angstroms)
 Number     Number       Type             X           Y           Z
 ---------------------------------------------------------------------
      1          7           0       -5.328657    3.077679    4.827298
      2          1           0       -4.752994    3.839346    4.408779
      3          1           0       -5.699759    3.354949    5.737602
      4          1           0       -6.104730    2.863177    4.126289
      5          6           0       -4.420368    1.873244    4.871960
      6          1           0       -4.256159    1.589911    5.914517
      7          6           0       -3.101080    2.331767    4.203278
      8          6           0       -5.041532    0.692716    4.083520
      9          1           0       -4.285679   -0.082660    3.945807
     10          1           0       -5.870835    0.268058    4.658821
     11          8           0       -3.080640    3.406640    3.607324
     12          6           0       -5.624814    1.160775    2.748259
     13          7           0       -5.157845    0.589163    1.634568
     14          1           0       -5.537326    0.908025    0.751019
     15          1           0       -4.287961    0.055079    1.639714
     16          8           0       -6.512944    2.032993    2.758889
     17          7           0       -2.072619    1.466740    4.297049
     18          1           0       -2.273282    0.557554    4.694354
     19          6           0       -1.003904    1.461679    3.295025
     20          1           0       -0.814012    2.505585    3.038666
     21          6           0       -1.550019    0.716840    2.054788
     22          6           0        0.291462    0.823174    3.877574
     23          1           0        0.512037    1.411784    4.778725
     24          8           0       -2.449390   -0.131460    2.168726
     25          6           0        1.504498    0.938885    2.928617
     26          1           0        1.324650    0.330638    2.035268
     27          1           0        2.355536    0.469347    3.436719
     28          6           0        0.079384   -0.643855    4.288136
     29          1           0       -0.202257   -1.264285    3.430304
     30          1           0        1.004044   -1.050419    4.708604
     31          1           0       -0.692645   -0.766638    5.057932
     32          6           0        1.907774    2.361856    2.523864
     33          1           0        2.766135    2.342018    1.845806
     34          1           0        1.113899    2.903508    1.993908
     35          1           0        2.174465    2.960558    3.402185
     36          7           0       -0.980308    1.048594    0.888022
     37          1           0       -0.170855    1.662735    0.886628
     38          6           0       -1.142800    0.297858   -0.350923
     39          1           0       -1.447767   -0.721919   -0.088555
     40          6           0        0.255000    0.264603   -1.001971
     41          6           0       -2.196388    0.931704   -1.272397
     42          1           0       -2.331933    0.341490   -2.183582
     43          1           0       -3.154754    0.985222   -0.747379
     44          1           0       -1.899826    1.945678   -1.557442
     45          8           0        1.185354    0.897859   -0.467264
     46          7           0        0.392297   -0.421676   -2.136694
     47          1           0       -0.328024   -1.086185   -2.406814
     48          6           0        1.688251   -0.657907   -2.794932
     49          1           0        2.448078   -0.818693   -2.019666
     50          6           0        2.150769    0.545942   -3.658832
     51          6           0        1.551455   -1.929982   -3.679166
     52          1           0        1.082864   -1.631605   -4.619821
     53          8           0        2.329348    0.415421   -4.872232
     54          6           0        2.902239   -2.574736   -3.950353
     55          1           0        3.595007   -1.857980   -4.393676
     56          1           0        2.776287   -3.425953   -4.625456
     57          1           0        3.360928   -2.922331   -3.015720
     58          8           0        0.625881   -2.848726   -3.081311
     59          1           0        1.106413   -3.358137   -2.407951
     60          7           0        2.387150    1.701644   -2.998452
     61          1           0        2.388503    1.696554   -1.981356
     62          6           0        2.967323    2.883032   -3.650966
     63          1           0        2.574651    2.939173   -4.669945
     64          6           0        4.502428    2.711292   -3.689913
     65          6           0        2.587990    4.144808   -2.861455
     66          1           0        2.891624    4.007459   -1.813179
     67          1           0        1.500495    4.268849   -2.894257
     68          8           0        5.261243    3.407577   -3.013113
     69          8           0        3.162930    5.298819   -3.432953
     70          1           0        4.117081    5.226831   -3.254251
     71          7           0        4.937956    1.668484   -4.451423
     72          1           0        4.221124    1.089778   -4.884129
     73          6           0        6.195519    1.010771   -4.101364
     74          1           0        6.441578    0.280402   -4.873368
     75          1           0        6.990997    1.755588   -4.034721
     76          6           0        5.947394    0.277405   -2.775791
     77          8           0        5.298409   -0.766182   -2.735573
     78          7           0        6.396822    0.919929   -1.655403
     79          1           0        6.573557    1.915071   -1.760866
     80          6           0        5.908068    0.488877   -0.349215
     81          1           0        6.000650   -0.597430   -0.293897
     82          6           0        4.431782    0.865098   -0.229726
     83          6           0        6.698072    1.169309    0.779446
     84          1           0        7.762902    0.959086    0.624079
     85          1           0        6.563515    2.255771    0.689740
     86          8           0        4.010772    1.974401   -0.504558
     87          6           0        6.267539    0.707149    2.177388
     88          1           0        5.187620    0.868605    2.307614
     89          1           0        6.424202   -0.377283    2.264765
     90          6           0        7.015680    1.437062    3.296836
     91          1           0        6.827832    2.516448    3.235574
     92          1           0        8.099344    1.301067    3.163480
     93          6           0        6.615248    0.951991    4.691774
     94          1           0        5.528815    1.069441    4.813185
     95          1           0        6.821578   -0.132980    4.766848
     96          7           0        7.267431    1.763781    5.723572
     97          1           0        8.277757    1.637646    5.667719
     98          1           0        6.996991    1.435093    6.649138
     99          8           0        3.645699   -0.126029    0.219988
    100          1           0        2.722318    0.219565    0.166684
 ---------------------------------------------------------------------

 SCF Done:  E(RB3LYP) =  -2418.59515486     A.U. after    1 cycles

 Alpha  occ. eigenvalues --  -19.27721 -19.26389 -19.26074 -19.24826 -19.24385
 Alpha  occ. eigenvalues --  -19.23471 -19.21183 -19.19834 -19.18818 -19.18625
 Alpha  occ. eigenvalues --  -19.18573 -14.58056 -14.50486 -14.48704 -14.48231
 Alpha  occ. eigenvalues --  -14.47609 -14.43483 -14.42553 -14.42145 -14.36403
 Alpha  occ. eigenvalues --  -10.44464 -10.43516 -10.41715 -10.41561 -10.41062
 Alpha  occ. eigenvalues --  -10.39069 -10.37055 -10.35785 -10.35659 -10.35466
 Alpha  occ. eigenvalues --  -10.35427 -10.35347 -10.32218 -10.31820 -10.30963
 Alpha  occ. eigenvalues --  -10.30261 -10.29646 -10.29485 -10.29215 -10.28662
 Alpha  occ. eigenvalues --  -10.28338 -10.28123 -10.26490 -10.26353 -10.25802
 Alpha  occ. eigenvalues --  -10.25022 -10.23871 -10.23838  -1.19987  -1.17815
 Alpha  occ. eigenvalues --   -1.17719  -1.16605  -1.15742  -1.12673  -1.11892
 Alpha  occ. eigenvalues --   -1.10822  -1.10592  -1.09905  -1.08566  -1.07388
 Alpha  occ. eigenvalues --   -1.06244  -1.05079  -1.04067  -1.03682  -1.00017
 Alpha  occ. eigenvalues --   -0.99252  -0.98373  -0.94627  -0.93216  -0.92188
 Alpha  occ. eigenvalues --   -0.89489  -0.87102  -0.86041  -0.85105  -0.82979
 Alpha  occ. eigenvalues --   -0.82823  -0.81752  -0.81454  -0.78953  -0.78122
 Alpha  occ. eigenvalues --   -0.76747  -0.74892  -0.74233  -0.73952  -0.73558
 Alpha  occ. eigenvalues --   -0.72658  -0.71682  -0.70757  -0.70595  -0.70256
 Alpha  occ. eigenvalues --   -0.69290  -0.69155  -0.68104  -0.67172  -0.66890
 Alpha  occ. eigenvalues --   -0.66368  -0.65795  -0.64802  -0.64382  -0.64013
 Alpha  occ. eigenvalues --   -0.63543  -0.63297  -0.61525  -0.60803  -0.60728
 Alpha  occ. eigenvalues --   -0.60174  -0.59662  -0.59474  -0.58678  -0.58591
 Alpha  occ. eigenvalues --   -0.57943  -0.57641  -0.56711  -0.56345  -0.56037
 Alpha  occ. eigenvalues --   -0.55579  -0.55423  -0.55027  -0.54649  -0.54500
 Alpha  occ. eigenvalues --   -0.54395  -0.54083  -0.53684  -0.53419  -0.53257
 Alpha  occ. eigenvalues --   -0.53027  -0.52865  -0.52646  -0.52584  -0.52164
 Alpha  occ. eigenvalues --   -0.51742  -0.51364  -0.51108  -0.50513  -0.50237
 Alpha  occ. eigenvalues --   -0.50006  -0.49975  -0.49872  -0.49309  -0.49059
 Alpha  occ. eigenvalues --   -0.48149  -0.47940  -0.47470  -0.47342  -0.46985
 Alpha  occ. eigenvalues --   -0.46819  -0.46209  -0.46146  -0.46055  -0.45339
 Alpha  occ. eigenvalues --   -0.45228  -0.45058  -0.44390  -0.43866  -0.43576
 Alpha  occ. eigenvalues --   -0.43531  -0.43324  -0.43218  -0.42979  -0.42770
 Alpha  occ. eigenvalues --   -0.41843  -0.41649  -0.40920  -0.40670  -0.40353
 Alpha  occ. eigenvalues --   -0.40025  -0.39962  -0.39437  -0.39055  -0.38951
 Alpha  occ. eigenvalues --   -0.38641  -0.38483  -0.38464  -0.38093  -0.37958
 Alpha  occ. eigenvalues --   -0.36075  -0.35329  -0.34919  -0.33975  -0.33040
 Alpha  occ. eigenvalues --   -0.32930  -0.32048  -0.30959  -0.30162  -0.28644
 Alpha virt. eigenvalues --   -0.13713  -0.12355  -0.10934  -0.10258  -0.09106
 Alpha virt. eigenvalues --   -0.07606  -0.06954  -0.06009  -0.05229  -0.04053
 Alpha virt. eigenvalues --   -0.03900  -0.03044  -0.02641  -0.01453  -0.00787

 Mulliken charges:
               1
     1  N   -0.772431
     2  H    0.425560
     3  H    0.406932
     4  H    0.445493
     5  C   -0.121354
     6  H    0.219360
     7  C    0.639712
     8  C   -0.389207
     9  H    0.213916
    10  H    0.220383
    11  O   -0.507240
    12  C    0.615602
    13  N   -0.747649
    14  H    0.368134
    15  H    0.410271
    16  O   -0.539127
    17  N   -0.579969
    18  H    0.353516
    19  C   -0.099716
    20  H    0.207796
    21  C    0.633202
    22  C   -0.086733
    23  H    0.159727
    24  O   -0.583577
    25  C   -0.285708
    26  H    0.137401
    27  H    0.165027
    28  C   -0.476408
    29  H    0.167904
    30  H    0.179112
    31  H    0.134691
    32  C   -0.476291
    33  H    0.193559
    34  H    0.135607
    35  H    0.161010
    36  N   -0.589078
    37  H    0.386830
    38  C   -0.074368
    39  H    0.195628
    40  C    0.637044
    41  C   -0.436599
    42  H    0.175379
    43  H    0.152157
    44  H    0.183611
    45  O   -0.584115
    46  N   -0.593468
    47  H    0.366181
    48  C   -0.109713
    49  H    0.198309
    50  C    0.643650
    51  C    0.107929
    52  H    0.185594
    53  O   -0.534416
    54  C   -0.473339
    55  H    0.193926
    56  H    0.168494
    57  H    0.150411
    58  O   -0.639812
    59  H    0.397332
    60  N   -0.640723
    61  H    0.404330
    62  C   -0.083434
    63  H    0.198605
    64  C    0.623546
    65  C   -0.043777
    66  H    0.156879
    67  H    0.140090
    68  O   -0.546027
    69  O   -0.624599
    70  H    0.416493
    71  N   -0.590935
    72  H    0.378494
    73  C   -0.231674
    74  H    0.189765
    75  H    0.189443
    76  C    0.584480
    77  O   -0.526416
    78  N   -0.582967
    79  H    0.364770
    80  C   -0.019645
    81  H    0.188538
    82  C    0.595117
    83  C   -0.295055
    84  H    0.164851
    85  H    0.161719
    86  O   -0.494027
    87  C   -0.276165
    88  H    0.137272
    89  H    0.142158
    90  C   -0.253000
    91  H    0.155143
    92  H    0.135012
    93  C   -0.129573
    94  H    0.124064
    95  H    0.114599
    96  N   -0.715299
    97  H    0.298436
    98  H    0.297985
    99  O   -0.609448
   100  H    0.464902
 Sum of Mulliken charges =   1.00000

 Dipole moment (field-independent basis, Debye):
    X=            -11.6799    Y=              2.1472    Z=             18.6736  Tot=             22.1300
 Quadrupole moment (field-independent basis, Debye-Ang):
   XX=           -167.6693   YY=           -289.1310   ZZ=           -181.7312
   XY=            -43.8837   XZ=            -66.1581   YZ=             39.3901

 Normal termination of Gaussian 16 at Mon Jun  6 03:06:04 2022.
