 Gaussian 16, Revision C.01,
 Gaussian 16:  ES64L-G16RevC.01  3-Jul-2019

 ----------------------------------------------------------------------
 # B3LYP/6-31G* empiricaldispersion=gd3 guess=read geom=check nosymm in
 tegral(ultrafinegrid)
 ----------------------------------------------------------------------

 ------------------------------------------------------
 Candidate Structure: Conf:535 Charge calc in gas phase
 ------------------------------------------------------
 Structure from the checkpoint file:  "conf-535.chk"
 Charge =  1 Multiplicity = 1

                          Input orientation:
 ---------------------------------------------------------------------
 Center     Atomic      Atomic             Coordinates (Angstroms)
 Number     Number       Type             X           Y           Z
 ---------------------------------------------------------------------
      1          7           0       -7.229289    4.067314    2.359781
      2          1           0       -7.532532    4.817917    2.987185
      3          1           0       -8.004381    3.828785    1.735819
      4          1           0       -6.376440    4.402976    1.810318
      5          6           0       -6.649132    2.881792    3.099530
      6          1           0       -6.980268    2.895777    4.138296
      7          6           0       -5.121492    3.108601    2.944517
      8          6           0       -7.066074    1.566372    2.422640
      9          1           0       -8.158754    1.531760    2.313055
     10          1           0       -6.604485    1.486582    1.433945
     11          8           0       -4.757208    3.908559    2.071105
     12          6           0       -6.653513    0.375363    3.301475
     13          7           0       -6.677745   -0.829391    2.698352
     14          1           0       -6.349719   -1.619137    3.240790
     15          1           0       -6.614355   -0.906154    1.692587
     16          8           0       -6.393307    0.536066    4.494755
     17          7           0       -4.327197    2.380842    3.728191
     18          1           0       -4.800276    1.698207    4.317674
     19          6           0       -2.975145    2.051309    3.286310
     20          1           0       -2.460795    2.988511    3.050504
     21          6           0       -3.094461    1.215875    1.980661
     22          6           0       -2.197805    1.302289    4.398644
     23          1           0       -1.188548    1.137609    3.997155
     24          8           0       -4.181887    0.795208    1.570257
     25          6           0       -2.804290   -0.086414    4.699799
     26          1           0       -2.955831   -0.622724    3.753643
     27          1           0       -3.801465    0.022911    5.149304
     28          6           0       -2.068945    2.185666    5.648187
     29          1           0       -3.040499    2.331724    6.134205
     30          1           0       -1.395463    1.731172    6.379284
     31          1           0       -1.666865    3.172999    5.395283
     32          6           0       -1.930910   -0.945738    5.620959
     33          1           0       -2.359823   -1.946494    5.735793
     34          1           0       -0.920282   -1.059609    5.210897
     35          1           0       -1.840948   -0.511844    6.621643
     36          7           0       -1.926675    0.981825    1.363024
     37          1           0       -1.038237    1.297962    1.744413
     38          6           0       -1.798817    0.148074    0.178713
     39          1           0       -2.416914   -0.747742    0.312312
     40          6           0       -0.314588   -0.247007    0.100271
     41          6           0       -2.248578    0.890890   -1.091609
     42          1           0       -2.190991    0.243607   -1.972751
     43          1           0       -3.284460    1.215608   -0.966092
     44          1           0       -1.617301    1.769025   -1.261554
     45          8           0        0.521197    0.293986    0.833438
     46          7           0        0.004104   -1.175268   -0.819319
     47          1           0       -0.678690   -1.545654   -1.472370
     48          6           0        1.379383   -1.600024   -1.074197
     49          1           0        1.913103   -1.606729   -0.118198
     50          6           0        2.059269   -0.594897   -2.028799
     51          6           0        1.345603   -3.008853   -1.702022
     52          1           0        2.368723   -3.251066   -2.018935
     53          8           0        2.325605   -0.893329   -3.202982
     54          6           0        0.841591   -4.071053   -0.736009
     55          1           0        1.497763   -4.146525    0.137539
     56          1           0        0.815230   -5.039524   -1.242171
     57          1           0       -0.171287   -3.837846   -0.391232
     58          8           0        0.468380   -2.986364   -2.827090
     59          1           0        0.926203   -2.440502   -3.494337
     60          7           0        2.303454    0.621330   -1.506909
     61          1           0        2.099766    0.814693   -0.527808
     62          6           0        2.835357    1.720349   -2.306934
     63          1           0        2.443057    1.619289   -3.325667
     64          6           0        4.374907    1.648820   -2.364684
     65          6           0        2.384092    3.050430   -1.693200
     66          1           0        1.291634    3.114373   -1.739262
     67          1           0        2.803058    3.874867   -2.286539
     68          8           0        5.081652    2.461201   -1.748401
     69          8           0        2.746583    3.133293   -0.327507
     70          1           0        3.722887    3.151526   -0.332242
     71          7           0        4.871162    0.654515   -3.124284
     72          1           0        4.212368    0.056141   -3.614391
     73          6           0        6.305851    0.478606   -3.349635
     74          1           0        6.831938    0.668242   -2.409044
     75          1           0        6.487488   -0.546306   -3.672792
     76          6           0        6.790217    1.424878   -4.464544
     77          8           0        7.008178    1.026163   -5.599656
     78          7           0        6.877564    2.725547   -4.067554
     79          1           0        6.599101    2.948365   -3.117160
     80          6           0        7.028974    3.815377   -5.009931
     81          1           0        7.062024    3.352965   -6.004412
     82          6           0        8.349512    4.572636   -4.860947
     83          6           0        5.840263    4.793023   -4.935597
     84          1           0        5.811389    5.237734   -3.929591
     85          1           0        6.035303    5.615453   -5.631256
     86          8           0        8.557196    5.657966   -5.357522
     87          6           0        4.499354    4.123197   -5.247190
     88          1           0        4.520881    3.675669   -6.246838
     89          1           0        4.334955    3.290002   -4.551474
     90          6           0        3.320980    5.097460   -5.146337
     91          1           0        3.458766    5.917216   -5.867385
     92          1           0        3.310947    5.570433   -4.153374
     93          6           0        1.955713    4.444012   -5.386718
     94          1           0        1.791262    3.665064   -4.627320
     95          1           0        1.167209    5.203639   -5.229626
     96          7           0        1.907767    3.791787   -6.699193
     97          1           0        2.032918    4.490780   -7.431002
     98          1           0        0.989529    3.380126   -6.855731
     99          8           0        9.273288    3.900579   -4.140584
    100          1           0       10.075700    4.456642   -4.149566
 ---------------------------------------------------------------------

 SCF Done:  E(RB3LYP) =  -2418.57464155     A.U. after    2 cycles

 Alpha  occ. eigenvalues --  -19.27331 -19.24925 -19.23568 -19.22749 -19.22211
 Alpha  occ. eigenvalues --  -19.21575 -19.20954 -19.20617 -19.19684 -19.17634
 Alpha  occ. eigenvalues --  -19.15674 -14.60880 -14.48910 -14.48239 -14.46321
 Alpha  occ. eigenvalues --  -14.46148 -14.44412 -14.43397 -14.39859 -14.36151
 Alpha  occ. eigenvalues --  -10.43720 -10.42938 -10.41348 -10.39618 -10.39128
 Alpha  occ. eigenvalues --  -10.37578 -10.36297 -10.35794 -10.35414 -10.34529
 Alpha  occ. eigenvalues --  -10.33916 -10.33065 -10.31942 -10.31740 -10.30876
 Alpha  occ. eigenvalues --  -10.30525 -10.29987 -10.28500 -10.28103 -10.27774
 Alpha  occ. eigenvalues --  -10.27716 -10.26760 -10.26057 -10.25811 -10.24878
 Alpha  occ. eigenvalues --  -10.23094 -10.23054 -10.22332  -1.19897  -1.16724
 Alpha  occ. eigenvalues --   -1.14905  -1.14421  -1.14409  -1.13814  -1.12609
 Alpha  occ. eigenvalues --   -1.11254  -1.09113  -1.08145  -1.07528  -1.06379
 Alpha  occ. eigenvalues --   -1.05288  -1.03452  -1.03115  -1.02432  -1.00748
 Alpha  occ. eigenvalues --   -0.99244  -0.96866  -0.94523  -0.92943  -0.91436
 Alpha  occ. eigenvalues --   -0.88303  -0.85688  -0.84716  -0.84445  -0.83628
 Alpha  occ. eigenvalues --   -0.82526  -0.80731  -0.80014  -0.79017  -0.77803
 Alpha  occ. eigenvalues --   -0.75844  -0.75061  -0.74620  -0.73894  -0.73042
 Alpha  occ. eigenvalues --   -0.72488  -0.71488  -0.70574  -0.70073  -0.68556
 Alpha  occ. eigenvalues --   -0.68006  -0.67481  -0.67423  -0.67015  -0.66004
 Alpha  occ. eigenvalues --   -0.65871  -0.65625  -0.64215  -0.63684  -0.63449
 Alpha  occ. eigenvalues --   -0.63131  -0.62644  -0.61825  -0.60331  -0.59982
 Alpha  occ. eigenvalues --   -0.59638  -0.59158  -0.58567  -0.58138  -0.57446
 Alpha  occ. eigenvalues --   -0.57134  -0.57077  -0.55581  -0.55337  -0.55071
 Alpha  occ. eigenvalues --   -0.54758  -0.54681  -0.54203  -0.54131  -0.54004
 Alpha  occ. eigenvalues --   -0.53744  -0.53324  -0.53106  -0.52852  -0.52160
 Alpha  occ. eigenvalues --   -0.51850  -0.51476  -0.51438  -0.51006  -0.50567
 Alpha  occ. eigenvalues --   -0.50270  -0.50126  -0.50029  -0.49928  -0.49422
 Alpha  occ. eigenvalues --   -0.49304  -0.48738  -0.48219  -0.47960  -0.47725
 Alpha  occ. eigenvalues --   -0.47174  -0.47047  -0.47015  -0.46572  -0.46288
 Alpha  occ. eigenvalues --   -0.45894  -0.45529  -0.45411  -0.45368  -0.45317
 Alpha  occ. eigenvalues --   -0.45032  -0.44274  -0.44011  -0.43810  -0.43656
 Alpha  occ. eigenvalues --   -0.42883  -0.42246  -0.42102  -0.42095  -0.41551
 Alpha  occ. eigenvalues --   -0.40771  -0.40557  -0.40476  -0.40371  -0.40280
 Alpha  occ. eigenvalues --   -0.39451  -0.38747  -0.38208  -0.37802  -0.37571
 Alpha  occ. eigenvalues --   -0.37414  -0.36666  -0.36318  -0.36060  -0.36009
 Alpha  occ. eigenvalues --   -0.35423  -0.35030  -0.34020  -0.33920  -0.33048
 Alpha  occ. eigenvalues --   -0.32593  -0.31813  -0.28930  -0.28679  -0.28193
 Alpha virt. eigenvalues --   -0.12902  -0.11879  -0.11215  -0.08875  -0.08313
 Alpha virt. eigenvalues --   -0.06877  -0.06847  -0.05450  -0.04100  -0.02996
 Alpha virt. eigenvalues --   -0.02914  -0.01933  -0.01810  -0.01111  -0.00625

 Mulliken charges:
               1
     1  N   -0.761010
     2  H    0.420243
     3  H    0.412730
     4  H    0.433468
     5  C   -0.116091
     6  H    0.239064
     7  C    0.654042
     8  C   -0.392038
     9  H    0.199045
    10  H    0.219781
    11  O   -0.540220
    12  C    0.641636
    13  N   -0.722468
    14  H    0.368281
    15  H    0.364554
    16  O   -0.522194
    17  N   -0.600297
    18  H    0.399277
    19  C   -0.079157
    20  H    0.197024
    21  C    0.652901
    22  C   -0.113431
    23  H    0.154173
    24  O   -0.585391
    25  C   -0.290870
    26  H    0.143644
    27  H    0.151768
    28  C   -0.453542
    29  H    0.150772
    30  H    0.176566
    31  H    0.157773
    32  C   -0.452838
    33  H    0.158698
    34  H    0.156513
    35  H    0.163191
    36  N   -0.612562
    37  H    0.372731
    38  C   -0.039797
    39  H    0.178830
    40  C    0.630756
    41  C   -0.451476
    42  H    0.160343
    43  H    0.180455
    44  H    0.170899
    45  O   -0.548871
    46  N   -0.605844
    47  H    0.354941
    48  C   -0.076976
    49  H    0.190167
    50  C    0.636514
    51  C    0.109602
    52  H    0.155809
    53  O   -0.562490
    54  C   -0.448812
    55  H    0.153309
    56  H    0.180309
    57  H    0.143196
    58  O   -0.647596
    59  H    0.421879
    60  N   -0.609567
    61  H    0.386746
    62  C   -0.092461
    63  H    0.193328
    64  C    0.639142
    65  C   -0.054893
    66  H    0.142323
    67  H    0.163318
    68  O   -0.565617
    69  O   -0.635712
    70  H    0.422038
    71  N   -0.590342
    72  H    0.379068
    73  C   -0.244231
    74  H    0.191381
    75  H    0.189589
    76  C    0.595213
    77  O   -0.497290
    78  N   -0.591484
    79  H    0.361694
    80  C   -0.068581
    81  H    0.215393
    82  C    0.593265
    83  C   -0.274721
    84  H    0.133991
    85  H    0.174937
    86  O   -0.463456
    87  C   -0.254085
    88  H    0.171664
    89  H    0.119818
    90  C   -0.269513
    91  H    0.137912
    92  H    0.131899
    93  C   -0.140472
    94  H    0.121840
    95  H    0.114683
    96  N   -0.709548
    97  H    0.299593
    98  H    0.296540
    99  O   -0.558037
   100  H    0.413722
 Sum of Mulliken charges =   1.00000

 Dipole moment (field-independent basis, Debye):
    X=            -28.5405    Y=              9.6823    Z=             10.9396  Tot=             32.0621
 Quadrupole moment (field-independent basis, Debye-Ang):
   XX=            -87.4673   YY=           -229.6821   ZZ=           -266.7503
   XY=            -92.4394   XZ=            -34.7533   YZ=             20.5822

 Normal termination of Gaussian 16 at Mon Jun  6 03:07:08 2022.
