 Gaussian 16, Revision C.01,
 Gaussian 16:  ES64L-G16RevC.01  3-Jul-2019

 ----------------------------------------------------------------------
 # B3LYP/6-31G* empiricaldispersion=gd3 guess=read geom=check nosymm in
 tegral(ultrafinegrid)
 ----------------------------------------------------------------------

 ------------------------------------------------------
 Candidate Structure: Conf:883 Charge calc in gas phase
 ------------------------------------------------------
 Structure from the checkpoint file:  "conf-883.chk"
 Charge =  1 Multiplicity = 1

                          Input orientation:
 ---------------------------------------------------------------------
 Center     Atomic      Atomic             Coordinates (Angstroms)
 Number     Number       Type             X           Y           Z
 ---------------------------------------------------------------------
      1          7           0       -7.053310    2.491091    5.738537
      2          1           0       -7.313195    1.792976    6.442374
      3          1           0       -7.782344    3.208633    5.699057
      4          1           0       -6.107478    2.903167    6.011851
      5          6           0       -6.717138    1.882055    4.391814
      6          1           0       -7.227382    0.921540    4.299738
      7          6           0       -5.170787    1.723977    4.483747
      8          6           0       -7.131686    2.859233    3.266402
      9          1           0       -8.218599    2.819093    3.126391
     10          1           0       -6.840104    3.877770    3.538760
     11          8           0       -4.588198    2.447327    5.303940
     12          6           0       -6.350908    2.529019    1.979273
     13          7           0       -6.812771    1.462228    1.275570
     14          1           0       -6.220278    1.105422    0.532656
     15          1           0       -7.758920    1.117596    1.351140
     16          8           0       -5.309205    3.113489    1.734148
     17          7           0       -4.621095    0.843845    3.657723
     18          1           0       -5.198728    0.373618    2.960129
     19          6           0       -3.206222    0.872362    3.261820
     20          1           0       -2.786903    1.809663    3.633343
     21          6           0       -3.244382    0.858209    1.721531
     22          6           0       -2.412715   -0.329019    3.850574
     23          1           0       -2.482331   -0.204139    4.941105
     24          8           0       -4.133929    0.230109    1.131199
     25          6           0       -0.921158   -0.299223    3.459179
     26          1           0       -0.806612   -0.413242    2.375359
     27          1           0       -0.457123   -1.191469    3.896986
     28          6           0       -3.046520   -1.675859    3.472232
     29          1           0       -3.017262   -1.840949    2.390524
     30          1           0       -2.501665   -2.492401    3.956234
     31          1           0       -4.092235   -1.740990    3.793479
     32          6           0       -0.132228    0.928238    3.927155
     33          1           0        0.921782    0.810022    3.660143
     34          1           0       -0.473335    1.863895    3.465459
     35          1           0       -0.200458    1.060149    5.013653
     36          7           0       -2.252810    1.518748    1.114854
     37          1           0       -1.565931    2.034554    1.652793
     38          6           0       -2.027799    1.512297   -0.329841
     39          1           0       -2.503149    0.610955   -0.726008
     40          6           0       -0.500856    1.462934   -0.464415
     41          6           0       -2.613321    2.767361   -0.986641
     42          1           0       -2.508275    2.718781   -2.075742
     43          1           0       -3.672299    2.855273   -0.727447
     44          1           0       -2.086430    3.654347   -0.622950
     45          8           0        0.181279    2.295113    0.147603
     46          7           0        0.016949    0.478825   -1.217173
     47          1           0       -0.564830   -0.219078   -1.668186
     48          6           0        1.449554    0.255540   -1.322459
     49          1           0        1.942741    1.232327   -1.380866
     50          6           0        1.670694   -0.560413   -2.601333
     51          6           0        2.006384   -0.515265   -0.074381
     52          1           0        1.656901   -1.552855   -0.143715
     53          8           0        0.805986   -1.334446   -3.009005
     54          6           0        3.533853   -0.482109   -0.005360
     55          1           0        4.012323   -0.995297   -0.844167
     56          1           0        3.855379   -0.970093    0.918672
     57          1           0        3.898199    0.553004    0.018354
     58          8           0        1.433341   -0.012611    1.126122
     59          1           0        1.434648    0.960795    1.079331
     60          7           0        2.867671   -0.390090   -3.211839
     61          1           0        3.607048    0.122416   -2.739219
     62          6           0        3.350502   -1.334008   -4.203170
     63          1           0        2.931617   -2.326305   -3.989166
     64          6           0        4.881908   -1.396847   -4.040497
     65          6           0        2.879340   -0.950009   -5.613661
     66          1           0        3.352994   -0.007205   -5.923986
     67          1           0        1.792685   -0.807203   -5.573872
     68          8           0        5.432802   -0.822593   -3.099042
     69          8           0        3.227182   -2.031042   -6.481976
     70          1           0        2.972302   -1.800858   -7.387926
     71          7           0        5.555244   -2.137591   -4.948973
     72          1           0        5.042873   -2.448011   -5.770330
     73          6           0        7.006921   -2.240948   -4.869146
     74          1           0        7.376221   -2.656028   -5.811075
     75          1           0        7.455113   -1.254626   -4.726846
     76          6           0        7.525280   -3.115804   -3.714115
     77          8           0        8.657708   -2.945782   -3.280130
     78          7           0        6.665220   -4.070249   -3.272772
     79          1           0        5.748217   -4.128218   -3.692993
     80          6           0        6.960494   -4.940704   -2.148486
     81          1           0        8.033436   -4.866993   -1.963850
     82          6           0        6.660501   -6.401148   -2.450613
     83          6           0        6.180198   -4.540912   -0.867243
     84          1           0        5.110841   -4.725016   -1.046753
     85          1           0        6.490795   -5.222345   -0.066388
     86          8           0        7.109309   -7.328349   -1.819973
     87          6           0        6.388844   -3.077387   -0.457593
     88          1           0        6.106999   -2.435846   -1.300035
     89          1           0        5.684115   -2.843253    0.352482
     90          6           0        7.811250   -2.728698   -0.001239
     91          1           0        8.546155   -3.133210   -0.707554
     92          1           0        8.008757   -3.201901    0.971769
     93          6           0        8.052257   -1.207543    0.095402
     94          1           0        7.292609   -0.752718    0.747769
     95          1           0        9.019112   -1.036618    0.586034
     96          7           0        8.057044   -0.473546   -1.172492
     97          1           0        7.140324   -0.510622   -1.613167
     98          1           0        8.686012   -0.940474   -1.826207
     99          8           0        5.762234   -6.554644   -3.459495
    100          1           0        5.604211   -7.514320   -3.541030
 ---------------------------------------------------------------------

 SCF Done:  E(RB3LYP) =  -2418.55842103     A.U. after    2 cycles

 Alpha  occ. eigenvalues --  -19.27333 -19.25164 -19.24118 -19.23972 -19.21610
 Alpha  occ. eigenvalues --  -19.20735 -19.20309 -19.20062 -19.19998 -19.18903
 Alpha  occ. eigenvalues --  -19.16520 -14.61493 -14.49548 -14.48039 -14.45660
 Alpha  occ. eigenvalues --  -14.44626 -14.44011 -14.43854 -14.41495 -14.31871
 Alpha  occ. eigenvalues --  -10.44048 -10.42584 -10.42154 -10.38739 -10.37295
 Alpha  occ. eigenvalues --  -10.37101 -10.37099 -10.37033 -10.35779 -10.34258
 Alpha  occ. eigenvalues --  -10.33748 -10.32115 -10.31954 -10.31598 -10.31265
 Alpha  occ. eigenvalues --  -10.31246 -10.29290 -10.28679 -10.28433 -10.25780
 Alpha  occ. eigenvalues --  -10.25560 -10.25439 -10.24654 -10.23806 -10.23697
 Alpha  occ. eigenvalues --  -10.22448 -10.21844 -10.20300  -1.20000  -1.16002
 Alpha  occ. eigenvalues --   -1.15730  -1.15050  -1.13554  -1.12746  -1.12219
 Alpha  occ. eigenvalues --   -1.11477  -1.10929  -1.08567  -1.08216  -1.06712
 Alpha  occ. eigenvalues --   -1.06418  -1.02983  -1.02197  -1.00937  -1.00676
 Alpha  occ. eigenvalues --   -1.00229  -0.97899  -0.94740  -0.90389  -0.89083
 Alpha  occ. eigenvalues --   -0.87029  -0.85612  -0.84624  -0.84407  -0.83111
 Alpha  occ. eigenvalues --   -0.81666  -0.80062  -0.79549  -0.78300  -0.77819
 Alpha  occ. eigenvalues --   -0.75441  -0.75147  -0.74202  -0.73080  -0.72838
 Alpha  occ. eigenvalues --   -0.72462  -0.71204  -0.70089  -0.69207  -0.68128
 Alpha  occ. eigenvalues --   -0.67676  -0.67386  -0.67080  -0.66850  -0.66110
 Alpha  occ. eigenvalues --   -0.65824  -0.65746  -0.64915  -0.64287  -0.64133
 Alpha  occ. eigenvalues --   -0.63674  -0.62069  -0.60748  -0.60337  -0.59659
 Alpha  occ. eigenvalues --   -0.59318  -0.58642  -0.58071  -0.57848  -0.57202
 Alpha  occ. eigenvalues --   -0.56705  -0.56309  -0.55700  -0.55367  -0.55108
 Alpha  occ. eigenvalues --   -0.54506  -0.54239  -0.53388  -0.53161  -0.52958
 Alpha  occ. eigenvalues --   -0.52809  -0.52553  -0.52224  -0.52003  -0.51467
 Alpha  occ. eigenvalues --   -0.51291  -0.51024  -0.50535  -0.50442  -0.50339
 Alpha  occ. eigenvalues --   -0.50285  -0.50016  -0.49663  -0.49375  -0.49221
 Alpha  occ. eigenvalues --   -0.48863  -0.48253  -0.47954  -0.47868  -0.47315
 Alpha  occ. eigenvalues --   -0.46920  -0.46716  -0.46355  -0.46164  -0.45453
 Alpha  occ. eigenvalues --   -0.44916  -0.44855  -0.44655  -0.44570  -0.44347
 Alpha  occ. eigenvalues --   -0.43906  -0.43646  -0.43589  -0.43358  -0.43188
 Alpha  occ. eigenvalues --   -0.42491  -0.42272  -0.41700  -0.41545  -0.41077
 Alpha  occ. eigenvalues --   -0.41026  -0.40307  -0.40048  -0.39427  -0.39197
 Alpha  occ. eigenvalues --   -0.38624  -0.37660  -0.37468  -0.36913  -0.36578
 Alpha  occ. eigenvalues --   -0.36089  -0.35914  -0.35280  -0.35144  -0.34827
 Alpha  occ. eigenvalues --   -0.34766  -0.34385  -0.33926  -0.33745  -0.33535
 Alpha  occ. eigenvalues --   -0.33314  -0.32353  -0.30127  -0.29818  -0.24423
 Alpha virt. eigenvalues --   -0.13353  -0.12176  -0.11392  -0.08143  -0.07236
 Alpha virt. eigenvalues --   -0.06533  -0.06071  -0.05389  -0.05122  -0.04099
 Alpha virt. eigenvalues --   -0.03343  -0.02890  -0.02359  -0.01288  -0.00971

 Mulliken charges:
               1
     1  N   -0.751655
     2  H    0.419947
     3  H    0.417028
     4  H    0.436035
     5  C   -0.119760
     6  H    0.216080
     7  C    0.649401
     8  C   -0.376629
     9  H    0.187003
    10  H    0.211563
    11  O   -0.533752
    12  C    0.578593
    13  N   -0.738511
    14  H    0.392374
    15  H    0.348905
    16  O   -0.466019
    17  N   -0.584498
    18  H    0.373361
    19  C   -0.081831
    20  H    0.194245
    21  C    0.662697
    22  C   -0.075696
    23  H    0.142957
    24  O   -0.583969
    25  C   -0.271929
    26  H    0.166441
    27  H    0.154525
    28  C   -0.463027
    29  H    0.171492
    30  H    0.165202
    31  H    0.128451
    32  C   -0.468579
    33  H    0.181962
    34  H    0.127926
    35  H    0.151226
    36  N   -0.599321
    37  H    0.369257
    38  C   -0.048160
    39  H    0.174175
    40  C    0.639984
    41  C   -0.447531
    42  H    0.161346
    43  H    0.174638
    44  H    0.179910
    45  O   -0.568454
    46  N   -0.599576
    47  H    0.357051
    48  C   -0.098763
    49  H    0.180130
    50  C    0.609797
    51  C    0.160810
    52  H    0.147223
    53  O   -0.534128
    54  C   -0.488849
    55  H    0.168548
    56  H    0.177596
    57  H    0.153210
    58  O   -0.638690
    59  H    0.416020
    60  N   -0.614431
    61  H    0.368390
    62  C   -0.061958
    63  H    0.203262
    64  C    0.597444
    65  C   -0.040475
    66  H    0.148980
    67  H    0.175032
    68  O   -0.521159
    69  O   -0.630491
    70  H    0.418635
    71  N   -0.621704
    72  H    0.377001
    73  C   -0.229073
    74  H    0.190888
    75  H    0.211418
    76  C    0.619838
    77  O   -0.514592
    78  N   -0.586780
    79  H    0.337394
    80  C   -0.059412
    81  H    0.217842
    82  C    0.591107
    83  C   -0.270352
    84  H    0.125173
    85  H    0.169162
    86  O   -0.450609
    87  C   -0.283278
    88  H    0.150247
    89  H    0.129602
    90  C   -0.272031
    91  H    0.159341
    92  H    0.121559
    93  C   -0.142793
    94  H    0.121035
    95  H    0.139890
    96  N   -0.747881
    97  H    0.319535
    98  H    0.310624
    99  O   -0.581702
   100  H    0.417545
 Sum of Mulliken charges =   1.00000

 Dipole moment (field-independent basis, Debye):
    X=            -31.1791    Y=              4.9184    Z=              9.7644  Tot=             33.0404
 Quadrupole moment (field-independent basis, Debye-Ang):
   XX=           -101.4813   YY=           -269.3647   ZZ=           -111.0080
   XY=            -62.1018   XZ=           -171.6184   YZ=             54.9996

 Normal termination of Gaussian 16 at Mon Jun  6 03:55:01 2022.
