 Gaussian 16, Revision C.01,
 Gaussian 16:  ES64L-G16RevC.01  3-Jul-2019

 ----------------------------------------------------------------------
 # B3LYP/6-31G* empiricaldispersion=gd3 guess=read geom=check nosymm in
 tegral(ultrafinegrid)
 ----------------------------------------------------------------------

 ------------------------------------------------------
 Candidate Structure: Conf:684 Charge calc in gas phase
 ------------------------------------------------------
 Structure from the checkpoint file:  "conf-684.chk"
 Charge =  1 Multiplicity = 1

                          Input orientation:
 ---------------------------------------------------------------------
 Center     Atomic      Atomic             Coordinates (Angstroms)
 Number     Number       Type             X           Y           Z
 ---------------------------------------------------------------------
      1          7           0       -7.064234    3.337624    4.644195
      2          1           0       -7.352761    3.508537    5.611982
      3          1           0       -7.806931    3.660605    4.018847
      4          1           0       -6.149411    3.857513    4.463483
      5          6           0       -6.638428    1.905729    4.403400
      6          1           0       -7.060925    1.258450    5.172316
      7          6           0       -5.091320    2.003925    4.465368
      8          6           0       -7.080493    1.438936    3.006762
      9          1           0       -8.153325    1.631548    2.868612
     10          1           0       -6.520077    1.972325    2.232610
     11          8           0       -4.594387    3.133367    4.344494
     12          6           0       -6.861722   -0.076682    2.869764
     13          7           0       -6.968847   -0.567041    1.618222
     14          1           0       -6.751161   -1.548831    1.496882
     15          1           0       -6.814212    0.032017    0.818667
     16          8           0       -6.682772   -0.777913    3.865687
     17          7           0       -4.421782    0.857689    4.561698
     18          1           0       -4.993791    0.014169    4.534872
     19          6           0       -3.071744    0.748994    4.000631
     20          1           0       -2.415767    1.445322    4.530815
     21          6           0       -3.167213    1.158848    2.509154
     22          6           0       -2.567281   -0.707605    4.177141
     23          1           0       -3.286689   -1.347864    3.644177
     24          8           0       -4.214966    1.001211    1.873198
     25          6           0       -2.580160   -1.135417    5.664641
     26          1           0       -2.280986   -2.190236    5.698243
     27          1           0       -3.606506   -1.105201    6.052052
     28          6           0       -1.187297   -0.925074    3.534459
     29          1           0       -0.449598   -0.197444    3.893797
     30          1           0       -0.815148   -1.921082    3.794057
     31          1           0       -1.211993   -0.869167    2.444050
     32          6           0       -1.671060   -0.320346    6.591746
     33          1           0       -1.707327   -0.724027    7.608684
     34          1           0       -0.626114   -0.347272    6.265677
     35          1           0       -1.979973    0.730198    6.649820
     36          7           0       -2.041200    1.675359    1.987111
     37          1           0       -1.187078    1.700895    2.535467
     38          6           0       -1.829413    1.863811    0.556349
     39          1           0       -2.623275    1.320225    0.036402
     40          6           0       -0.451731    1.253889    0.255334
     41          6           0       -1.862293    3.348104    0.165516
     42          1           0       -1.706260    3.466020   -0.911909
     43          1           0       -2.831255    3.780123    0.432214
     44          1           0       -1.074099    3.894579    0.692721
     45          8           0        0.457482    1.347137    1.086992
     46          7           0       -0.313760    0.669253   -0.949488
     47          1           0       -1.117095    0.503904   -1.545188
     48          6           0        0.894283   -0.056422   -1.320940
     49          1           0        1.749736    0.493778   -0.916571
     50          6           0        0.908008   -0.093531   -2.851956
     51          6           0        0.880107   -1.501168   -0.734229
     52          1           0        0.108703   -2.063459   -1.272654
     53          8           0       -0.121061   -0.427094   -3.452689
     54          6           0        2.232458   -2.183947   -0.905066
     55          1           0        2.518736   -2.247116   -1.956348
     56          1           0        2.189860   -3.201983   -0.512278
     57          1           0        3.012458   -1.632599   -0.363929
     58          8           0        0.453762   -1.495894    0.622404
     59          1           0        0.964561   -0.818505    1.098186
     60          7           0        2.053454    0.255431   -3.472589
     61          1           0        2.922545    0.259390   -2.946957
     62          6           0        2.177118    0.277376   -4.932066
     63          1           0        1.188807    0.505220   -5.341134
     64          6           0        2.634392   -1.099416   -5.450297
     65          6           0        3.175403    1.368839   -5.354880
     66          1           0        4.148666    1.159555   -4.884263
     67          1           0        2.815542    2.333908   -4.985094
     68          8           0        3.689399   -1.239841   -6.081632
     69          8           0        3.270011    1.460519   -6.757335
     70          1           0        3.716622    0.643120   -7.040474
     71          7           0        1.836017   -2.140953   -5.120696
     72          1           0        0.991899   -1.952575   -4.589252
     73          6           0        2.290814   -3.522910   -5.269774
     74          1           0        1.431088   -4.190189   -5.212498
     75          1           0        2.777792   -3.628874   -6.243156
     76          6           0        3.248088   -3.865755   -4.113564
     77          8           0        2.884844   -4.515924   -3.141170
     78          7           0        4.493778   -3.317118   -4.249807
     79          1           0        4.622064   -2.656194   -5.013116
     80          6           0        5.413846   -3.231011   -3.136672
     81          1           0        5.120364   -3.995265   -2.410063
     82          6           0        5.281446   -1.875404   -2.441828
     83          6           0        6.873825   -3.474056   -3.576844
     84          1           0        7.148791   -2.719415   -4.327754
     85          1           0        7.527098   -3.313590   -2.712169
     86          8           0        4.651090   -0.920059   -2.856144
     87          6           0        7.090626   -4.881241   -4.141734
     88          1           0        6.803013   -5.614447   -3.376265
     89          1           0        6.422509   -5.037352   -4.999232
     90          6           0        8.545122   -5.121388   -4.563013
     91          1           0        9.201200   -5.010632   -3.690085
     92          1           0        8.842930   -4.356855   -5.294903
     93          6           0        8.780852   -6.506298   -5.175692
     94          1           0        8.194021   -6.590786   -6.109939
     95          1           0        9.836122   -6.586438   -5.461847
     96          7           0        8.503148   -7.570782   -4.201981
     97          1           0        8.865912   -8.456963   -4.548101
     98          1           0        7.497662   -7.702898   -4.108393
     99          8           0        5.969222   -1.845347   -1.285648
    100          1           0        5.879683   -0.947217   -0.914669
 ---------------------------------------------------------------------

 SCF Done:  E(RB3LYP) =  -2418.57408064     A.U. after    2 cycles

 Alpha  occ. eigenvalues --  -19.27471 -19.27036 -19.24308 -19.22263 -19.21905
 Alpha  occ. eigenvalues --  -19.21239 -19.20670 -19.20401 -19.19442 -19.18686
 Alpha  occ. eigenvalues --  -19.17563 -14.60585 -14.48486 -14.47500 -14.45742
 Alpha  occ. eigenvalues --  -14.45115 -14.44492 -14.43435 -14.41361 -14.34718
 Alpha  occ. eigenvalues --  -10.43300 -10.42325 -10.40971 -10.39827 -10.38926
 Alpha  occ. eigenvalues --  -10.37847 -10.37456 -10.36155 -10.34946 -10.34718
 Alpha  occ. eigenvalues --  -10.33942 -10.32696 -10.31504 -10.31199 -10.29991
 Alpha  occ. eigenvalues --  -10.29968 -10.29252 -10.29243 -10.28921 -10.26962
 Alpha  occ. eigenvalues --  -10.26826 -10.25598 -10.25393 -10.24791 -10.24354
 Alpha  occ. eigenvalues --  -10.23819 -10.22934 -10.21941  -1.19554  -1.18521
 Alpha  occ. eigenvalues --   -1.16113  -1.14415  -1.13597  -1.12855  -1.12110
 Alpha  occ. eigenvalues --   -1.11158  -1.09599  -1.09144  -1.08704  -1.06396
 Alpha  occ. eigenvalues --   -1.05876  -1.02772  -1.02344  -1.01331  -1.00909
 Alpha  occ. eigenvalues --   -0.99328  -0.98369  -0.94048  -0.91452  -0.90642
 Alpha  occ. eigenvalues --   -0.87421  -0.85910  -0.85253  -0.83962  -0.82711
 Alpha  occ. eigenvalues --   -0.81814  -0.80980  -0.79340  -0.78628  -0.78013
 Alpha  occ. eigenvalues --   -0.74963  -0.74661  -0.74400  -0.74168  -0.72570
 Alpha  occ. eigenvalues --   -0.71080  -0.70710  -0.69890  -0.69209  -0.68984
 Alpha  occ. eigenvalues --   -0.68336  -0.67561  -0.67379  -0.66862  -0.66638
 Alpha  occ. eigenvalues --   -0.65394  -0.65275  -0.64598  -0.64029  -0.63892
 Alpha  occ. eigenvalues --   -0.62924  -0.61702  -0.61495  -0.60526  -0.59118
 Alpha  occ. eigenvalues --   -0.58980  -0.58750  -0.58201  -0.57872  -0.56931
 Alpha  occ. eigenvalues --   -0.56709  -0.56411  -0.55891  -0.55620  -0.55143
 Alpha  occ. eigenvalues --   -0.54778  -0.54375  -0.54191  -0.53803  -0.53573
 Alpha  occ. eigenvalues --   -0.53336  -0.53086  -0.52828  -0.52652  -0.52336
 Alpha  occ. eigenvalues --   -0.52041  -0.51730  -0.51522  -0.51427  -0.50721
 Alpha  occ. eigenvalues --   -0.50294  -0.50086  -0.49640  -0.49334  -0.48924
 Alpha  occ. eigenvalues --   -0.48534  -0.48305  -0.47954  -0.47474  -0.47124
 Alpha  occ. eigenvalues --   -0.46997  -0.46876  -0.46736  -0.46553  -0.46324
 Alpha  occ. eigenvalues --   -0.45806  -0.45634  -0.45563  -0.45138  -0.44904
 Alpha  occ. eigenvalues --   -0.44665  -0.44332  -0.43935  -0.43791  -0.43604
 Alpha  occ. eigenvalues --   -0.42947  -0.41914  -0.41716  -0.41497  -0.41221
 Alpha  occ. eigenvalues --   -0.41199  -0.41035  -0.40300  -0.39809  -0.39676
 Alpha  occ. eigenvalues --   -0.38808  -0.38733  -0.38256  -0.38159  -0.37600
 Alpha  occ. eigenvalues --   -0.37187  -0.36181  -0.36154  -0.35742  -0.35397
 Alpha  occ. eigenvalues --   -0.35201  -0.34461  -0.34216  -0.34037  -0.32978
 Alpha  occ. eigenvalues --   -0.32345  -0.31750  -0.31076  -0.30107  -0.26993
 Alpha virt. eigenvalues --   -0.12670  -0.11570  -0.10600  -0.08184  -0.07803
 Alpha virt. eigenvalues --   -0.07086  -0.06586  -0.06423  -0.05275  -0.03567
 Alpha virt. eigenvalues --   -0.03509  -0.02392  -0.01221  -0.00643  -0.00515

 Mulliken charges:
               1
     1  N   -0.759937
     2  H    0.419826
     3  H    0.412543
     4  H    0.432617
     5  C   -0.114552
     6  H    0.238694
     7  C    0.649731
     8  C   -0.395530
     9  H    0.197417
    10  H    0.220484
    11  O   -0.540948
    12  C    0.641167
    13  N   -0.721270
    14  H    0.368326
    15  H    0.363880
    16  O   -0.520597
    17  N   -0.603099
    18  H    0.394766
    19  C   -0.057928
    20  H    0.185216
    21  C    0.634460
    22  C   -0.116292
    23  H    0.147677
    24  O   -0.579687
    25  C   -0.259919
    26  H    0.159219
    27  H    0.136965
    28  C   -0.491193
    29  H    0.149387
    30  H    0.172261
    31  H    0.186488
    32  C   -0.460284
    33  H    0.166170
    34  H    0.161972
    35  H    0.143808
    36  N   -0.584340
    37  H    0.361469
    38  C   -0.061116
    39  H    0.173265
    40  C    0.647869
    41  C   -0.439103
    42  H    0.167120
    43  H    0.165224
    44  H    0.175954
    45  O   -0.566428
    46  N   -0.599494
    47  H    0.352691
    48  C   -0.077421
    49  H    0.169770
    50  C    0.611176
    51  C    0.148313
    52  H    0.154430
    53  O   -0.559826
    54  C   -0.472944
    55  H    0.164417
    56  H    0.190560
    57  H    0.125013
    58  O   -0.632571
    59  H    0.407332
    60  N   -0.602765
    61  H    0.375651
    62  C   -0.097865
    63  H    0.205836
    64  C    0.649266
    65  C   -0.034198
    66  H    0.144094
    67  H    0.152479
    68  O   -0.565198
    69  O   -0.622780
    70  H    0.417888
    71  N   -0.597032
    72  H    0.369445
    73  C   -0.237299
    74  H    0.188716
    75  H    0.196553
    76  C    0.590775
    77  O   -0.510186
    78  N   -0.587851
    79  H    0.373927
    80  C   -0.066668
    81  H    0.210136
    82  C    0.609492
    83  C   -0.280844
    84  H    0.145894
    85  H    0.169685
    86  O   -0.502634
    87  C   -0.265427
    88  H    0.148040
    89  H    0.141528
    90  C   -0.238671
    91  H    0.146507
    92  H    0.127492
    93  C   -0.145665
    94  H    0.114802
    95  H    0.144877
    96  N   -0.717286
    97  H    0.302442
    98  H    0.296999
    99  O   -0.549465
   100  H    0.416112
 Sum of Mulliken charges =   1.00000

 Dipole moment (field-independent basis, Debye):
    X=            -22.0050    Y=              7.6455    Z=             12.9694  Tot=             26.6623
 Quadrupole moment (field-independent basis, Debye-Ang):
   XX=            -60.0085   YY=           -242.4902   ZZ=           -202.7648
   XY=            -88.8035   XZ=           -119.1182   YZ=             70.7594

 Normal termination of Gaussian 16 at Mon Jun  6 03:40:44 2022.
