 Gaussian 16, Revision C.01,
 Gaussian 16:  ES64L-G16RevC.01  3-Jul-2019

 ----------------------------------------------------------------------
 # B3LYP/6-31G* empiricaldispersion=gd3 guess=read geom=check nosymm in
 tegral(ultrafinegrid)
 ----------------------------------------------------------------------

 ------------------------------------------------------
 Candidate Structure: Conf:197 Charge calc in gas phase
 ------------------------------------------------------
 Structure from the checkpoint file:  "conf-197.chk"
 Charge =  1 Multiplicity = 1

                          Input orientation:
 ---------------------------------------------------------------------
 Center     Atomic      Atomic             Coordinates (Angstroms)
 Number     Number       Type             X           Y           Z
 ---------------------------------------------------------------------
      1          7           0       -3.514879   -5.122658    2.622005
      2          1           0       -2.785592   -5.573362    3.181434
      3          1           0       -3.920808   -5.809019    1.927234
      4          1           0       -4.205256   -4.712860    3.282371
      5          6           0       -2.981888   -3.959873    1.828650
      6          1           0       -1.951496   -4.186424    1.544048
      7          6           0       -3.088084   -2.739365    2.773962
      8          6           0       -3.858873   -3.732107    0.580844
      9          1           0       -4.861231   -3.419725    0.903561
     10          1           0       -3.434677   -2.898241    0.013117
     11          8           0       -3.876349   -2.811758    3.719505
     12          6           0       -4.018991   -4.996861   -0.266737
     13          7           0       -4.052096   -4.841186   -1.598575
     14          1           0       -4.222806   -5.655208   -2.177330
     15          1           0       -3.968654   -3.941313   -2.049727
     16          8           0       -4.140292   -6.104593    0.277166
     17          7           0       -2.336247   -1.692827    2.435851
     18          1           0       -1.814889   -1.685631    1.560413
     19          6           0       -2.475959   -0.349776    3.003084
     20          1           0       -3.435374   -0.308361    3.530016
     21          6           0       -2.486123    0.569547    1.763944
     22          6           0       -1.324050   -0.014461    4.000990
     23          1           0       -0.388735   -0.011075    3.428237
     24          8           0       -1.977516    0.183837    0.705250
     25          6           0       -1.242977   -1.100357    5.094654
     26          1           0       -1.165263   -2.083132    4.614433
     27          1           0       -2.181577   -1.111983    5.665966
     28          6           0       -1.503125    1.387164    4.604305
     29          1           0       -2.467393    1.476400    5.124916
     30          1           0       -0.719543    1.583033    5.339575
     31          1           0       -1.425397    2.176748    3.854229
     32          6           0       -0.050161   -0.937714    6.044587
     33          1           0        0.028629   -1.802721    6.711674
     34          1           0        0.890182   -0.856602    5.486182
     35          1           0       -0.141022   -0.049045    6.676263
     36          7           0       -3.083121    1.772773    1.901459
     37          1           0       -3.357996    2.067807    2.829826
     38          6           0       -2.888706    2.841074    0.907521
     39          1           0       -3.085222    2.403907   -0.075252
     40          6           0       -1.416622    3.287301    1.018582
     41          6           0       -3.839098    3.998670    1.189163
     42          1           0       -3.741484    4.760388    0.410482
     43          1           0       -4.876471    3.651009    1.208548
     44          1           0       -3.586606    4.466985    2.145417
     45          8           0       -1.045533    4.007792    1.949397
     46          7           0       -0.593200    2.789128    0.072110
     47          1           0       -0.917796    2.039290   -0.528871
     48          6           0        0.847792    2.944031    0.152579
     49          1           0        1.056374    3.951738    0.527171
     50          6           0        1.415265    2.732265   -1.250163
     51          6           0        1.483981    1.898909    1.122037
     52          1           0        1.341303    0.909549    0.669881
     53          8           0        0.931572    1.865043   -1.988062
     54          6           0        2.973219    2.154471    1.360938
     55          1           0        3.574010    2.028890    0.454001
     56          1           0        3.338138    1.449729    2.113033
     57          1           0        3.135408    3.169210    1.746392
     58          8           0        0.768858    1.854112    2.351450
     59          1           0        0.530538    2.764258    2.604257
     60          7           0        2.479831    3.488641   -1.580517
     61          1           0        2.922394    4.095729   -0.896755
     62          6           0        3.303140    3.224497   -2.759991
     63          1           0        2.646836    3.093666   -3.625798
     64          6           0        4.120010    1.941932   -2.510837
     65          6           0        4.245739    4.421455   -2.961375
     66          1           0        3.658849    5.302275   -3.238367
     67          1           0        4.944792    4.189541   -3.774007
     68          8           0        5.256050    1.971646   -2.035362
     69          8           0        4.910083    4.734692   -1.745215
     70          1           0        5.483168    3.963814   -1.568014
     71          7           0        3.497985    0.779685   -2.848610
     72          1           0        2.491060    0.822298   -2.976077
     73          6           0        4.149721   -0.494855   -2.575756
     74          1           0        4.427550   -0.587609   -1.521312
     75          1           0        3.450113   -1.297753   -2.825400
     76          6           0        5.453302   -0.695768   -3.369623
     77          8           0        6.324892   -1.445346   -2.955959
     78          7           0        5.518747   -0.014192   -4.548703
     79          1           0        4.806444    0.686530   -4.714645
     80          6           0        6.796029    0.264165   -5.182320
     81          1           0        7.587683    0.032070   -4.460443
     82          6           0        6.840647    1.757823   -5.478559
     83          6           0        7.041256   -0.569477   -6.459268
     84          1           0        6.287108   -0.303258   -7.212791
     85          1           0        8.018482   -0.289204   -6.869858
     86          8           0        5.892415    2.514080   -5.380892
     87          6           0        6.991821   -2.073966   -6.177330
     88          1           0        7.685783   -2.306501   -5.360245
     89          1           0        5.992292   -2.336000   -5.805913
     90          6           0        7.320669   -2.924822   -7.407935
     91          1           0        8.346847   -2.708687   -7.741878
     92          1           0        6.659172   -2.641659   -8.240507
     93          6           0        7.177793   -4.437886   -7.152961
     94          1           0        6.135293   -4.659279   -6.885116
     95          1           0        7.377546   -4.979631   -8.086064
     96          7           0        8.030320   -5.017455   -6.111744
     97          1           0        7.833475   -4.582721   -5.211856
     98          1           0        9.009448   -4.818530   -6.315124
     99          8           0        8.056821    2.147860   -5.895107
    100          1           0        8.006682    3.103881   -6.086155
 ---------------------------------------------------------------------

 SCF Done:  E(RB3LYP) =  -2418.57954994     A.U. after    1 cycles

 Alpha  occ. eigenvalues --  -19.27524 -19.26522 -19.26337 -19.23149 -19.22005
 Alpha  occ. eigenvalues --  -19.21213 -19.20913 -19.20431 -19.20232 -19.19982
 Alpha  occ. eigenvalues --  -19.16930 -14.58534 -14.50880 -14.49505 -14.46987
 Alpha  occ. eigenvalues --  -14.44967 -14.44577 -14.43837 -14.41092 -14.34548
 Alpha  occ. eigenvalues --  -10.45127 -10.43497 -10.41569 -10.39959 -10.38950
 Alpha  occ. eigenvalues --  -10.37858 -10.37374 -10.36680 -10.36552 -10.34507
 Alpha  occ. eigenvalues --  -10.34488 -10.32914 -10.32201 -10.31810 -10.30963
 Alpha  occ. eigenvalues --  -10.29820 -10.29809 -10.29500 -10.28541 -10.26820
 Alpha  occ. eigenvalues --  -10.26674 -10.25826 -10.25015 -10.25008 -10.24214
 Alpha  occ. eigenvalues --  -10.24189 -10.22536 -10.22045  -1.19487  -1.18503
 Alpha  occ. eigenvalues --   -1.17562  -1.15028  -1.13118  -1.13060  -1.12162
 Alpha  occ. eigenvalues --   -1.11601  -1.09336  -1.09053  -1.08454  -1.07843
 Alpha  occ. eigenvalues --   -1.06272  -1.05839  -1.03276  -1.01256  -1.00994
 Alpha  occ. eigenvalues --   -1.00156  -0.97951  -0.94872  -0.91326  -0.90757
 Alpha  occ. eigenvalues --   -0.87551  -0.86051  -0.85334  -0.84918  -0.83355
 Alpha  occ. eigenvalues --   -0.82068  -0.80838  -0.79395  -0.79192  -0.78527
 Alpha  occ. eigenvalues --   -0.75482  -0.74153  -0.73943  -0.73771  -0.73007
 Alpha  occ. eigenvalues --   -0.71918  -0.71655  -0.71120  -0.69507  -0.69380
 Alpha  occ. eigenvalues --   -0.68708  -0.68344  -0.67924  -0.67174  -0.66647
 Alpha  occ. eigenvalues --   -0.66564  -0.65429  -0.65133  -0.64165  -0.63761
 Alpha  occ. eigenvalues --   -0.63453  -0.62049  -0.61979  -0.60716  -0.59583
 Alpha  occ. eigenvalues --   -0.59323  -0.58936  -0.58745  -0.58258  -0.58142
 Alpha  occ. eigenvalues --   -0.57695  -0.57156  -0.57038  -0.56107  -0.55974
 Alpha  occ. eigenvalues --   -0.55465  -0.55286  -0.55051  -0.53900  -0.53684
 Alpha  occ. eigenvalues --   -0.53504  -0.53058  -0.52664  -0.52384  -0.52216
 Alpha  occ. eigenvalues --   -0.51909  -0.51834  -0.51494  -0.51190  -0.50984
 Alpha  occ. eigenvalues --   -0.50604  -0.50376  -0.49877  -0.49547  -0.49215
 Alpha  occ. eigenvalues --   -0.48853  -0.48592  -0.48105  -0.47946  -0.47528
 Alpha  occ. eigenvalues --   -0.47366  -0.47196  -0.46783  -0.46706  -0.46236
 Alpha  occ. eigenvalues --   -0.46003  -0.45980  -0.45695  -0.45579  -0.45396
 Alpha  occ. eigenvalues --   -0.44732  -0.44688  -0.44421  -0.44204  -0.44160
 Alpha  occ. eigenvalues --   -0.42782  -0.42751  -0.42122  -0.41776  -0.41678
 Alpha  occ. eigenvalues --   -0.41154  -0.40814  -0.40666  -0.40375  -0.40186
 Alpha  occ. eigenvalues --   -0.39984  -0.39090  -0.38893  -0.38612  -0.37577
 Alpha  occ. eigenvalues --   -0.37389  -0.36937  -0.36806  -0.36419  -0.35524
 Alpha  occ. eigenvalues --   -0.35192  -0.34807  -0.34390  -0.33811  -0.33598
 Alpha  occ. eigenvalues --   -0.32702  -0.31947  -0.31221  -0.30329  -0.26619
 Alpha virt. eigenvalues --   -0.13239  -0.12115  -0.09694  -0.09062  -0.07664
 Alpha virt. eigenvalues --   -0.06753  -0.06001  -0.05577  -0.05539  -0.04896
 Alpha virt. eigenvalues --   -0.03386  -0.02915  -0.01595  -0.01241  -0.00100

 Mulliken charges:
               1
     1  N   -0.751357
     2  H    0.411595
     3  H    0.444159
     4  H    0.417131
     5  C   -0.127901
     6  H    0.217535
     7  C    0.644834
     8  C   -0.403481
     9  H    0.228301
    10  H    0.208469
    11  O   -0.524625
    12  C    0.647589
    13  N   -0.726175
    14  H    0.383529
    15  H    0.372097
    16  O   -0.533760
    17  N   -0.591281
    18  H    0.360869
    19  C   -0.093876
    20  H    0.185088
    21  C    0.647621
    22  C   -0.069953
    23  H    0.174019
    24  O   -0.561180
    25  C   -0.250951
    26  H    0.115317
    27  H    0.146816
    28  C   -0.501220
    29  H    0.138138
    30  H    0.179370
    31  H    0.172626
    32  C   -0.453853
    33  H    0.153896
    34  H    0.154603
    35  H    0.162158
    36  N   -0.591911
    37  H    0.351648
    38  C   -0.051635
    39  H    0.171407
    40  C    0.646333
    41  C   -0.478341
    42  H    0.182500
    43  H    0.164617
    44  H    0.186784
    45  O   -0.558504
    46  N   -0.579227
    47  H    0.363721
    48  C   -0.105310
    49  H    0.180079
    50  C    0.634175
    51  C    0.165741
    52  H    0.141118
    53  O   -0.565362
    54  C   -0.483366
    55  H    0.164896
    56  H    0.174375
    57  H    0.153036
    58  O   -0.645194
    59  H    0.419394
    60  N   -0.591866
    61  H    0.360400
    62  C   -0.084013
    63  H    0.179325
    64  C    0.627244
    65  C   -0.073535
    66  H    0.161259
    67  H    0.187170
    68  O   -0.537247
    69  O   -0.637268
    70  H    0.422810
    71  N   -0.622442
    72  H    0.370425
    73  C   -0.220871
    74  H    0.196807
    75  H    0.174650
    76  C    0.609700
    77  O   -0.511376
    78  N   -0.586969
    79  H    0.345983
    80  C   -0.050789
    81  H    0.204904
    82  C    0.593267
    83  C   -0.262004
    84  H    0.137816
    85  H    0.161814
    86  O   -0.484773
    87  C   -0.256363
    88  H    0.145601
    89  H    0.138752
    90  C   -0.262835
    91  H    0.127925
    92  H    0.125432
    93  C   -0.142651
    94  H    0.133505
    95  H    0.144531
    96  N   -0.707763
    97  H    0.303225
    98  H    0.293673
    99  O   -0.552304
   100  H    0.421727
 Sum of Mulliken charges =   1.00000

 Dipole moment (field-independent basis, Debye):
    X=            -13.1873    Y=            -10.3174    Z=              1.2448  Tot=             16.7899
 Quadrupole moment (field-independent basis, Debye-Ang):
   XX=           -220.1551   YY=           -215.4817   ZZ=           -221.4369
   XY=             70.3890   XZ=            -35.9758   YZ=            -36.5751

 Normal termination of Gaussian 16 at Mon Jun  6 03:05:45 2022.
