 Gaussian 16, Revision C.01,
 Gaussian 16:  ES64L-G16RevC.01  3-Jul-2019

 ----------------------------------------------------------------------
 # B3LYP/6-31G* empiricaldispersion=gd3 guess=read geom=check nosymm in
 tegral(ultrafinegrid)
 ----------------------------------------------------------------------

 ------------------------------------------------------
 Candidate Structure: Conf:879 Charge calc in gas phase
 ------------------------------------------------------
 Structure from the checkpoint file:  "conf-879.chk"
 Charge =  1 Multiplicity = 1

                          Input orientation:
 ---------------------------------------------------------------------
 Center     Atomic      Atomic             Coordinates (Angstroms)
 Number     Number       Type             X           Y           Z
 ---------------------------------------------------------------------
      1          7           0       -8.485084    3.846890    3.028043
      2          1           0       -7.600914    4.369531    3.337387
      3          1           0       -9.212759    3.891606    3.744091
      4          1           0       -8.829747    4.270287    2.149051
      5          6           0       -7.927384    2.457501    2.796801
      6          1           0       -8.317602    1.802288    3.579630
      7          6           0       -6.393533    2.671804    3.006309
      8          6           0       -8.311294    1.922614    1.403562
      9          1           0       -7.798519    0.973642    1.231423
     10          1           0       -9.389875    1.734168    1.364045
     11          8           0       -6.025681    3.805506    3.353459
     12          6           0       -7.842529    2.929581    0.347980
     13          7           0       -8.814266    3.860378   -0.010658
     14          1           0       -8.516257    4.505190   -0.739160
     15          1           0       -9.767580    3.531344   -0.130403
     16          8           0       -6.678765    3.021944    0.021398
     17          7           0       -5.617674    1.620407    2.821634
     18          1           0       -5.958910    0.726404    2.461120
     19          6           0       -4.154872    1.665804    2.839643
     20          1           0       -3.835739    2.582078    2.330621
     21          6           0       -3.746568    0.427304    2.012948
     22          6           0       -3.601187    1.668897    4.294942
     23          1           0       -4.151864    2.479102    4.792319
     24          8           0       -4.581276   -0.449023    1.756225
     25          6           0       -2.104922    2.041577    4.346037
     26          1           0       -1.919967    2.883067    3.662591
     27          1           0       -1.493196    1.204932    3.987094
     28          6           0       -3.907408    0.347870    5.013264
     29          1           0       -3.331534   -0.478945    4.581164
     30          1           0       -3.651485    0.413584    6.074001
     31          1           0       -4.969296    0.087373    4.944192
     32          6           0       -1.629485    2.439528    5.748550
     33          1           0       -0.578625    2.744403    5.723722
     34          1           0       -2.214229    3.280216    6.140726
     35          1           0       -1.713414    1.609538    6.457832
     36          7           0       -2.464288    0.371860    1.630981
     37          1           0       -1.793363    1.088421    1.893260
     38          6           0       -1.880847   -0.784803    0.969685
     39          1           0       -2.322484   -1.690253    1.400948
     40          6           0       -0.374771   -0.725663    1.273679
     41          6           0       -2.142335   -0.760593   -0.547395
     42          1           0       -1.740689   -1.653034   -1.038852
     43          1           0       -3.220717   -0.728886   -0.722477
     44          1           0       -1.678483    0.122422   -0.998939
     45          8           0        0.128226    0.290443    1.752974
     46          7           0        0.343585   -1.835894    0.959202
     47          1           0       -0.100715   -2.539192    0.378466
     48          6           0        1.817984   -1.790793    0.903096
     49          1           0        2.130453   -1.086596    1.677693
     50          6           0        2.213753   -1.271703   -0.489677
     51          6           0        2.403218   -3.171532    1.240159
     52          1           0        2.064350   -3.889393    0.475155
     53          8           0        2.571397   -2.024530   -1.395597
     54          6           0        3.923422   -3.147039    1.271569
     55          1           0        4.341001   -2.951508    0.282238
     56          1           0        4.286954   -4.117267    1.623243
     57          1           0        4.272585   -2.370936    1.960926
     58          8           0        1.963709   -3.564078    2.538316
     59          1           0        0.997085   -3.479504    2.563119
     60          7           0        2.055086    0.064590   -0.654895
     61          1           0        1.798852    0.665318    0.123190
     62          6           0        2.304832    0.725106   -1.932112
     63          1           0        2.065737    0.014500   -2.730414
     64          6           0        3.796967    1.110643   -2.009353
     65          6           0        1.418286    1.971750   -2.028987
     66          1           0        0.366155    1.665595   -2.035981
     67          1           0        1.632428    2.492045   -2.973555
     68          8           0        4.173033    2.272509   -1.823821
     69          8           0        1.596179    2.813912   -0.903666
     70          1           0        2.531179    3.095085   -0.959961
     71          7           0        4.632557    0.075414   -2.252625
     72          1           0        4.255713   -0.871949   -2.245778
     73          6           0        6.067081    0.197200   -2.076734
     74          1           0        6.587720    0.158667   -3.043594
     75          1           0        6.277592    1.171223   -1.626741
     76          6           0        6.560969   -0.970846   -1.220356
     77          8           0        5.992292   -2.056409   -1.242759
     78          7           0        7.693961   -0.744108   -0.494343
     79          1           0        7.933577    0.217605   -0.287858
     80          6           0        8.119490   -1.740134    0.475705
     81          1           0        8.092439   -2.717030   -0.014107
     82          6           0        7.127426   -1.783096    1.640537
     83          6           0        9.541675   -1.453989    0.988080
     84          1           0        9.557836   -0.463260    1.466343
     85          1           0        9.767504   -2.181600    1.775767
     86          8           0        6.364570   -0.891279    1.938409
     87          6           0       10.606770   -1.528675   -0.111857
     88          1           0       10.572149   -2.525282   -0.574366
     89          1           0       10.364682   -0.813851   -0.909473
     90          6           0       12.017505   -1.257715    0.420966
     91          1           0       12.270248   -1.973505    1.213292
     92          1           0       12.047400   -0.259336    0.884237
     93          6           0       13.091479   -1.339334   -0.666326
     94          1           0       13.079494   -2.345299   -1.105904
     95          1           0       12.831271   -0.638757   -1.483194
     96          7           0       14.420957   -1.121934   -0.087332
     97          1           0       14.503653   -0.155291    0.226232
     98          1           0       15.136394   -1.247167   -0.801408
     99          8           0        7.230499   -2.943220    2.321892
    100          1           0        6.589053   -2.903012    3.056133
 ---------------------------------------------------------------------

 SCF Done:  E(RB3LYP) =  -2418.55413665     A.U. after    3 cycles

 Alpha  occ. eigenvalues --  -19.27091 -19.26619 -19.24835 -19.22118 -19.21497
 Alpha  occ. eigenvalues --  -19.19556 -19.19140 -19.19077 -19.18205 -19.17589
 Alpha  occ. eigenvalues --  -19.17560 -14.59727 -14.50695 -14.49179 -14.45612
 Alpha  occ. eigenvalues --  -14.45536 -14.42370 -14.41855 -14.41247 -14.34355
 Alpha  occ. eigenvalues --  -10.44068 -10.43797 -10.42270 -10.39047 -10.38342
 Alpha  occ. eigenvalues --  -10.37004 -10.36271 -10.35286 -10.34641 -10.34424
 Alpha  occ. eigenvalues --  -10.34013 -10.32989 -10.29847 -10.29341 -10.29094
 Alpha  occ. eigenvalues --  -10.29067 -10.28982 -10.28790 -10.28351 -10.27144
 Alpha  occ. eigenvalues --  -10.26394 -10.26081 -10.24642 -10.24532 -10.24151
 Alpha  occ. eigenvalues --  -10.22995 -10.21885 -10.21050  -1.19697  -1.18409
 Alpha  occ. eigenvalues --   -1.15690  -1.14341  -1.13751  -1.13215  -1.10351
 Alpha  occ. eigenvalues --   -1.09701  -1.09075  -1.07250  -1.06748  -1.06481
 Alpha  occ. eigenvalues --   -1.06172  -1.05121  -1.02439  -1.01344  -0.98758
 Alpha  occ. eigenvalues --   -0.98468  -0.97410  -0.94919  -0.91126  -0.90686
 Alpha  occ. eigenvalues --   -0.87059  -0.85498  -0.85068  -0.83884  -0.82182
 Alpha  occ. eigenvalues --   -0.81812  -0.80566  -0.79497  -0.77638  -0.76654
 Alpha  occ. eigenvalues --   -0.75335  -0.74747  -0.73912  -0.73436  -0.73087
 Alpha  occ. eigenvalues --   -0.72276  -0.70631  -0.70044  -0.68848  -0.67810
 Alpha  occ. eigenvalues --   -0.67558  -0.67219  -0.66965  -0.66092  -0.65522
 Alpha  occ. eigenvalues --   -0.65150  -0.64399  -0.64090  -0.63955  -0.63411
 Alpha  occ. eigenvalues --   -0.62422  -0.62076  -0.60770  -0.59968  -0.59674
 Alpha  occ. eigenvalues --   -0.58431  -0.58195  -0.57511  -0.57342  -0.56632
 Alpha  occ. eigenvalues --   -0.56077  -0.55755  -0.55524  -0.55385  -0.54799
 Alpha  occ. eigenvalues --   -0.54724  -0.54534  -0.53996  -0.53861  -0.53444
 Alpha  occ. eigenvalues --   -0.53365  -0.52926  -0.52559  -0.52326  -0.51951
 Alpha  occ. eigenvalues --   -0.51710  -0.51190  -0.51053  -0.50651  -0.50053
 Alpha  occ. eigenvalues --   -0.49918  -0.49561  -0.49505  -0.48654  -0.48202
 Alpha  occ. eigenvalues --   -0.48167  -0.47843  -0.47438  -0.47250  -0.47060
 Alpha  occ. eigenvalues --   -0.46335  -0.46107  -0.45933  -0.45724  -0.45549
 Alpha  occ. eigenvalues --   -0.45191  -0.44808  -0.44751  -0.44373  -0.44160
 Alpha  occ. eigenvalues --   -0.43862  -0.43448  -0.43045  -0.42861  -0.42785
 Alpha  occ. eigenvalues --   -0.42097  -0.42056  -0.41860  -0.41029  -0.40900
 Alpha  occ. eigenvalues --   -0.40878  -0.40590  -0.39794  -0.39606  -0.38831
 Alpha  occ. eigenvalues --   -0.38422  -0.38338  -0.38285  -0.37494  -0.37079
 Alpha  occ. eigenvalues --   -0.36746  -0.36633  -0.36206  -0.35270  -0.34888
 Alpha  occ. eigenvalues --   -0.34028  -0.33216  -0.33039  -0.32387  -0.32196
 Alpha  occ. eigenvalues --   -0.31729  -0.30747  -0.30190  -0.29635  -0.26571
 Alpha virt. eigenvalues --   -0.13908  -0.12791  -0.09836  -0.08149  -0.07531
 Alpha virt. eigenvalues --   -0.06648  -0.05191  -0.05019  -0.04395  -0.03410
 Alpha virt. eigenvalues --   -0.02776  -0.02728  -0.01829  -0.01098  -0.00981

 Mulliken charges:
               1
     1  N   -0.771798
     2  H    0.438396
     3  H    0.411775
     4  H    0.415496
     5  C   -0.122483
     6  H    0.233251
     7  C    0.676294
     8  C   -0.371736
     9  H    0.235593
    10  H    0.182006
    11  O   -0.544052
    12  C    0.543377
    13  N   -0.756308
    14  H    0.375712
    15  H    0.358701
    16  O   -0.422791
    17  N   -0.607258
    18  H    0.375042
    19  C   -0.070204
    20  H    0.197028
    21  C    0.634494
    22  C   -0.071322
    23  H    0.154873
    24  O   -0.559554
    25  C   -0.288646
    26  H    0.144252
    27  H    0.159987
    28  C   -0.464973
    29  H    0.160816
    30  H    0.171348
    31  H    0.137753
    32  C   -0.454333
    33  H    0.168903
    34  H    0.149513
    35  H    0.156316
    36  N   -0.613938
    37  H    0.378122
    38  C   -0.053382
    39  H    0.188133
    40  C    0.629252
    41  C   -0.456492
    42  H    0.158083
    43  H    0.189410
    44  H    0.176568
    45  O   -0.528074
    46  N   -0.634023
    47  H    0.343671
    48  C   -0.088272
    49  H    0.200130
    50  C    0.633106
    51  C    0.139451
    52  H    0.130710
    53  O   -0.534937
    54  C   -0.504681
    55  H    0.216756
    56  H    0.159641
    57  H    0.154057
    58  O   -0.625956
    59  H    0.388168
    60  N   -0.607384
    61  H    0.370331
    62  C   -0.088290
    63  H    0.180043
    64  C    0.626263
    65  C   -0.047493
    66  H    0.139440
    67  H    0.151204
    68  O   -0.543961
    69  O   -0.638746
    70  H    0.422451
    71  N   -0.602982
    72  H    0.387651
    73  C   -0.224422
    74  H    0.193206
    75  H    0.192783
    76  C    0.613748
    77  O   -0.508891
    78  N   -0.587307
    79  H    0.336330
    80  C   -0.038651
    81  H    0.200684
    82  C    0.611051
    83  C   -0.298058
    84  H    0.142751
    85  H    0.173357
    86  O   -0.478816
    87  C   -0.259086
    88  H    0.143647
    89  H    0.138409
    90  C   -0.248958
    91  H    0.154273
    92  H    0.124485
    93  C   -0.134037
    94  H    0.142304
    95  H    0.110764
    96  N   -0.714860
    97  H    0.293099
    98  H    0.300436
    99  O   -0.567432
   100  H    0.419692
 Sum of Mulliken charges =   1.00000

 Dipole moment (field-independent basis, Debye):
    X=            -30.8941    Y=             11.4476    Z=              8.9671  Tot=             34.1453
 Quadrupole moment (field-independent basis, Debye-Ang):
   XX=            115.5835   YY=           -251.3028   ZZ=           -240.2122
   XY=           -104.3568   XZ=            -91.2442   YZ=             25.7051

 Normal termination of Gaussian 16 at Mon Jun  6 03:55:13 2022.
