 Gaussian 16, Revision C.01,
 Gaussian 16:  ES64L-G16RevC.01  3-Jul-2019

 ----------------------------------------------------------------------
 # B3LYP/6-31G* empiricaldispersion=gd3 guess=read geom=check nosymm in
 tegral(ultrafinegrid)
 ----------------------------------------------------------------------

 ------------------------------------------------------
 Candidate Structure: Conf:110 Charge calc in gas phase
 ------------------------------------------------------
 Structure from the checkpoint file:  "conf-110.chk"
 Charge =  1 Multiplicity = 1

                          Input orientation:
 ---------------------------------------------------------------------
 Center     Atomic      Atomic             Coordinates (Angstroms)
 Number     Number       Type             X           Y           Z
 ---------------------------------------------------------------------
      1          7           0       -5.353756   -1.985689    2.698347
      2          1           0       -5.844470   -1.909089    3.593024
      3          1           0       -5.125256   -3.011424    2.467609
      4          1           0       -5.930600   -1.515579    1.981028
      5          6           0       -4.020792   -1.285255    2.705430
      6          1           0       -3.571841   -1.436587    3.691401
      7          6           0       -4.300734    0.192899    2.392297
      8          6           0       -3.141646   -1.900636    1.599335
      9          1           0       -3.623969   -1.722511    0.629515
     10          1           0       -2.179511   -1.387698    1.553230
     11          8           0       -5.312670    0.470893    1.754709
     12          6           0       -2.992662   -3.411695    1.792180
     13          7           0       -1.786171   -3.929592    1.570651
     14          1           0       -1.679971   -4.935014    1.634735
     15          1           0       -0.991825   -3.338869    1.294254
     16          8           0       -3.982038   -4.093614    2.134408
     17          7           0       -3.375825    1.072753    2.828082
     18          1           0       -2.553374    0.695550    3.284636
     19          6           0       -3.224974    2.391726    2.200404
     20          1           0       -4.130952    2.525898    1.601638
     21          6           0       -2.072695    2.207400    1.174331
     22          6           0       -3.126179    3.549973    3.224105
     23          1           0       -2.099729    3.570924    3.623231
     24          8           0       -2.067929    1.188915    0.472482
     25          6           0       -4.057363    3.334954    4.441033
     26          1           0       -3.887915    4.169916    5.132193
     27          1           0       -3.739498    2.431390    4.974811
     28          6           0       -3.422753    4.899655    2.540078
     29          1           0       -4.447652    4.923221    2.156484
     30          1           0       -3.315009    5.718899    3.257692
     31          1           0       -2.765442    5.111814    1.691006
     32          6           0       -5.555483    3.234245    4.123975
     33          1           0       -6.119591    3.041232    5.042501
     34          1           0       -5.946026    4.163415    3.697209
     35          1           0       -5.777617    2.425295    3.419556
     36          7           0       -1.102984    3.141388    1.104807
     37          1           0       -1.106142    3.919698    1.748063
     38          6           0       -0.002055    3.087479    0.131430
     39          1           0       -0.412954    2.650523   -0.785450
     40          6           0        1.124877    2.147331    0.611874
     41          6           0        0.536035    4.485374   -0.144007
     42          1           0        1.343989    4.414892   -0.874412
     43          1           0       -0.255756    5.130152   -0.536948
     44          1           0        0.958092    4.931334    0.762227
     45          8           0        2.269775    2.546624    0.813558
     46          7           0        0.754250    0.848046    0.765485
     47          1           0       -0.172693    0.565279    0.450438
     48          6           0        1.743167   -0.193893    1.020655
     49          1           0        2.514095    0.228186    1.673268
     50          6           0        2.368720   -0.588877   -0.334779
     51          6           0        1.091938   -1.409413    1.700260
     52          1           0        1.878765   -2.159783    1.858792
     53          8           0        2.089363   -1.671184   -0.885060
     54          6           0        0.432107   -1.067739    3.027530
     55          1           0        1.170786   -0.702586    3.747473
     56          1           0       -0.049129   -1.957821    3.445473
     57          1           0       -0.321401   -0.284916    2.882769
     58          8           0        0.082497   -1.949863    0.830575
     59          1           0        0.567492   -2.129110   -0.012821
     60          7           0        3.151662    0.341015   -0.897801
     61          1           0        3.278175    1.208101   -0.378992
     62          6           0        3.420029    0.375975   -2.341029
     63          1           0        2.558388   -0.078748   -2.855792
     64          6           0        4.662384   -0.423183   -2.770743
     65          6           0        3.513434    1.827013   -2.792541
     66          1           0        3.789415    1.838957   -3.850339
     67          1           0        4.300787    2.354851   -2.234300
     68          8           0        5.463530    0.030524   -3.590060
     69          8           0        2.230132    2.432624   -2.566291
     70          1           0        2.259910    3.320452   -2.953435
     71          7           0        4.752775   -1.665468   -2.234283
     72          1           0        3.921084   -2.037631   -1.782066
     73          6           0        5.727863   -2.629519   -2.741690
     74          1           0        6.653207   -2.093758   -2.965677
     75          1           0        5.915811   -3.383644   -1.976433
     76          6           0        5.147989   -3.334650   -3.977107
     77          8           0        4.583965   -4.418260   -3.886560
     78          7           0        5.226859   -2.605091   -5.126031
     79          1           0        5.658440   -1.689113   -5.082481
     80          6           0        4.504346   -2.994978   -6.320578
     81          1           0        3.815041   -3.786506   -6.003121
     82          6           0        5.375821   -3.631558   -7.403438
     83          6           0        3.686487   -1.833344   -6.922709
     84          1           0        4.358679   -1.132944   -7.437502
     85          1           0        3.043443   -2.260317   -7.699297
     86          8           0        4.962279   -3.896269   -8.510841
     87          6           0        2.865753   -1.076442   -5.871375
     88          1           0        2.407315   -1.780512   -5.166817
     89          1           0        3.540665   -0.451505   -5.275177
     90          6           0        1.778404   -0.189957   -6.491557
     91          1           0        0.963571   -0.821445   -6.874767
     92          1           0        2.180316    0.344821   -7.363397
     93          6           0        1.216490    0.852077   -5.518802
     94          1           0        2.012496    1.560193   -5.257707
     95          1           0        0.432027    1.438252   -6.028838
     96          7           0        0.763977    0.241924   -4.259086
     97          1           0       -0.075818   -0.312440   -4.421497
     98          1           0        0.525969    0.977011   -3.596253
     99          8           0        6.641483   -3.877939   -7.004305
    100          1           0        7.084338   -4.304433   -7.762772
 ---------------------------------------------------------------------

 SCF Done:  E(RB3LYP) =  -2418.59711232     A.U. after    3 cycles

 Alpha  occ. eigenvalues --  -19.26467 -19.26308 -19.25521 -19.24216 -19.23974
 Alpha  occ. eigenvalues --  -19.23917 -19.22956 -19.22228 -19.18953 -19.17930
 Alpha  occ. eigenvalues --  -19.16188 -14.57451 -14.50343 -14.48713 -14.47576
 Alpha  occ. eigenvalues --  -14.46103 -14.45546 -14.42725 -14.40594 -14.37939
 Alpha  occ. eigenvalues --  -10.43594 -10.42712 -10.41217 -10.40707 -10.39185
 Alpha  occ. eigenvalues --  -10.39138 -10.36131 -10.35969 -10.35647 -10.35523
 Alpha  occ. eigenvalues --  -10.34287 -10.34121 -10.33946 -10.33503 -10.31706
 Alpha  occ. eigenvalues --  -10.31156 -10.30790 -10.29474 -10.28445 -10.28406
 Alpha  occ. eigenvalues --  -10.28295 -10.28216 -10.27893 -10.26868 -10.26550
 Alpha  occ. eigenvalues --  -10.23781 -10.23631 -10.23073  -1.18880  -1.17006
 Alpha  occ. eigenvalues --   -1.15929  -1.15202  -1.14770  -1.13838  -1.12670
 Alpha  occ. eigenvalues --   -1.12130  -1.11026  -1.10493  -1.08057  -1.06806
 Alpha  occ. eigenvalues --   -1.05652  -1.04701  -1.03180  -1.03060  -1.01728
 Alpha  occ. eigenvalues --   -0.98914  -0.97313  -0.94338  -0.93918  -0.91903
 Alpha  occ. eigenvalues --   -0.89377  -0.87517  -0.85719  -0.84939  -0.84828
 Alpha  occ. eigenvalues --   -0.82562  -0.81821  -0.81142  -0.80371  -0.78246
 Alpha  occ. eigenvalues --   -0.75671  -0.74640  -0.74555  -0.73682  -0.72914
 Alpha  occ. eigenvalues --   -0.72637  -0.72342  -0.71722  -0.70402  -0.69976
 Alpha  occ. eigenvalues --   -0.69265  -0.68405  -0.68073  -0.67318  -0.66097
 Alpha  occ. eigenvalues --   -0.65698  -0.65574  -0.64438  -0.64109  -0.63710
 Alpha  occ. eigenvalues --   -0.63213  -0.63132  -0.62517  -0.62200  -0.61569
 Alpha  occ. eigenvalues --   -0.61214  -0.60302  -0.59473  -0.58859  -0.58699
 Alpha  occ. eigenvalues --   -0.57548  -0.57370  -0.57273  -0.56528  -0.56117
 Alpha  occ. eigenvalues --   -0.55921  -0.55748  -0.55403  -0.54304  -0.53883
 Alpha  occ. eigenvalues --   -0.53693  -0.53379  -0.53255  -0.53090  -0.52903
 Alpha  occ. eigenvalues --   -0.52442  -0.52281  -0.51990  -0.51668  -0.51538
 Alpha  occ. eigenvalues --   -0.51398  -0.51264  -0.50261  -0.50066  -0.49910
 Alpha  occ. eigenvalues --   -0.49871  -0.49714  -0.49185  -0.48979  -0.48947
 Alpha  occ. eigenvalues --   -0.48797  -0.48464  -0.48318  -0.48171  -0.47944
 Alpha  occ. eigenvalues --   -0.47461  -0.47120  -0.46977  -0.46684  -0.46199
 Alpha  occ. eigenvalues --   -0.45957  -0.45145  -0.45110  -0.44663  -0.44277
 Alpha  occ. eigenvalues --   -0.44212  -0.43345  -0.43268  -0.42881  -0.42645
 Alpha  occ. eigenvalues --   -0.42130  -0.41662  -0.40890  -0.40475  -0.40143
 Alpha  occ. eigenvalues --   -0.39927  -0.39607  -0.39458  -0.38986  -0.38889
 Alpha  occ. eigenvalues --   -0.38453  -0.38313  -0.37757  -0.37381  -0.37099
 Alpha  occ. eigenvalues --   -0.36141  -0.35729  -0.35139  -0.34643  -0.33784
 Alpha  occ. eigenvalues --   -0.33184  -0.32033  -0.29966  -0.29234  -0.29143
 Alpha virt. eigenvalues --   -0.13278  -0.10821  -0.10360  -0.09827  -0.08713
 Alpha virt. eigenvalues --   -0.07361  -0.07050  -0.05734  -0.03605  -0.03205
 Alpha virt. eigenvalues --   -0.03094  -0.02786  -0.02216  -0.01984  -0.00680

 Mulliken charges:
               1
     1  N   -0.751007
     2  H    0.404962
     3  H    0.447790
     4  H    0.413086
     5  C   -0.143861
     6  H    0.203920
     7  C    0.670130
     8  C   -0.403704
     9  H    0.224500
    10  H    0.234189
    11  O   -0.516560
    12  C    0.635888
    13  N   -0.762423
    14  H    0.366556
    15  H    0.417698
    16  O   -0.559860
    17  N   -0.591283
    18  H    0.347700
    19  C   -0.067601
    20  H    0.225964
    21  C    0.620428
    22  C   -0.128892
    23  H    0.127636
    24  O   -0.547347
    25  C   -0.247247
    26  H    0.158153
    27  H    0.127237
    28  C   -0.474416
    29  H    0.174792
    30  H    0.176977
    31  H    0.145991
    32  C   -0.476884
    33  H    0.161376
    34  H    0.165021
    35  H    0.160778
    36  N   -0.602417
    37  H    0.356638
    38  C   -0.065169
    39  H    0.199403
    40  C    0.644129
    41  C   -0.470603
    42  H    0.182759
    43  H    0.163685
    44  H    0.173314
    45  O   -0.531550
    46  N   -0.625313
    47  H    0.382404
    48  C   -0.085370
    49  H    0.197423
    50  C    0.645090
    51  C    0.120586
    52  H    0.163274
    53  O   -0.577377
    54  C   -0.474236
    55  H    0.178991
    56  H    0.159613
    57  H    0.135568
    58  O   -0.678442
    59  H    0.445024
    60  N   -0.595716
    61  H    0.386387
    62  C   -0.121236
    63  H    0.262443
    64  C    0.641671
    65  C   -0.074768
    66  H    0.183005
    67  H    0.155845
    68  O   -0.547843
    69  O   -0.638707
    70  H    0.409805
    71  N   -0.600373
    72  H    0.374784
    73  C   -0.235256
    74  H    0.192270
    75  H    0.181803
    76  C    0.592110
    77  O   -0.509657
    78  N   -0.590072
    79  H    0.356332
    80  C   -0.058581
    81  H    0.210107
    82  C    0.594446
    83  C   -0.287854
    84  H    0.144060
    85  H    0.174353
    86  O   -0.462935
    87  C   -0.260122
    88  H    0.150039
    89  H    0.140382
    90  C   -0.264834
    91  H    0.136054
    92  H    0.142305
    93  C   -0.148003
    94  H    0.132291
    95  H    0.122844
    96  N   -0.726038
    97  H    0.297730
    98  H    0.307990
    99  O   -0.558740
   100  H    0.414567
 Sum of Mulliken charges =   1.00000

 Dipole moment (field-independent basis, Debye):
    X=            -12.2018    Y=              3.9019    Z=             12.2800  Tot=             17.7457
 Quadrupole moment (field-independent basis, Debye-Ang):
   XX=           -210.3282   YY=           -250.2335   ZZ=           -241.9691
   XY=             13.7429   XZ=            -46.5436   YZ=            -26.2976

 Normal termination of Gaussian 16 at Mon Jun  6 03:06:33 2022.
