 Gaussian 16, Revision C.01,
 Gaussian 16:  ES64L-G16RevC.01  3-Jul-2019

 ----------------------------------------------------------------------
 # B3LYP/6-31G* empiricaldispersion=gd3 guess=read geom=check nosymm in
 tegral(ultrafinegrid)
 ----------------------------------------------------------------------

 ------------------------------------------------------
 Candidate Structure: Conf:578 Charge calc in gas phase
 ------------------------------------------------------
 Structure from the checkpoint file:  "conf-578.chk"
 Charge =  1 Multiplicity = 1

                          Input orientation:
 ---------------------------------------------------------------------
 Center     Atomic      Atomic             Coordinates (Angstroms)
 Number     Number       Type             X           Y           Z
 ---------------------------------------------------------------------
      1          7           0       -5.207658   -0.991488    4.596290
      2          1           0       -4.495288   -1.297817    5.264574
      3          1           0       -6.053560   -1.626492    4.643236
      4          1           0       -5.407539    0.009917    4.789508
      5          6           0       -4.708893   -1.033635    3.176066
      6          1           0       -4.017438   -1.874852    3.083981
      7          6           0       -4.021215    0.335183    2.951081
      8          6           0       -5.901667   -1.196760    2.212522
      9          1           0       -6.523688   -0.292785    2.259722
     10          1           0       -5.509593   -1.261118    1.193351
     11          8           0       -4.350383    1.270169    3.687084
     12          6           0       -6.791438   -2.392096    2.567115
     13          7           0       -7.331794   -3.075918    1.548010
     14          1           0       -7.976051   -3.829347    1.758103
     15          1           0       -7.168326   -2.842378    0.578959
     16          8           0       -7.013886   -2.679625    3.752842
     17          7           0       -3.166988    0.394569    1.933162
     18          1           0       -2.932275   -0.413596    1.356739
     19          6           0       -2.489674    1.616998    1.502205
     20          1           0       -3.216273    2.434062    1.525119
     21          6           0       -2.032639    1.318316    0.066729
     22          6           0       -1.292878    1.959417    2.448023
     23          1           0       -1.742729    1.973908    3.449988
     24          8           0       -1.940316    0.150306   -0.323774
     25          6           0       -0.677546    3.353479    2.204534
     26          1           0       -0.106981    3.357492    1.266867
     27          1           0        0.070245    3.503135    2.993041
     28          6           0       -0.207279    0.875216    2.400101
     29          1           0        0.297552    0.858671    1.428664
     30          1           0        0.551043    1.069395    3.165172
     31          1           0       -0.613779   -0.126042    2.578291
     32          6           0       -1.668371    4.524223    2.248925
     33          1           0       -1.135877    5.479934    2.228259
     34          1           0       -2.367619    4.533330    1.401398
     35          1           0       -2.274404    4.496027    3.162171
     36          7           0       -1.707514    2.385556   -0.694788
     37          1           0       -1.696568    3.299925   -0.261134
     38          6           0       -0.873497    2.227506   -1.895798
     39          1           0       -1.287625    1.392136   -2.465671
     40          6           0        0.548980    1.899037   -1.406620
     41          6           0       -0.874934    3.507152   -2.725904
     42          1           0       -0.208128    3.399259   -3.586625
     43          1           0       -1.883886    3.736241   -3.080381
     44          1           0       -0.499348    4.344907   -2.129525
     45          8           0        1.261009    2.793283   -0.921104
     46          7           0        0.914999    0.611008   -1.489329
     47          1           0        0.294549   -0.074491   -1.907145
     48          6           0        2.246751    0.107912   -1.141591
     49          1           0        2.580565    0.593408   -0.219338
     50          6           0        3.191247    0.486656   -2.295605
     51          6           0        2.173831   -1.415585   -0.950165
     52          1           0        3.201860   -1.777909   -0.843209
     53          8           0        3.493588   -0.314722   -3.193522
     54          6           0        1.358535   -1.817558    0.269489
     55          1           0        1.771956   -1.354874    1.172679
     56          1           0        1.408850   -2.902693    0.383261
     57          1           0        0.313421   -1.505759    0.162758
     58          8           0        1.556099   -1.994276   -2.106634
     59          1           0        2.160782   -1.768855   -2.843420
     60          7           0        3.556937    1.776006   -2.279928
     61          1           0        3.285713    2.323718   -1.472007
     62          6           0        4.284946    2.451286   -3.349789
     63          1           0        4.010079    1.958423   -4.287898
     64          6           0        5.784539    2.260941   -3.050049
     65          6           0        3.857954    3.925932   -3.379816
     66          1           0        4.292693    4.404169   -4.261170
     67          1           0        4.268803    4.436526   -2.498333
     68          8           0        6.480231    3.150663   -2.583055
     69          8           0        2.445732    4.066389   -3.472550
     70          1           0        2.066858    3.890547   -2.594673
     71          7           0        6.215961    0.978961   -3.281577
     72          1           0        5.481375    0.309912   -3.502604
     73          6           0        7.326954    0.451864   -2.522209
     74          1           0        7.963203   -0.179398   -3.154071
     75          1           0        7.927364    1.300796   -2.179169
     76          6           0        6.817956   -0.338458   -1.299568
     77          8           0        5.711411   -0.135895   -0.804706
     78          7           0        7.687790   -1.272616   -0.833592
     79          1           0        8.582786   -1.392834   -1.288454
     80          6           0        7.390907   -2.143430    0.295185
     81          1           0        6.593416   -1.667386    0.870570
     82          6           0        8.582328   -2.303353    1.228182
     83          6           0        6.917579   -3.545002   -0.165266
     84          1           0        7.680777   -3.960561   -0.838508
     85          1           0        6.872650   -4.201072    0.712459
     86          8           0        8.493783   -2.661414    2.378538
     87          6           0        5.554237   -3.497214   -0.860625
     88          1           0        4.783428   -3.236716   -0.126568
     89          1           0        5.548363   -2.698006   -1.612033
     90          6           0        5.165902   -4.810832   -1.543830
     91          1           0        5.192584   -5.638571   -0.819911
     92          1           0        5.901523   -5.055327   -2.323284
     93          6           0        3.770998   -4.736794   -2.177796
     94          1           0        3.711365   -3.832598   -2.797656
     95          1           0        3.629666   -5.593387   -2.858467
     96          7           0        2.722741   -4.632311   -1.151784
     97          1           0        2.476578   -5.559809   -0.811119
     98          1           0        1.888719   -4.218779   -1.561866
     99          8           0        9.766760   -2.074980    0.606499
    100          1           0       10.468175   -2.244720    1.263615
 ---------------------------------------------------------------------

 SCF Done:  E(RB3LYP) =  -2418.58779457     A.U. after    2 cycles

 Alpha  occ. eigenvalues --  -19.27754 -19.26633 -19.25888 -19.23461 -19.21015
 Alpha  occ. eigenvalues --  -19.20900 -19.19651 -19.19505 -19.19405 -19.17506
 Alpha  occ. eigenvalues --  -19.16864 -14.58730 -14.51063 -14.49951 -14.47182
 Alpha  occ. eigenvalues --  -14.45329 -14.42880 -14.42245 -14.40389 -14.35759
 Alpha  occ. eigenvalues --  -10.45353 -10.43848 -10.41867 -10.40217 -10.37910
 Alpha  occ. eigenvalues --  -10.37902 -10.36945 -10.36083 -10.34997 -10.34782
 Alpha  occ. eigenvalues --  -10.33762 -10.33019 -10.30659 -10.30326 -10.29750
 Alpha  occ. eigenvalues --  -10.29556 -10.28765 -10.28510 -10.28234 -10.27235
 Alpha  occ. eigenvalues --  -10.26691 -10.26562 -10.26548 -10.25325 -10.24412
 Alpha  occ. eigenvalues --  -10.23844 -10.22637 -10.22596  -1.19734  -1.18788
 Alpha  occ. eigenvalues --   -1.16484  -1.15381  -1.13328  -1.12753  -1.11074
 Alpha  occ. eigenvalues --   -1.09457  -1.08518  -1.08015  -1.07481  -1.06715
 Alpha  occ. eigenvalues --   -1.06584  -1.06039  -1.03581  -1.01420  -0.99478
 Alpha  occ. eigenvalues --   -0.98750  -0.97084  -0.95139  -0.92410  -0.91503
 Alpha  occ. eigenvalues --   -0.87322  -0.85634  -0.85527  -0.84652  -0.82581
 Alpha  occ. eigenvalues --   -0.82450  -0.81112  -0.80718  -0.78219  -0.77079
 Alpha  occ. eigenvalues --   -0.75729  -0.74347  -0.74181  -0.73996  -0.73768
 Alpha  occ. eigenvalues --   -0.71997  -0.71709  -0.70546  -0.69883  -0.68902
 Alpha  occ. eigenvalues --   -0.68182  -0.67849  -0.66980  -0.66539  -0.66345
 Alpha  occ. eigenvalues --   -0.65578  -0.65549  -0.64811  -0.64394  -0.63235
 Alpha  occ. eigenvalues --   -0.62882  -0.62652  -0.61403  -0.60301  -0.59781
 Alpha  occ. eigenvalues --   -0.59309  -0.59042  -0.58508  -0.58203  -0.57871
 Alpha  occ. eigenvalues --   -0.57485  -0.56998  -0.56553  -0.55537  -0.55478
 Alpha  occ. eigenvalues --   -0.55058  -0.54600  -0.54421  -0.54158  -0.53916
 Alpha  occ. eigenvalues --   -0.53525  -0.53039  -0.52679  -0.52408  -0.52180
 Alpha  occ. eigenvalues --   -0.51689  -0.51658  -0.51155  -0.51084  -0.51002
 Alpha  occ. eigenvalues --   -0.50731  -0.50262  -0.49948  -0.49308  -0.49081
 Alpha  occ. eigenvalues --   -0.49006  -0.48376  -0.47960  -0.47731  -0.47261
 Alpha  occ. eigenvalues --   -0.46892  -0.46637  -0.46194  -0.46121  -0.45584
 Alpha  occ. eigenvalues --   -0.45479  -0.45319  -0.45304  -0.44970  -0.44949
 Alpha  occ. eigenvalues --   -0.44635  -0.44482  -0.43796  -0.43516  -0.43103
 Alpha  occ. eigenvalues --   -0.42690  -0.42637  -0.42295  -0.42024  -0.41881
 Alpha  occ. eigenvalues --   -0.41817  -0.41298  -0.41008  -0.40665  -0.39818
 Alpha  occ. eigenvalues --   -0.39035  -0.38731  -0.38384  -0.38043  -0.37960
 Alpha  occ. eigenvalues --   -0.37792  -0.37263  -0.37176  -0.36174  -0.34379
 Alpha  occ. eigenvalues --   -0.34276  -0.33974  -0.33721  -0.32593  -0.32190
 Alpha  occ. eigenvalues --   -0.31984  -0.30857  -0.30153  -0.29296  -0.28123
 Alpha virt. eigenvalues --   -0.13501  -0.12479  -0.09925  -0.09479  -0.07681
 Alpha virt. eigenvalues --   -0.05733  -0.05355  -0.05119  -0.04903  -0.03849
 Alpha virt. eigenvalues --   -0.03048  -0.02544  -0.02066  -0.01683  -0.00571

 Mulliken charges:
               1
     1  N   -0.752066
     2  H    0.411220
     3  H    0.445227
     4  H    0.417300
     5  C   -0.125169
     6  H    0.217056
     7  C    0.652540
     8  C   -0.399295
     9  H    0.229699
    10  H    0.204973
    11  O   -0.530441
    12  C    0.648220
    13  N   -0.725569
    14  H    0.384404
    15  H    0.372475
    16  O   -0.533980
    17  N   -0.612375
    18  H    0.366657
    19  C   -0.070159
    20  H    0.191806
    21  C    0.631364
    22  C   -0.085188
    23  H    0.157534
    24  O   -0.548880
    25  C   -0.296547
    26  H    0.169241
    27  H    0.163239
    28  C   -0.474633
    29  H    0.180646
    30  H    0.168761
    31  H    0.134141
    32  C   -0.471141
    33  H    0.177598
    34  H    0.130574
    35  H    0.164851
    36  N   -0.598377
    37  H    0.358273
    38  C   -0.053206
    39  H    0.179025
    40  C    0.653789
    41  C   -0.488618
    42  H    0.205774
    43  H    0.169506
    44  H    0.174958
    45  O   -0.581783
    46  N   -0.583090
    47  H    0.364197
    48  C   -0.085632
    49  H    0.185883
    50  C    0.686069
    51  C    0.101470
    52  H    0.188641
    53  O   -0.582434
    54  C   -0.479395
    55  H    0.144786
    56  H    0.181235
    57  H    0.148547
    58  O   -0.666940
    59  H    0.427268
    60  N   -0.593358
    61  H    0.361901
    62  C   -0.088559
    63  H    0.184516
    64  C    0.622044
    65  C   -0.069963
    66  H    0.172407
    67  H    0.160511
    68  O   -0.508345
    69  O   -0.646186
    70  H    0.415938
    71  N   -0.584688
    72  H    0.363152
    73  C   -0.253676
    74  H    0.163953
    75  H    0.222386
    76  C    0.617321
    77  O   -0.536203
    78  N   -0.601428
    79  H    0.347134
    80  C   -0.053124
    81  H    0.201018
    82  C    0.589053
    83  C   -0.266908
    84  H    0.137891
    85  H    0.165372
    86  O   -0.453044
    87  C   -0.262951
    88  H    0.164316
    89  H    0.143054
    90  C   -0.244517
    91  H    0.129689
    92  H    0.128478
    93  C   -0.151285
    94  H    0.137118
    95  H    0.122696
    96  N   -0.735745
    97  H    0.291896
    98  H    0.320852
    99  O   -0.578810
   100  H    0.422064
 Sum of Mulliken charges =   1.00000

 Dipole moment (field-independent basis, Debye):
    X=            -18.3838    Y=             -7.0384    Z=              9.5454  Tot=             21.8773
 Quadrupole moment (field-independent basis, Debye-Ang):
   XX=           -106.6330   YY=           -258.8714   ZZ=           -238.8987
   XY=              7.4315   XZ=            -59.8316   YZ=             -0.0597

 Normal termination of Gaussian 16 at Mon Jun  6 03:49:51 2022.
