 Gaussian 16, Revision C.01,
 Gaussian 16:  ES64L-G16RevC.01  3-Jul-2019

 ----------------------------------------------------------------------
 # B3LYP/6-31G* empiricaldispersion=gd3 guess=read geom=check nosymm in
 tegral(ultrafinegrid)
 ----------------------------------------------------------------------

 ------------------------------------------------------
 Candidate Structure: Conf:917 Charge calc in gas phase
 ------------------------------------------------------
 Structure from the checkpoint file:  "conf-917.chk"
 Charge =  1 Multiplicity = 1

                          Input orientation:
 ---------------------------------------------------------------------
 Center     Atomic      Atomic             Coordinates (Angstroms)
 Number     Number       Type             X           Y           Z
 ---------------------------------------------------------------------
      1          7           0       -8.203254    3.371610    1.564576
      2          1           0       -7.468831    4.052726    1.275881
      3          1           0       -9.002153    3.849512    1.984911
      4          1           0       -8.476498    2.829363    0.686795
      5          6           0       -7.505256    2.405576    2.490619
      6          1           0       -7.957023    2.475409    3.483150
      7          6           0       -6.025760    2.860183    2.516729
      8          6           0       -7.612312    0.957514    1.950012
      9          1           0       -6.920459    0.318905    2.502099
     10          1           0       -8.629537    0.584608    2.108656
     11          8           0       -5.644706    3.687522    1.691054
     12          6           0       -7.354174    0.904864    0.442577
     13          7           0       -6.360790    0.121720    0.012094
     14          1           0       -6.183536    0.098128   -0.985051
     15          1           0       -5.642665   -0.216376    0.653316
     16          8           0       -8.086008    1.572472   -0.311235
     17          7           0       -5.251452    2.262339    3.442177
     18          1           0       -5.663248    1.497844    3.962573
     19          6           0       -3.803293    2.157562    3.254696
     20          1           0       -3.479735    3.099572    2.807803
     21          6           0       -3.552737    1.001860    2.260535
     22          6           0       -3.092676    1.952988    4.622963
     23          1           0       -3.480960    2.759801    5.259907
     24          8           0       -4.407342    0.118271    2.086697
     25          6           0       -1.560090    2.123384    4.548197
     26          1           0       -1.113942    1.299053    3.978172
     27          1           0       -1.181852    2.011654    5.571442
     28          6           0       -3.451119    0.603386    5.266379
     29          1           0       -3.100434   -0.236792    4.656892
     30          1           0       -2.980833    0.522422    6.250945
     31          1           0       -4.529419    0.472937    5.421476
     32          6           0       -1.075214    3.467818    3.992690
     33          1           0        0.011071    3.550583    4.091053
     34          1           0       -1.305050    3.603269    2.928030
     35          1           0       -1.527588    4.307601    4.533135
     36          7           0       -2.366845    1.016089    1.638928
     37          1           0       -1.664268    1.716427    1.860628
     38          6           0       -1.875756   -0.073026    0.808365
     39          1           0       -2.271203   -1.013657    1.206782
     40          6           0       -0.342243   -0.045343    0.937213
     41          6           0       -2.308958    0.090507   -0.659104
     42          1           0       -1.976164   -0.755004   -1.269349
     43          1           0       -3.399829    0.146870   -0.712128
     44          1           0       -1.893136    1.010785   -1.081403
     45          8           0        0.226173    0.928618    1.450076
     46          7           0        0.311866   -1.106854    0.438911
     47          1           0       -0.170513   -1.856697   -0.046729
     48          6           0        1.772154   -1.210899    0.415855
     49          1           0        2.158656   -0.783869    1.346651
     50          6           0        2.297337   -0.394212   -0.788720
     51          6           0        2.155771   -2.700079    0.302388
     52          1           0        3.239771   -2.740893    0.150994
     53          8           0        2.614508   -0.934506   -1.860494
     54          6           0        1.791188   -3.512169    1.536463
     55          1           0        2.274890   -3.098381    2.427884
     56          1           0        2.126274   -4.545947    1.409879
     57          1           0        0.707828   -3.514618    1.698049
     58          8           0        1.472858   -3.268324   -0.815717
     59          1           0        1.822528   -2.798474   -1.597828
     60          7           0        2.321814    0.936592   -0.594412
     61          1           0        1.974839    1.278500    0.298091
     62          6           0        2.515655    1.913614   -1.668499
     63          1           0        1.945553    1.587285   -2.546096
     64          6           0        4.009619    2.054424   -2.042585
     65          6           0        1.987543    3.275153   -1.185220
     66          1           0        2.476465    3.518679   -0.230100
     67          1           0        0.908337    3.197923   -1.010414
     68          8           0        4.716734    2.893100   -1.489640
     69          8           0        2.190120    4.278862   -2.150899
     70          1           0        3.139670    4.489074   -2.127132
     71          7           0        4.438179    1.208501   -3.011497
     72          1           0        3.771482    0.546180   -3.388964
     73          6           0        5.822044    1.130476   -3.454580
     74          1           0        5.929936    1.490628   -4.482536
     75          1           0        6.411142    1.787178   -2.808478
     76          6           0        6.414372   -0.284337   -3.417935
     77          8           0        7.416888   -0.558635   -4.060454
     78          7           0        5.767669   -1.182552   -2.621718
     79          1           0        4.851702   -0.946194   -2.261252
     80          6           0        6.106718   -2.594807   -2.670868
     81          1           0        7.162768   -2.729740   -2.422200
     82          6           0        5.926907   -3.209611   -4.058572
     83          6           0        5.207634   -3.318986   -1.653534
     84          1           0        5.355182   -2.809846   -0.691179
     85          1           0        4.165658   -3.139186   -1.949465
     86          8           0        6.524667   -4.185837   -4.445853
     87          6           0        5.420036   -4.822416   -1.460999
     88          1           0        5.330443   -5.345652   -2.419962
     89          1           0        6.439130   -5.013137   -1.099446
     90          6           0        4.385029   -5.355640   -0.463087
     91          1           0        3.376641   -5.139251   -0.846344
     92          1           0        4.471650   -4.813944    0.488776
     93          6           0        4.482587   -6.848185   -0.155774
     94          1           0        4.505572   -7.421472   -1.099971
     95          1           0        5.428636   -7.055894    0.359273
     96          7           0        3.381635   -7.226934    0.745031
     97          1           0        3.520465   -8.176907    1.085913
     98          1           0        2.509974   -7.245918    0.216278
     99          8           0        4.954176   -2.597659   -4.780174
    100          1           0        4.916627   -3.072399   -5.631890
 ---------------------------------------------------------------------

 SCF Done:  E(RB3LYP) =  -2418.58130398     A.U. after    2 cycles

 Alpha  occ. eigenvalues --  -19.27873 -19.26234 -19.24904 -19.24488 -19.24043
 Alpha  occ. eigenvalues --  -19.22716 -19.22568 -19.21059 -19.18815 -19.18430
 Alpha  occ. eigenvalues --  -19.16077 -14.58234 -14.50690 -14.48849 -14.48414
 Alpha  occ. eigenvalues --  -14.47822 -14.46010 -14.43471 -14.40841 -14.36149
 Alpha  occ. eigenvalues --  -10.44631 -10.43667 -10.41872 -10.41682 -10.40885
 Alpha  occ. eigenvalues --  -10.39110 -10.36507 -10.36099 -10.35953 -10.35662
 Alpha  occ. eigenvalues --  -10.35599 -10.33665 -10.33313 -10.32490 -10.31454
 Alpha  occ. eigenvalues --  -10.31202 -10.31084 -10.30063 -10.28840 -10.28567
 Alpha  occ. eigenvalues --  -10.28464 -10.28400 -10.27212 -10.25270 -10.25058
 Alpha  occ. eigenvalues --  -10.25032 -10.23309 -10.22758  -1.20146  -1.17880
 Alpha  occ. eigenvalues --   -1.16632  -1.15671  -1.15171  -1.13980  -1.12845
 Alpha  occ. eigenvalues --   -1.10965  -1.10141  -1.08569  -1.08208  -1.07575
 Alpha  occ. eigenvalues --   -1.06149  -1.05200  -1.04229  -1.04036  -1.02188
 Alpha  occ. eigenvalues --   -0.99798  -0.97448  -0.94825  -0.92594  -0.92460
 Alpha  occ. eigenvalues --   -0.89866  -0.86824  -0.85812  -0.85438  -0.84301
 Alpha  occ. eigenvalues --   -0.83164  -0.81676  -0.81141  -0.79779  -0.78304
 Alpha  occ. eigenvalues --   -0.77366  -0.74418  -0.74150  -0.73810  -0.73797
 Alpha  occ. eigenvalues --   -0.73251  -0.72223  -0.71507  -0.70545  -0.70103
 Alpha  occ. eigenvalues --   -0.69309  -0.68832  -0.68427  -0.67975  -0.67082
 Alpha  occ. eigenvalues --   -0.66956  -0.65759  -0.64908  -0.64201  -0.64061
 Alpha  occ. eigenvalues --   -0.63703  -0.62817  -0.62090  -0.61042  -0.60921
 Alpha  occ. eigenvalues --   -0.60405  -0.60237  -0.59802  -0.59303  -0.58752
 Alpha  occ. eigenvalues --   -0.58627  -0.57951  -0.57376  -0.56452  -0.56141
 Alpha  occ. eigenvalues --   -0.55738  -0.55720  -0.55114  -0.54783  -0.54617
 Alpha  occ. eigenvalues --   -0.54410  -0.53709  -0.53561  -0.53357  -0.53275
 Alpha  occ. eigenvalues --   -0.52802  -0.52763  -0.52360  -0.52093  -0.51787
 Alpha  occ. eigenvalues --   -0.51307  -0.51254  -0.50771  -0.50734  -0.50479
 Alpha  occ. eigenvalues --   -0.50402  -0.49920  -0.49615  -0.49179  -0.48755
 Alpha  occ. eigenvalues --   -0.48562  -0.48386  -0.47774  -0.47534  -0.47246
 Alpha  occ. eigenvalues --   -0.46763  -0.46323  -0.46086  -0.46037  -0.45808
 Alpha  occ. eigenvalues --   -0.45162  -0.44621  -0.44447  -0.44377  -0.43964
 Alpha  occ. eigenvalues --   -0.43957  -0.43577  -0.43198  -0.42382  -0.42022
 Alpha  occ. eigenvalues --   -0.41890  -0.41212  -0.41087  -0.40748  -0.40411
 Alpha  occ. eigenvalues --   -0.40101  -0.40061  -0.39431  -0.38985  -0.38639
 Alpha  occ. eigenvalues --   -0.38379  -0.38171  -0.37935  -0.37817  -0.36991
 Alpha  occ. eigenvalues --   -0.36184  -0.35927  -0.34706  -0.34106  -0.33298
 Alpha  occ. eigenvalues --   -0.33150  -0.31992  -0.29943  -0.29459  -0.28406
 Alpha virt. eigenvalues --   -0.13824  -0.12539  -0.10935  -0.10085  -0.09290
 Alpha virt. eigenvalues --   -0.08154  -0.06277  -0.05374  -0.04115  -0.04031
 Alpha virt. eigenvalues --   -0.03203  -0.02582  -0.02184  -0.01827  -0.00944

 Mulliken charges:
               1
     1  N   -0.772728
     2  H    0.425328
     3  H    0.407230
     4  H    0.445473
     5  C   -0.121341
     6  H    0.219008
     7  C    0.640472
     8  C   -0.387608
     9  H    0.213516
    10  H    0.220563
    11  O   -0.509215
    12  C    0.615227
    13  N   -0.747574
    14  H    0.367365
    15  H    0.412354
    16  O   -0.539048
    17  N   -0.579098
    18  H    0.352569
    19  C   -0.099006
    20  H    0.207769
    21  C    0.644706
    22  C   -0.090032
    23  H    0.159332
    24  O   -0.586798
    25  C   -0.282782
    26  H    0.152821
    27  H    0.164418
    28  C   -0.474287
    29  H    0.167918
    30  H    0.180748
    31  H    0.134630
    32  C   -0.464687
    33  H    0.179570
    34  H    0.139345
    35  H    0.160844
    36  N   -0.601637
    37  H    0.384931
    38  C   -0.060024
    39  H    0.192416
    40  C    0.639348
    41  C   -0.444914
    42  H    0.171249
    43  H    0.155957
    44  H    0.179239
    45  O   -0.558203
    46  N   -0.600793
    47  H    0.358173
    48  C   -0.080907
    49  H    0.189655
    50  C    0.635993
    51  C    0.100359
    52  H    0.157831
    53  O   -0.563690
    54  C   -0.464489
    55  H    0.150912
    56  H    0.210004
    57  H    0.138024
    58  O   -0.654100
    59  H    0.429366
    60  N   -0.608483
    61  H    0.377485
    62  C   -0.065847
    63  H    0.170552
    64  C    0.620470
    65  C   -0.050459
    66  H    0.152958
    67  H    0.141128
    68  O   -0.522796
    69  O   -0.616048
    70  H    0.418755
    71  N   -0.615788
    72  H    0.354419
    73  C   -0.222193
    74  H    0.196942
    75  H    0.224969
    76  C    0.602276
    77  O   -0.508173
    78  N   -0.640365
    79  H    0.358769
    80  C    0.003141
    81  H    0.197456
    82  C    0.604069
    83  C   -0.328367
    84  H    0.150321
    85  H    0.148546
    86  O   -0.459471
    87  C   -0.267424
    88  H    0.162457
    89  H    0.147963
    90  C   -0.262297
    91  H    0.141456
    92  H    0.136153
    93  C   -0.145340
    94  H    0.124334
    95  H    0.145999
    96  N   -0.723346
    97  H    0.303685
    98  H    0.295256
    99  O   -0.579571
   100  H    0.414703
 Sum of Mulliken charges =   1.00000

 Dipole moment (field-independent basis, Debye):
    X=            -30.1069    Y=              5.5489    Z=             12.4842  Tot=             33.0616
 Quadrupole moment (field-independent basis, Debye-Ang):
   XX=           -121.2927   YY=           -248.6964   ZZ=           -245.1152
   XY=            -68.8217   XZ=            -47.7462   YZ=             26.7171

 Normal termination of Gaussian 16 at Mon Jun  6 03:55:04 2022.
