 Gaussian 16, Revision C.01,
 Gaussian 16:  ES64L-G16RevC.01  3-Jul-2019

 ----------------------------------------------------------------------
 # B3LYP/6-31G* empiricaldispersion=gd3 guess=read geom=check nosymm in
 tegral(ultrafinegrid)
 ----------------------------------------------------------------------

 ------------------------------------------------------
 Candidate Structure: Conf:156 Charge calc in gas phase
 ------------------------------------------------------
 Structure from the checkpoint file:  "conf-156.chk"
 Charge =  1 Multiplicity = 1

                          Input orientation:
 ---------------------------------------------------------------------
 Center     Atomic      Atomic             Coordinates (Angstroms)
 Number     Number       Type             X           Y           Z
 ---------------------------------------------------------------------
      1          7           0       -5.708829   -1.929457   -2.218411
      2          1           0       -6.167712   -1.590201   -1.341148
      3          1           0       -6.047975   -2.914265   -2.507837
      4          1           0       -5.958123   -1.260718   -2.959612
      5          6           0       -4.239855   -1.858059   -1.893596
      6          1           0       -3.807249   -2.857005   -1.950152
      7          6           0       -4.167606   -1.319824   -0.443539
      8          6           0       -3.485233   -0.924053   -2.867644
      9          1           0       -2.475530   -0.769785   -2.483568
     10          1           0       -3.419579   -1.403831   -3.851111
     11          8           0       -5.196014   -0.882736    0.078684
     12          6           0       -4.183863    0.434327   -2.929412
     13          7           0       -5.044712    0.583221   -4.010277
     14          1           0       -5.452299    1.509962   -4.096566
     15          1           0       -4.787495    0.159854   -4.894905
     16          8           0       -4.123462    1.244822   -2.026151
     17          7           0       -2.943187   -1.355544    0.094990
     18          1           0       -2.202193   -1.789444   -0.462450
     19          6           0       -2.521169   -0.387016    1.102568
     20          1           0       -3.409682   -0.122472    1.683168
     21          6           0       -1.986102    0.825619    0.308507
     22          6           0       -1.415811   -0.941985    2.046452
     23          1           0       -0.456672   -0.860319    1.517540
     24          8           0       -1.368489    0.640451   -0.748536
     25          6           0       -1.655214   -2.425622    2.388698
     26          1           0       -1.707330   -3.004987    1.459448
     27          1           0       -2.636813   -2.531275    2.872449
     28          6           0       -1.329162   -0.064317    3.303444
     29          1           0       -2.225382   -0.188508    3.925286
     30          1           0       -0.454281   -0.326834    3.901519
     31          1           0       -1.220000    0.992319    3.048427
     32          6           0       -0.563839   -3.029510    3.280063
     33          1           0       -0.715756   -4.107735    3.398120
     34          1           0        0.430501   -2.877675    2.841330
     35          1           0       -0.556392   -2.587424    4.281116
     36          7           0       -2.210831    2.051209    0.820236
     37          1           0       -2.701992    2.136120    1.700007
     38          6           0       -1.693027    3.284954    0.205731
     39          1           0       -1.857560    3.188836   -0.872030
     40          6           0       -0.176909    3.354110    0.509167
     41          6           0       -2.429755    4.495512    0.761796
     42          1           0       -2.090165    5.403826    0.256626
     43          1           0       -3.508119    4.391618    0.607229
     44          1           0       -2.214383    4.614248    1.828016
     45          8           0        0.263218    3.918879    1.515517
     46          7           0        0.580819    2.678884   -0.377247
     47          1           0        0.104461    2.104394   -1.067959
     48          6           0        1.972544    2.349955   -0.162895
     49          1           0        2.550414    3.276667   -0.061822
     50          6           0        2.416431    1.574529   -1.415782
     51          6           0        2.233733    1.452091    1.137321
     52          1           0        2.463385    0.430793    0.813939
     53          8           0        1.637901    1.380217   -2.355130
     54          6           0        3.409193    2.014140    1.939311
     55          1           0        4.328014    2.095656    1.343474
     56          1           0        3.615180    1.372039    2.799940
     57          1           0        3.160389    3.019900    2.298070
     58          8           0        1.090706    1.303975    1.950107
     59          1           0        0.856621    2.193303    2.278074
     60          7           0        3.645676    1.003777   -1.372162
     61          1           0        4.259465    1.197659   -0.592304
     62          6           0        3.988336   -0.163326   -2.198690
     63          1           0        3.742190    0.072249   -3.237879
     64          6           0        3.126476   -1.331579   -1.655283
     65          6           0        5.472298   -0.480571   -2.069393
     66          1           0        5.700152   -1.327140   -2.734778
     67          1           0        5.677977   -0.810613   -1.040529
     68          8           0        3.525679   -2.083180   -0.778786
     69          8           0        6.186013    0.694283   -2.415625
     70          1           0        7.133475    0.510995   -2.325799
     71          7           0        1.843090   -1.364368   -2.162915
     72          1           0        1.599608   -0.530189   -2.694600
     73          6           0        0.753825   -1.857277   -1.328515
     74          1           0        1.188678   -2.333013   -0.441780
     75          1           0        0.122427   -1.023464   -1.003724
     76          6           0       -0.147447   -2.887361   -1.990874
     77          8           0       -1.305325   -3.066357   -1.571553
     78          7           0        0.397023   -3.591153   -2.998545
     79          1           0        1.364067   -3.387670   -3.226209
     80          6           0       -0.216740   -4.787062   -3.573547
     81          1           0       -0.328332   -5.528491   -2.767374
     82          6           0        0.721748   -5.461866   -4.573799
     83          6           0       -1.618564   -4.542633   -4.199075
     84          1           0       -1.800746   -3.463011   -4.205443
     85          1           0       -1.617690   -4.886037   -5.237446
     86          8           0        0.358194   -6.304097   -5.358015
     87          6           0       -2.726175   -5.252347   -3.412687
     88          1           0       -2.598513   -6.339330   -3.499404
     89          1           0       -2.603745   -4.996212   -2.353957
     90          6           0       -4.135233   -4.852841   -3.864486
     91          1           0       -4.339277   -5.224356   -4.877401
     92          1           0       -4.189115   -3.756805   -3.931475
     93          6           0       -5.217663   -5.340934   -2.894403
     94          1           0       -5.420601   -6.408203   -3.054781
     95          1           0       -4.866486   -5.235576   -1.860890
     96          7           0       -6.446722   -4.513986   -3.012334
     97          1           0       -7.183590   -4.900674   -2.420696
     98          1           0       -6.805207   -4.565408   -3.967417
     99          8           0        2.005289   -5.053050   -4.451994
    100          1           0        2.533789   -5.560983   -5.097069
 ---------------------------------------------------------------------

 SCF Done:  E(RB3LYP) =  -2418.59592309     A.U. after    1 cycles

 Alpha  occ. eigenvalues --  -19.29830 -19.23611 -19.23368 -19.23144 -19.22611
 Alpha  occ. eigenvalues --  -19.22419 -19.21275 -19.21235 -19.20874 -19.20622
 Alpha  occ. eigenvalues --  -19.18810 -14.53601 -14.47668 -14.46734 -14.46331
 Alpha  occ. eigenvalues --  -14.45397 -14.45241 -14.45059 -14.44373 -14.42635
 Alpha  occ. eigenvalues --  -10.42086 -10.40766 -10.39809 -10.39201 -10.38191
 Alpha  occ. eigenvalues --  -10.37686 -10.37519 -10.37254 -10.35879 -10.34371
 Alpha  occ. eigenvalues --  -10.33101 -10.32224 -10.32079 -10.31850 -10.31838
 Alpha  occ. eigenvalues --  -10.31669 -10.31320 -10.31177 -10.31177 -10.29695
 Alpha  occ. eigenvalues --  -10.28598 -10.28161 -10.26961 -10.25266 -10.25123
 Alpha  occ. eigenvalues --  -10.25078 -10.24264 -10.23816  -1.20543  -1.15623
 Alpha  occ. eigenvalues --   -1.14818  -1.13903  -1.13542  -1.12525  -1.12306
 Alpha  occ. eigenvalues --   -1.11553  -1.10888  -1.09870  -1.08728  -1.08645
 Alpha  occ. eigenvalues --   -1.03328  -1.02642  -1.02085  -1.01939  -1.01680
 Alpha  occ. eigenvalues --   -1.01237  -1.00639  -0.99518  -0.91020  -0.90623
 Alpha  occ. eigenvalues --   -0.88434  -0.87276  -0.86569  -0.85094  -0.83402
 Alpha  occ. eigenvalues --   -0.81853  -0.81661  -0.79789  -0.79596  -0.78706
 Alpha  occ. eigenvalues --   -0.76901  -0.74199  -0.72938  -0.72082  -0.70887
 Alpha  occ. eigenvalues --   -0.70744  -0.70211  -0.69321  -0.69106  -0.68891
 Alpha  occ. eigenvalues --   -0.68676  -0.68252  -0.67687  -0.67565  -0.66790
 Alpha  occ. eigenvalues --   -0.66197  -0.65283  -0.64899  -0.64465  -0.63878
 Alpha  occ. eigenvalues --   -0.62944  -0.62111  -0.61759  -0.60812  -0.60513
 Alpha  occ. eigenvalues --   -0.59523  -0.59393  -0.58833  -0.58030  -0.58004
 Alpha  occ. eigenvalues --   -0.57478  -0.57330  -0.57150  -0.56859  -0.56329
 Alpha  occ. eigenvalues --   -0.56225  -0.55709  -0.55265  -0.55001  -0.54843
 Alpha  occ. eigenvalues --   -0.54093  -0.53986  -0.53363  -0.53223  -0.52650
 Alpha  occ. eigenvalues --   -0.52433  -0.52339  -0.51779  -0.51599  -0.51207
 Alpha  occ. eigenvalues --   -0.51069  -0.50735  -0.50497  -0.50026  -0.49779
 Alpha  occ. eigenvalues --   -0.49482  -0.49301  -0.48940  -0.48896  -0.48762
 Alpha  occ. eigenvalues --   -0.48141  -0.47871  -0.47817  -0.47525  -0.47260
 Alpha  occ. eigenvalues --   -0.47042  -0.46493  -0.46338  -0.45977  -0.45498
 Alpha  occ. eigenvalues --   -0.45210  -0.44901  -0.44776  -0.44370  -0.44163
 Alpha  occ. eigenvalues --   -0.44117  -0.43844  -0.43747  -0.43046  -0.43001
 Alpha  occ. eigenvalues --   -0.42740  -0.41714  -0.41476  -0.40586  -0.40210
 Alpha  occ. eigenvalues --   -0.39766  -0.39562  -0.39424  -0.39292  -0.37816
 Alpha  occ. eigenvalues --   -0.37526  -0.37357  -0.36616  -0.36452  -0.36290
 Alpha  occ. eigenvalues --   -0.36201  -0.36018  -0.35336  -0.35229  -0.34591
 Alpha  occ. eigenvalues --   -0.34320  -0.33447  -0.32746  -0.32162  -0.31394
 Alpha virt. eigenvalues --   -0.10550  -0.09081  -0.09050  -0.08499  -0.07999
 Alpha virt. eigenvalues --   -0.06900  -0.06491  -0.05634  -0.05154  -0.04401
 Alpha virt. eigenvalues --   -0.02555  -0.02000  -0.01566  -0.00989  -0.00493

 Mulliken charges:
               1
     1  N   -0.814572
     2  H    0.409432
     3  H    0.445652
     4  H    0.390378
     5  C   -0.117263
     6  H    0.233526
     7  C    0.640226
     8  C   -0.384177
     9  H    0.245585
    10  H    0.159449
    11  O   -0.533053
    12  C    0.547368
    13  N   -0.749803
    14  H    0.362644
    15  H    0.347656
    16  O   -0.441926
    17  N   -0.618415
    18  H    0.405935
    19  C   -0.076654
    20  H    0.177629
    21  C    0.684027
    22  C   -0.108343
    23  H    0.158616
    24  O   -0.566850
    25  C   -0.252087
    26  H    0.136426
    27  H    0.137029
    28  C   -0.455628
    29  H    0.141551
    30  H    0.175560
    31  H    0.141236
    32  C   -0.452228
    33  H    0.151500
    34  H    0.147466
    35  H    0.159336
    36  N   -0.594780
    37  H    0.345675
    38  C   -0.051155
    39  H    0.184021
    40  C    0.626640
    41  C   -0.478899
    42  H    0.179219
    43  H    0.164118
    44  H    0.180318
    45  O   -0.561760
    46  N   -0.600664
    47  H    0.385974
    48  C   -0.061630
    49  H    0.194789
    50  C    0.607435
    51  C    0.129786
    52  H    0.148191
    53  O   -0.547508
    54  C   -0.487901
    55  H    0.137361
    56  H    0.177050
    57  H    0.180478
    58  O   -0.637121
    59  H    0.424317
    60  N   -0.587917
    61  H    0.355839
    62  C   -0.062200
    63  H    0.189375
    64  C    0.594827
    65  C   -0.059328
    66  H    0.150287
    67  H    0.159768
    68  O   -0.503467
    69  O   -0.616260
    70  H    0.410375
    71  N   -0.625403
    72  H    0.375028
    73  C   -0.285691
    74  H    0.221769
    75  H    0.229627
    76  C    0.626659
    77  O   -0.576644
    78  N   -0.613925
    79  H    0.380564
    80  C   -0.013947
    81  H    0.206188
    82  C    0.575736
    83  C   -0.276071
    84  H    0.148166
    85  H    0.183489
    86  O   -0.439450
    87  C   -0.288836
    88  H    0.163888
    89  H    0.169964
    90  C   -0.287114
    91  H    0.162548
    92  H    0.118250
    93  C   -0.149241
    94  H    0.174941
    95  H    0.162579
    96  N   -0.783454
    97  H    0.344873
    98  H    0.336965
    99  O   -0.577106
   100  H    0.433168
 Sum of Mulliken charges =   1.00000

 Dipole moment (field-independent basis, Debye):
    X=            -12.8790    Y=            -10.6512    Z=            -13.8877  Tot=             21.7299
 Quadrupole moment (field-independent basis, Debye-Ang):
   XX=           -129.4905   YY=           -232.4922   ZZ=           -221.3739
   XY=             43.9930   XZ=             50.9759   YZ=             37.9714

 Normal termination of Gaussian 16 at Mon Jun  6 03:06:04 2022.
