 Gaussian 16, Revision C.01,
 Gaussian 16:  ES64L-G16RevC.01  3-Jul-2019

 ----------------------------------------------------------------------
 # B3LYP/6-31G* empiricaldispersion=gd3 guess=read geom=check nosymm in
 tegral(ultrafinegrid)
 ----------------------------------------------------------------------

 ------------------------------------------------------
 Candidate Structure: Conf:586 Charge calc in gas phase
 ------------------------------------------------------
 Structure from the checkpoint file:  "conf-586.chk"
 Charge =  1 Multiplicity = 1

                          Input orientation:
 ---------------------------------------------------------------------
 Center     Atomic      Atomic             Coordinates (Angstroms)
 Number     Number       Type             X           Y           Z
 ---------------------------------------------------------------------
      1          7           0       -5.118343    5.015519   -1.060029
      2          1           0       -5.373296    5.537733   -0.217500
      3          1           0       -5.888251    5.086614   -1.781667
      4          1           0       -4.189884    5.364041   -1.375362
      5          6           0       -4.911480    3.551107   -0.777804
      6          1           0       -5.589112    3.259928    0.028395
      7          6           0       -3.419643    3.428007   -0.378087
      8          6           0       -5.191741    2.729663   -2.052100
      9          1           0       -4.432064    2.973331   -2.806915
     10          1           0       -5.069646    1.670554   -1.807296
     11          8           0       -2.655672    4.332945   -0.730939
     12          6           0       -6.563411    3.030746   -2.662189
     13          7           0       -7.234614    2.000639   -3.198322
     14          1           0       -8.116154    2.185742   -3.662317
     15          1           0       -6.881680    1.054241   -3.200579
     16          8           0       -7.003119    4.190264   -2.676328
     17          7           0       -3.089645    2.316801    0.269534
     18          1           0       -3.764260    1.585223    0.502980
     19          6           0       -1.723748    1.941004    0.634671
     20          1           0       -1.070168    2.165794   -0.213165
     21          6           0       -1.807491    0.417593    0.862825
     22          6           0       -1.238400    2.736669    1.884941
     23          1           0       -1.412038    3.787992    1.617380
     24          8           0       -2.909543   -0.130322    0.988322
     25          6           0        0.269570    2.588996    2.177238
     26          1           0        0.491842    1.581952    2.550576
     27          1           0        0.492172    3.265714    3.011721
     28          6           0       -2.074505    2.394967    3.125493
     29          1           0       -1.911304    1.358308    3.441944
     30          1           0       -1.795239    3.044680    3.960970
     31          1           0       -3.147471    2.523346    2.945268
     32          6           0        1.200971    2.929712    1.007115
     33          1           0        2.242933    2.943514    1.339934
     34          1           0        1.144903    2.198456    0.190741
     35          1           0        0.963994    3.913333    0.583890
     36          7           0       -0.636483   -0.229480    0.930775
     37          1           0        0.249722    0.267837    0.910528
     38          6           0       -0.517203   -1.619783    1.344441
     39          1           0       -1.303383   -1.829870    2.078174
     40          6           0        0.868278   -1.739867    2.004469
     41          6           0       -0.659430   -2.584017    0.154694
     42          1           0       -0.606789   -3.627638    0.480758
     43          1           0       -1.628510   -2.422351   -0.325015
     44          1           0        0.136644   -2.410402   -0.576943
     45          8           0        1.686659   -0.815766    1.923788
     46          7           0        1.118678   -2.900926    2.632704
     47          1           0        0.466604   -3.678892    2.602705
     48          6           0        2.435585   -3.249911    3.166127
     49          1           0        2.866229   -2.357028    3.628760
     50          6           0        3.313790   -3.727112    1.989521
     51          6           0        2.248822   -4.382824    4.199033
     52          1           0        3.249652   -4.754996    4.460774
     53          8           0        3.425542   -4.927595    1.715206
     54          6           0        1.529431   -3.918138    5.456857
     55          1           0        2.107558   -3.145173    5.974377
     56          1           0        1.391600   -4.767204    6.131675
     57          1           0        0.542383   -3.511114    5.213284
     58          8           0        1.471166   -5.420317    3.606186
     59          1           0        2.027069   -5.753361    2.872023
     60          7           0        3.892577   -2.743506    1.272408
     61          1           0        3.707970   -1.767048    1.489381
     62          6           0        4.630039   -3.008974    0.053970
     63          1           0        5.250746   -3.898929    0.195161
     64          6           0        5.480598   -1.785378   -0.268057
     65          6           0        3.658337   -3.288994   -1.133647
     66          1           0        2.980592   -2.426386   -1.229089
     67          1           0        3.068765   -4.169624   -0.862282
     68          8           0        5.233376   -0.676409    0.193932
     69          8           0        4.338841   -3.568513   -2.337170
     70          1           0        4.529782   -2.713034   -2.776683
     71          7           0        6.497868   -2.025760   -1.152920
     72          1           0        6.433109   -2.906168   -1.653855
     73          6           0        7.059183   -0.912298   -1.879509
     74          1           0        7.244530   -0.093200   -1.179269
     75          1           0        8.015823   -1.209857   -2.323125
     76          6           0        6.124069   -0.428830   -3.000550
     77          8           0        5.087835   -1.018685   -3.309729
     78          7           0        6.520771    0.704951   -3.632958
     79          1           0        7.470561    1.020221   -3.477155
     80          6           0        5.906760    1.095937   -4.894898
     81          1           0        4.822655    1.111362   -4.758355
     82          6           0        6.242267    0.045249   -5.959323
     83          6           0        6.412283    2.493660   -5.302716
     84          1           0        6.268647    3.153348   -4.437144
     85          1           0        7.495167    2.437332   -5.485101
     86          8           0        7.233666   -0.646850   -5.946413
     87          6           0        5.716515    3.095216   -6.528661
     88          1           0        5.872666    2.443944   -7.394768
     89          1           0        4.631330    3.126818   -6.350466
     90          6           0        6.232572    4.502850   -6.850182
     91          1           0        7.308010    4.454278   -7.063824
     92          1           0        6.102623    5.151989   -5.972257
     93          6           0        5.529410    5.147609   -8.049783
     94          1           0        4.460274    5.295209   -7.804152
     95          1           0        5.953545    6.146090   -8.207412
     96          7           0        5.754524    4.370448   -9.275398
     97          1           0        5.491695    4.922341  -10.089377
     98          1           0        5.148398    3.552389   -9.287139
     99          8           0        5.311898    0.007395   -6.937244
    100          1           0        5.614679   -0.656410   -7.586536
 ---------------------------------------------------------------------

 SCF Done:  E(RB3LYP) =  -2418.58184469     A.U. after    1 cycles

 Alpha  occ. eigenvalues --  -19.27331 -19.26032 -19.25969 -19.21936 -19.20678
 Alpha  occ. eigenvalues --  -19.20138 -19.19962 -19.19601 -19.18893 -19.18337
 Alpha  occ. eigenvalues --  -19.18173 -14.58213 -14.50686 -14.49035 -14.45338
 Alpha  occ. eigenvalues --  -14.44464 -14.43455 -14.42131 -14.42131 -14.35884
 Alpha  occ. eigenvalues --  -10.44929 -10.43125 -10.41283 -10.38886 -10.38130
 Alpha  occ. eigenvalues --  -10.37535 -10.36470 -10.36453 -10.35265 -10.34903
 Alpha  occ. eigenvalues --  -10.33953 -10.32418 -10.30567 -10.30084 -10.30056
 Alpha  occ. eigenvalues --  -10.29826 -10.28883 -10.28871 -10.28786 -10.26663
 Alpha  occ. eigenvalues --  -10.26330 -10.26181 -10.26001 -10.25583 -10.25260
 Alpha  occ. eigenvalues --  -10.24122 -10.23326 -10.23096  -1.19255  -1.18141
 Alpha  occ. eigenvalues --   -1.16824  -1.13970  -1.12771  -1.12448  -1.11682
 Alpha  occ. eigenvalues --   -1.10429  -1.09741  -1.07871  -1.07151  -1.06468
 Alpha  occ. eigenvalues --   -1.05746  -1.05634  -1.02178  -1.00732  -1.00140
 Alpha  occ. eigenvalues --   -0.98861  -0.98516  -0.94584  -0.92640  -0.90667
 Alpha  occ. eigenvalues --   -0.86921  -0.86788  -0.84911  -0.83812  -0.82662
 Alpha  occ. eigenvalues --   -0.81701  -0.81343  -0.79950  -0.78453  -0.76920
 Alpha  occ. eigenvalues --   -0.75320  -0.74764  -0.74420  -0.73536  -0.72958
 Alpha  occ. eigenvalues --   -0.71466  -0.70854  -0.70577  -0.70140  -0.68928
 Alpha  occ. eigenvalues --   -0.68515  -0.67099  -0.66885  -0.66170  -0.65773
 Alpha  occ. eigenvalues --   -0.65512  -0.65221  -0.64611  -0.63772  -0.63712
 Alpha  occ. eigenvalues --   -0.62740  -0.62580  -0.61344  -0.59930  -0.58992
 Alpha  occ. eigenvalues --   -0.58773  -0.58329  -0.57865  -0.57703  -0.57288
 Alpha  occ. eigenvalues --   -0.57107  -0.56995  -0.56107  -0.55734  -0.55109
 Alpha  occ. eigenvalues --   -0.55034  -0.54820  -0.53952  -0.53881  -0.53820
 Alpha  occ. eigenvalues --   -0.53377  -0.53118  -0.52896  -0.52570  -0.52133
 Alpha  occ. eigenvalues --   -0.51628  -0.51497  -0.51372  -0.51112  -0.50944
 Alpha  occ. eigenvalues --   -0.50396  -0.50187  -0.49948  -0.49409  -0.49000
 Alpha  occ. eigenvalues --   -0.48684  -0.48466  -0.48164  -0.48074  -0.47796
 Alpha  occ. eigenvalues --   -0.47153  -0.46750  -0.46433  -0.46151  -0.46069
 Alpha  occ. eigenvalues --   -0.45306  -0.45256  -0.45073  -0.44766  -0.44471
 Alpha  occ. eigenvalues --   -0.44155  -0.43900  -0.43574  -0.43452  -0.42844
 Alpha  occ. eigenvalues --   -0.42491  -0.42400  -0.42025  -0.42018  -0.41890
 Alpha  occ. eigenvalues --   -0.41842  -0.41472  -0.41111  -0.39974  -0.39334
 Alpha  occ. eigenvalues --   -0.39142  -0.39037  -0.38281  -0.38159  -0.38057
 Alpha  occ. eigenvalues --   -0.37302  -0.36175  -0.35904  -0.34995  -0.34810
 Alpha  occ. eigenvalues --   -0.34593  -0.34372  -0.34018  -0.33111  -0.33068
 Alpha  occ. eigenvalues --   -0.32371  -0.31462  -0.30779  -0.30073  -0.28138
 Alpha virt. eigenvalues --   -0.13017  -0.11812  -0.09430  -0.07625  -0.06673
 Alpha virt. eigenvalues --   -0.05969  -0.05329  -0.04720  -0.04582  -0.04450
 Alpha virt. eigenvalues --   -0.03782  -0.02455  -0.01340  -0.00351   0.00236

 Mulliken charges:
               1
     1  N   -0.752895
     2  H    0.410144
     3  H    0.443558
     4  H    0.416335
     5  C   -0.124649
     6  H    0.216869
     7  C    0.651082
     8  C   -0.399795
     9  H    0.227854
    10  H    0.205934
    11  O   -0.534255
    12  C    0.646910
    13  N   -0.725848
    14  H    0.383201
    15  H    0.372211
    16  O   -0.534439
    17  N   -0.612119
    18  H    0.366556
    19  C   -0.069709
    20  H    0.191146
    21  C    0.624682
    22  C   -0.081661
    23  H    0.154721
    24  O   -0.558962
    25  C   -0.286254
    26  H    0.162811
    27  H    0.155486
    28  C   -0.460850
    29  H    0.164505
    30  H    0.166867
    31  H    0.133027
    32  C   -0.463414
    33  H    0.179018
    34  H    0.139901
    35  H    0.154007
    36  N   -0.620159
    37  H    0.384202
    38  C   -0.055908
    39  H    0.191237
    40  C    0.632357
    41  C   -0.451344
    42  H    0.166431
    43  H    0.178579
    44  H    0.170665
    45  O   -0.549728
    46  N   -0.602833
    47  H    0.355223
    48  C   -0.079894
    49  H    0.180412
    50  C    0.637058
    51  C    0.112627
    52  H    0.150528
    53  O   -0.551046
    54  C   -0.449355
    55  H    0.149563
    56  H    0.176725
    57  H    0.146027
    58  O   -0.651492
    59  H    0.423935
    60  N   -0.619500
    61  H    0.378564
    62  C   -0.066012
    63  H    0.192157
    64  C    0.593126
    65  C   -0.044369
    66  H    0.130174
    67  H    0.172938
    68  O   -0.527035
    69  O   -0.651034
    70  H    0.439545
    71  N   -0.573433
    72  H    0.348341
    73  C   -0.264384
    74  H    0.212185
    75  H    0.197118
    76  C    0.646051
    77  O   -0.541074
    78  N   -0.592244
    79  H    0.341845
    80  C   -0.021942
    81  H    0.189686
    82  C    0.598250
    83  C   -0.302749
    84  H    0.159216
    85  H    0.155103
    86  O   -0.464566
    87  C   -0.271471
    88  H    0.161447
    89  H    0.129425
    90  C   -0.237338
    91  H    0.150305
    92  H    0.124569
    93  C   -0.145853
    94  H    0.110044
    95  H    0.146130
    96  N   -0.715671
    97  H    0.303416
    98  H    0.296658
    99  O   -0.562641
   100  H    0.419240
 Sum of Mulliken charges =   1.00000

 Dipole moment (field-independent basis, Debye):
    X=            -16.1062    Y=             15.4680    Z=             -7.8434  Tot=             23.6683
 Quadrupole moment (field-independent basis, Debye-Ang):
   XX=           -128.7352   YY=           -233.5312   ZZ=           -221.5315
   XY=            -49.8246   XZ=             22.2313   YZ=            -25.9136

 Normal termination of Gaussian 16 at Mon Jun  6 03:41:22 2022.
