 Gaussian 16, Revision C.01,
 Gaussian 16:  ES64L-G16RevC.01  3-Jul-2019

 ----------------------------------------------------------------------
 # B3LYP/6-31G* empiricaldispersion=gd3 guess=read geom=check nosymm in
 tegral(ultrafinegrid)
 ----------------------------------------------------------------------

 ------------------------------------------------------
 Candidate Structure: Conf:420 Charge calc in gas phase
 ------------------------------------------------------
 Structure from the checkpoint file:  "conf-420.chk"
 Charge =  1 Multiplicity = 1

                          Input orientation:
 ---------------------------------------------------------------------
 Center     Atomic      Atomic             Coordinates (Angstroms)
 Number     Number       Type             X           Y           Z
 ---------------------------------------------------------------------
      1          7           0       -5.832446    0.035181   -2.242170
      2          1           0       -6.738415   -0.393314   -2.447797
      3          1           0       -5.435528    0.401699   -3.111012
      4          1           0       -5.959989    0.822051   -1.527766
      5          6           0       -4.883501   -0.881751   -1.497854
      6          1           0       -5.305512   -1.886782   -1.456166
      7          6           0       -4.827072   -0.224728   -0.087034
      8          6           0       -3.510096   -0.933019   -2.197092
      9          1           0       -3.652454   -1.296676   -3.223829
     10          1           0       -3.042562    0.053375   -2.224442
     11          8           0       -5.382856    0.870529    0.059973
     12          6           0       -2.618226   -1.949813   -1.465050
     13          7           0       -1.307294   -1.717524   -1.432352
     14          1           0       -0.758750   -2.354606   -0.826948
     15          1           0       -0.910481   -0.809791   -1.677142
     16          8           0       -3.169914   -2.933807   -0.932125
     17          7           0       -4.146108   -0.895992    0.852059
     18          1           0       -3.764855   -1.787919    0.536691
     19          6           0       -3.347309   -0.192090    1.860970
     20          1           0       -4.008805    0.257267    2.610946
     21          6           0       -2.586772    0.945853    1.123254
     22          6           0       -2.427922   -1.251027    2.540081
     23          1           0       -1.921965   -1.790322    1.724636
     24          8           0       -2.509992    0.945732   -0.111683
     25          6           0       -3.303042   -2.245286    3.340585
     26          1           0       -4.213212   -2.478452    2.775327
     27          1           0       -3.638492   -1.744777    4.259721
     28          6           0       -1.335885   -0.635368    3.424605
     29          1           0       -1.767135   -0.006249    4.215185
     30          1           0       -0.768554   -1.426093    3.922096
     31          1           0       -0.622582   -0.042215    2.847382
     32          6           0       -2.599646   -3.560463    3.690560
     33          1           0       -3.263182   -4.207632    4.273029
     34          1           0       -2.317159   -4.108795    2.784175
     35          1           0       -1.692553   -3.404299    4.283447
     36          7           0       -2.054836    1.927668    1.870279
     37          1           0       -2.124328    1.879018    2.877963
     38          6           0       -1.432163    3.136594    1.295824
     39          1           0       -2.050208    3.413769    0.433171
     40          6           0        0.009295    2.878266    0.767975
     41          6           0       -1.435709    4.250475    2.335550
     42          1           0       -1.007543    5.157909    1.906179
     43          1           0       -2.456463    4.460297    2.670561
     44          1           0       -0.813029    3.980754    3.194624
     45          8           0        0.970167    3.510630    1.189026
     46          7           0        0.080821    1.935923   -0.205603
     47          1           0       -0.776045    1.492989   -0.526733
     48          6           0        1.301663    1.623531   -0.915217
     49          1           0        1.950407    2.505970   -0.882730
     50          6           0        0.916664    1.279849   -2.356410
     51          6           0        2.082321    0.422735   -0.296322
     52          1           0        3.028528    0.337893   -0.849651
     53          8           0       -0.178722    0.748030   -2.630672
     54          6           0        2.369583    0.628596    1.184343
     55          1           0        2.859375    1.587393    1.372192
     56          1           0        3.001235   -0.187609    1.547282
     57          1           0        1.430732    0.611642    1.746169
     58          8           0        1.333555   -0.779375   -0.455472
     59          1           0        1.725251   -1.233716   -1.229091
     60          7           0        1.829667    1.550144   -3.301159
     61          1           0        2.755585    1.889066   -3.057630
     62          6           0        1.653065    1.235463   -4.720074
     63          1           0        0.606524    1.425289   -4.981240
     64          6           0        1.991218   -0.250025   -4.965416
     65          6           0        2.599956    2.138234   -5.523437
     66          1           0        2.291488    3.181789   -5.411396
     67          1           0        2.541355    1.867559   -6.585680
     68          8           0        3.035798   -0.601778   -5.508163
     69          8           0        3.920750    2.041549   -5.017563
     70          1           0        4.210513    1.135307   -5.234385
     71          7           0        1.052956   -1.135241   -4.522194
     72          1           0        0.347881   -0.755334   -3.895027
     73          6           0        1.444830   -2.515345   -4.350543
     74          1           0        0.567365   -3.094618   -4.044591
     75          1           0        1.807565   -2.917771   -5.301031
     76          6           0        2.542674   -2.654259   -3.275187
     77          8           0        2.829791   -1.709894   -2.529895
     78          7           0        3.116840   -3.864659   -3.192544
     79          1           0        2.841408   -4.608846   -3.826294
     80          6           0        4.109482   -4.245874   -2.190153
     81          1           0        5.050060   -3.715119   -2.386027
     82          6           0        4.371275   -5.733332   -2.399677
     83          6           0        3.683330   -3.939306   -0.732473
     84          1           0        4.458567   -4.338038   -0.070166
     85          1           0        3.681683   -2.853412   -0.620503
     86          8           0        3.770438   -6.432882   -3.188489
     87          6           0        2.305393   -4.490442   -0.353418
     88          1           0        1.600936   -4.251369   -1.159582
     89          1           0        2.337366   -5.587582   -0.280454
     90          6           0        1.785090   -3.877594    0.952625
     91          1           0        1.784119   -2.786108    0.850109
     92          1           0        2.458968   -4.135297    1.780835
     93          6           0        0.365071   -4.323044    1.311443
     94          1           0        0.351629   -5.398014    1.555249
     95          1           0        0.042986   -3.789430    2.212197
     96          7           0       -0.580657   -3.982746    0.230270
     97          1           0       -1.549327   -4.037640    0.540900
     98          1           0       -0.513068   -4.668324   -0.520856
     99          8           0        5.350049   -6.178069   -1.595729
    100          1           0        5.469824   -7.129345   -1.780071
 ---------------------------------------------------------------------

 SCF Done:  E(RB3LYP) =  -2418.61810831     A.U. after    3 cycles

 Alpha  occ. eigenvalues --  -19.28524 -19.26232 -19.23171 -19.22955 -19.22115
 Alpha  occ. eigenvalues --  -19.21721 -19.21431 -19.21303 -19.21099 -19.20624
 Alpha  occ. eigenvalues --  -19.18844 -14.59177 -14.47578 -14.47132 -14.45961
 Alpha  occ. eigenvalues --  -14.45374 -14.44152 -14.43309 -14.42578 -14.40482
 Alpha  occ. eigenvalues --  -10.42644 -10.41102 -10.39841 -10.39621 -10.39581
 Alpha  occ. eigenvalues --  -10.38721 -10.38413 -10.37267 -10.36084 -10.34787
 Alpha  occ. eigenvalues --  -10.32775 -10.32746 -10.32440 -10.31992 -10.31950
 Alpha  occ. eigenvalues --  -10.31400 -10.31128 -10.31075 -10.30120 -10.28512
 Alpha  occ. eigenvalues --  -10.27537 -10.27218 -10.26463 -10.26115 -10.26077
 Alpha  occ. eigenvalues --  -10.25890 -10.24842 -10.23924  -1.19645  -1.18696
 Alpha  occ. eigenvalues --   -1.14987  -1.13897  -1.13291  -1.13235  -1.12858
 Alpha  occ. eigenvalues --   -1.12142  -1.10777  -1.10700  -1.08902  -1.08712
 Alpha  occ. eigenvalues --   -1.05246  -1.03121  -1.02089  -1.01926  -1.00702
 Alpha  occ. eigenvalues --   -0.99621  -0.99230  -0.96540  -0.92717  -0.90615
 Alpha  occ. eigenvalues --   -0.88563  -0.87187  -0.85931  -0.84368  -0.83569
 Alpha  occ. eigenvalues --   -0.83213  -0.81531  -0.80657  -0.79652  -0.78608
 Alpha  occ. eigenvalues --   -0.77478  -0.74557  -0.73287  -0.73013  -0.72540
 Alpha  occ. eigenvalues --   -0.72285  -0.71391  -0.70999  -0.70335  -0.69431
 Alpha  occ. eigenvalues --   -0.69106  -0.67413  -0.67195  -0.66921  -0.66461
 Alpha  occ. eigenvalues --   -0.66300  -0.65353  -0.64753  -0.64554  -0.63339
 Alpha  occ. eigenvalues --   -0.62385  -0.61824  -0.61694  -0.61358  -0.60476
 Alpha  occ. eigenvalues --   -0.59732  -0.59168  -0.58665  -0.58273  -0.57998
 Alpha  occ. eigenvalues --   -0.57444  -0.57329  -0.57183  -0.56801  -0.56533
 Alpha  occ. eigenvalues --   -0.56180  -0.55978  -0.55428  -0.55152  -0.54704
 Alpha  occ. eigenvalues --   -0.54437  -0.53846  -0.53557  -0.53199  -0.52953
 Alpha  occ. eigenvalues --   -0.52778  -0.52500  -0.52038  -0.51831  -0.51351
 Alpha  occ. eigenvalues --   -0.50830  -0.50520  -0.50277  -0.49917  -0.49765
 Alpha  occ. eigenvalues --   -0.49692  -0.49335  -0.48774  -0.48284  -0.48180
 Alpha  occ. eigenvalues --   -0.48065  -0.47831  -0.47463  -0.47320  -0.47107
 Alpha  occ. eigenvalues --   -0.47010  -0.46733  -0.46145  -0.45922  -0.45767
 Alpha  occ. eigenvalues --   -0.45589  -0.45415  -0.45201  -0.44893  -0.44583
 Alpha  occ. eigenvalues --   -0.44117  -0.43973  -0.43390  -0.42797  -0.42399
 Alpha  occ. eigenvalues --   -0.42092  -0.41331  -0.40985  -0.40931  -0.40735
 Alpha  occ. eigenvalues --   -0.40576  -0.40163  -0.39792  -0.38511  -0.37903
 Alpha  occ. eigenvalues --   -0.37667  -0.36711  -0.36659  -0.36478  -0.36085
 Alpha  occ. eigenvalues --   -0.35798  -0.35689  -0.35310  -0.34898  -0.34836
 Alpha  occ. eigenvalues --   -0.33924  -0.32996  -0.32895  -0.32059  -0.31537
 Alpha virt. eigenvalues --   -0.11952  -0.10421  -0.09057  -0.08604  -0.08418
 Alpha virt. eigenvalues --   -0.08109  -0.07009  -0.06507  -0.05303  -0.05112
 Alpha virt. eigenvalues --   -0.03033  -0.02136  -0.01572  -0.01051  -0.00473

 Mulliken charges:
               1
     1  N   -0.766015
     2  H    0.414201
     3  H    0.412906
     4  H    0.433225
     5  C   -0.113422
     6  H    0.237235
     7  C    0.660595
     8  C   -0.379390
     9  H    0.185934
    10  H    0.225971
    11  O   -0.537986
    12  C    0.600825
    13  N   -0.817053
    14  H    0.416666
    15  H    0.413757
    16  O   -0.570705
    17  N   -0.618104
    18  H    0.388211
    19  C   -0.048767
    20  H    0.185765
    21  C    0.650785
    22  C   -0.121169
    23  H    0.162157
    24  O   -0.574579
    25  C   -0.266854
    26  H    0.153307
    27  H    0.149687
    28  C   -0.498582
    29  H    0.144796
    30  H    0.177036
    31  H    0.185442
    32  C   -0.463040
    33  H    0.168292
    34  H    0.148935
    35  H    0.159814
    36  N   -0.596583
    37  H    0.348907
    38  C   -0.062049
    39  H    0.184644
    40  C    0.621035
    41  C   -0.471092
    42  H    0.194632
    43  H    0.155835
    44  H    0.173136
    45  O   -0.514791
    46  N   -0.644780
    47  H    0.400883
    48  C   -0.056116
    49  H    0.181612
    50  C    0.640786
    51  C    0.124375
    52  H    0.145147
    53  O   -0.593183
    54  C   -0.459072
    55  H    0.176646
    56  H    0.155516
    57  H    0.156456
    58  O   -0.676404
    59  H    0.443853
    60  N   -0.584616
    61  H    0.365820
    62  C   -0.096709
    63  H    0.178492
    64  C    0.637362
    65  C   -0.052987
    66  H    0.164117
    67  H    0.161931
    68  O   -0.527861
    69  O   -0.630290
    70  H    0.424086
    71  N   -0.590963
    72  H    0.363457
    73  C   -0.258246
    74  H    0.184507
    75  H    0.208633
    76  C    0.649209
    77  O   -0.559547
    78  N   -0.617845
    79  H    0.363790
    80  C   -0.015674
    81  H    0.203985
    82  C    0.585108
    83  C   -0.291579
    84  H    0.172571
    85  H    0.181431
    86  O   -0.466820
    87  C   -0.279207
    88  H    0.127704
    89  H    0.139979
    90  C   -0.269740
    91  H    0.176885
    92  H    0.137033
    93  C   -0.148176
    94  H    0.133738
    95  H    0.146238
    96  N   -0.765155
    97  H    0.333740
    98  H    0.315229
    99  O   -0.558294
   100  H    0.429396
 Sum of Mulliken charges =   1.00000

 Dipole moment (field-independent basis, Debye):
    X=            -14.3443    Y=             -6.8242    Z=             -5.8919  Tot=             16.9423
 Quadrupole moment (field-independent basis, Debye-Ang):
   XX=           -171.6796   YY=           -241.5415   ZZ=           -233.2825
   XY=            -27.8334   XZ=             29.7272   YZ=              0.6448

 Normal termination of Gaussian 16 at Mon Jun  6 03:08:06 2022.
