 Gaussian 16, Revision C.01,
 Gaussian 16:  ES64L-G16RevC.01  3-Jul-2019

 ----------------------------------------------------------------------
 # B3LYP/6-31G* empiricaldispersion=gd3 guess=read geom=check nosymm in
 tegral(ultrafinegrid)
 ----------------------------------------------------------------------

 ------------------------------------------------------
 Candidate Structure: Conf:306 Charge calc in gas phase
 ------------------------------------------------------
 Structure from the checkpoint file:  "conf-306.chk"
 Charge =  1 Multiplicity = 1

                          Input orientation:
 ---------------------------------------------------------------------
 Center     Atomic      Atomic             Coordinates (Angstroms)
 Number     Number       Type             X           Y           Z
 ---------------------------------------------------------------------
      1          7           0       -6.592558   -0.144508    0.571683
      2          1           0       -6.671599    0.877959    0.410028
      3          1           0       -7.509961   -0.576739    0.686472
      4          1           0       -6.039716   -0.558647   -0.273078
      5          6           0       -5.679875   -0.311718    1.756889
      6          1           0       -6.276242   -0.620418    2.620442
      7          6           0       -5.103205    1.102122    2.018787
      8          6           0       -4.593345   -1.386047    1.476822
      9          1           0       -3.793691   -1.291471    2.212961
     10          1           0       -5.041676   -2.378850    1.604885
     11          8           0       -5.347012    2.010821    1.232414
     12          6           0       -4.015666   -1.354649    0.058016
     13          7           0       -2.752024   -1.733979   -0.101583
     14          1           0       -2.401712   -1.768990   -1.052060
     15          1           0       -2.072364   -1.857217    0.655050
     16          8           0       -4.758690   -1.078609   -0.909696
     17          7           0       -4.367252    1.241928    3.145887
     18          1           0       -4.131609    0.387137    3.636366
     19          6           0       -3.310740    2.257214    3.192857
     20          1           0       -3.768743    3.238301    3.030352
     21          6           0       -2.348921    1.934449    2.021913
     22          6           0       -2.644563    2.214229    4.598613
     23          1           0       -2.336031    1.169487    4.770308
     24          8           0       -2.384573    0.812731    1.494217
     25          6           0       -3.684567    2.600474    5.675728
     26          1           0       -4.631824    2.090365    5.464953
     27          1           0       -3.892825    3.675895    5.586209
     28          6           0       -1.384562    3.086410    4.698090
     29          1           0       -1.607491    4.133897    4.454069
     30          1           0       -1.000152    3.073209    5.720517
     31          1           0       -0.578247    2.737396    4.047877
     32          6           0       -3.253220    2.268742    7.108598
     33          1           0       -4.056597    2.506497    7.812966
     34          1           0       -3.021881    1.201660    7.215247
     35          1           0       -2.370209    2.835119    7.420406
     36          7           0       -1.495215    2.893290    1.624970
     37          1           0       -1.486805    3.783683    2.105180
     38          6           0       -0.459654    2.666723    0.599458
     39          1           0       -0.934592    2.091375   -0.201880
     40          6           0        0.682079    1.808397    1.201543
     41          6           0        0.062246    3.991159    0.059731
     42          1           0        0.765711    3.800553   -0.754989
     43          1           0       -0.764098    4.595673   -0.326050
     44          1           0        0.593866    4.545959    0.838992
     45          8           0        1.782971    2.283625    1.500686
     46          7           0        0.357695    0.511222    1.375450
     47          1           0       -0.573393    0.209135    1.103139
     48          6           0        1.271453   -0.508361    1.878523
     49          1           0        1.901223   -0.063807    2.656612
     50          6           0        2.135034   -0.948073    0.677149
     51          6           0        0.461259   -1.683650    2.460059
     52          1           0        1.183073   -2.449255    2.776986
     53          8           0        1.858614   -1.965543    0.018787
     54          6           0       -0.413302   -1.284489    3.640162
     55          1           0        0.189799   -0.853856    4.446153
     56          1           0       -0.930603   -2.167950    4.026183
     57          1           0       -1.159966   -0.547837    3.326085
     58          8           0       -0.392555   -2.232706    1.447488
     59          1           0        0.229130   -2.473882    0.720188
     60          7           0        3.109180   -0.087053    0.346421
     61          1           0        3.192587    0.740524    0.927907
     62          6           0        3.671258   -0.012073   -1.008219
     63          1           0        2.916665   -0.426134   -1.687626
     64          6           0        4.936641   -0.869625   -1.169342
     65          6           0        3.934707    1.449787   -1.395906
     66          1           0        4.211817    1.462642   -2.452830
     67          1           0        4.781958    1.842273   -0.817589
     68          8           0        6.005575   -0.386219   -1.523348
     69          8           0        2.768128    2.257534   -1.242932
     70          1           0        2.705999    2.541615   -0.316564
     71          7           0        4.758362   -2.204531   -0.922615
     72          1           0        3.790150   -2.510611   -0.895305
     73          6           0        5.690864   -3.118100   -1.560373
     74          1           0        6.709841   -2.855311   -1.266449
     75          1           0        5.481699   -4.136686   -1.219097
     76          6           0        5.508523   -3.027546   -3.090662
     77          8           0        4.418139   -2.729638   -3.568596
     78          7           0        6.615572   -3.271756   -3.832534
     79          1           0        7.496541   -3.504117   -3.392392
     80          6           0        6.633208   -3.072956   -5.271042
     81          1           0        5.612067   -3.212504   -5.634646
     82          6           0        7.547974   -4.117696   -5.886691
     83          6           0        7.127931   -1.657280   -5.672338
     84          1           0        8.198980   -1.581548   -5.434320
     85          1           0        7.039918   -1.571146   -6.762642
     86          8           0        8.394485   -4.738166   -5.280053
     87          6           0        6.368904   -0.523546   -4.972424
     88          1           0        5.292197   -0.626390   -5.141540
     89          1           0        6.512367   -0.601155   -3.889810
     90          6           0        6.851086    0.857819   -5.430557
     91          1           0        6.612936    1.006332   -6.495709
     92          1           0        7.946514    0.910205   -5.356418
     93          6           0        6.270971    2.016944   -4.613909
     94          1           0        6.550111    1.884667   -3.560628
     95          1           0        6.736129    2.956854   -4.959497
     96          7           0        4.799383    2.040059   -4.679274
     97          1           0        4.504149    2.063271   -5.655850
     98          1           0        4.452111    2.904111   -4.264571
     99          8           0        7.348215   -4.229742   -7.216362
    100          1           0        8.006290   -4.869775   -7.548585
 ---------------------------------------------------------------------

 SCF Done:  E(RB3LYP) =  -2418.59318382     A.U. after    2 cycles

 Alpha  occ. eigenvalues --  -19.26875 -19.25658 -19.24833 -19.24810 -19.24695
 Alpha  occ. eigenvalues --  -19.22584 -19.22127 -19.20283 -19.19179 -19.17699
 Alpha  occ. eigenvalues --  -19.16038 -14.56219 -14.49836 -14.48880 -14.47384
 Alpha  occ. eigenvalues --  -14.46301 -14.44902 -14.40906 -14.40800 -14.35643
 Alpha  occ. eigenvalues --  -10.43706 -10.42938 -10.41462 -10.40774 -10.39426
 Alpha  occ. eigenvalues --  -10.38447 -10.37104 -10.36138 -10.35130 -10.34523
 Alpha  occ. eigenvalues --  -10.34375 -10.34355 -10.33514 -10.33501 -10.31732
 Alpha  occ. eigenvalues --  -10.29568 -10.28599 -10.28578 -10.28569 -10.28402
 Alpha  occ. eigenvalues --  -10.28149 -10.27979 -10.27406 -10.26750 -10.24335
 Alpha  occ. eigenvalues --  -10.23239 -10.21850 -10.20878  -1.19285  -1.17221
 Alpha  occ. eigenvalues --   -1.16489  -1.15719  -1.14565  -1.13560  -1.11528
 Alpha  occ. eigenvalues --   -1.11185  -1.09592  -1.07998  -1.07442  -1.06833
 Alpha  occ. eigenvalues --   -1.06763  -1.04930  -1.03150  -1.02993  -1.01092
 Alpha  occ. eigenvalues --   -0.97587  -0.97296  -0.93985  -0.91978  -0.91942
 Alpha  occ. eigenvalues --   -0.89111  -0.87130  -0.84961  -0.84440  -0.83879
 Alpha  occ. eigenvalues --   -0.82773  -0.80897  -0.80703  -0.80055  -0.77023
 Alpha  occ. eigenvalues --   -0.75880  -0.74395  -0.73446  -0.73371  -0.72757
 Alpha  occ. eigenvalues --   -0.72233  -0.71352  -0.71189  -0.69455  -0.69173
 Alpha  occ. eigenvalues --   -0.68967  -0.67972  -0.67858  -0.66890  -0.65589
 Alpha  occ. eigenvalues --   -0.65515  -0.65101  -0.63842  -0.63407  -0.63283
 Alpha  occ. eigenvalues --   -0.62798  -0.62201  -0.61420  -0.61340  -0.61087
 Alpha  occ. eigenvalues --   -0.60356  -0.59767  -0.59550  -0.59135  -0.57965
 Alpha  occ. eigenvalues --   -0.57252  -0.57157  -0.56428  -0.56297  -0.55744
 Alpha  occ. eigenvalues --   -0.55250  -0.54785  -0.54557  -0.54333  -0.54156
 Alpha  occ. eigenvalues --   -0.54049  -0.53185  -0.52811  -0.52656  -0.52218
 Alpha  occ. eigenvalues --   -0.52074  -0.51946  -0.51770  -0.51640  -0.51197
 Alpha  occ. eigenvalues --   -0.50773  -0.50497  -0.49883  -0.49732  -0.49180
 Alpha  occ. eigenvalues --   -0.49071  -0.48966  -0.48652  -0.48518  -0.48418
 Alpha  occ. eigenvalues --   -0.48252  -0.47996  -0.47701  -0.47367  -0.47219
 Alpha  occ. eigenvalues --   -0.46899  -0.46529  -0.46343  -0.46160  -0.45595
 Alpha  occ. eigenvalues --   -0.45007  -0.44829  -0.44769  -0.44175  -0.43846
 Alpha  occ. eigenvalues --   -0.43612  -0.43433  -0.43294  -0.42514  -0.41237
 Alpha  occ. eigenvalues --   -0.41002  -0.40393  -0.40299  -0.39954  -0.39646
 Alpha  occ. eigenvalues --   -0.39457  -0.39362  -0.39141  -0.38361  -0.38071
 Alpha  occ. eigenvalues --   -0.37723  -0.37449  -0.37019  -0.36770  -0.36045
 Alpha  occ. eigenvalues --   -0.35915  -0.35336  -0.34279  -0.33533  -0.32829
 Alpha  occ. eigenvalues --   -0.32006  -0.30402  -0.30277  -0.29316  -0.27649
 Alpha virt. eigenvalues --   -0.13193  -0.11329  -0.10523  -0.09494  -0.08461
 Alpha virt. eigenvalues --   -0.07110  -0.06298  -0.04573  -0.04019  -0.03803
 Alpha virt. eigenvalues --   -0.02943  -0.02162  -0.01912  -0.00946  -0.00151

 Mulliken charges:
               1
     1  N   -0.775969
     2  H    0.420005
     3  H    0.398829
     4  H    0.455197
     5  C   -0.119770
     6  H    0.213837
     7  C    0.654871
     8  C   -0.384793
     9  H    0.201310
    10  H    0.214922
    11  O   -0.507029
    12  C    0.656484
    13  N   -0.757133
    14  H    0.366901
    15  H    0.419620
    16  O   -0.561956
    17  N   -0.581003
    18  H    0.340193
    19  C   -0.072446
    20  H    0.197507
    21  C    0.660741
    22  C   -0.104748
    23  H    0.135011
    24  O   -0.581113
    25  C   -0.261290
    26  H    0.147805
    27  H    0.152442
    28  C   -0.491050
    29  H    0.151639
    30  H    0.184731
    31  H    0.169110
    32  C   -0.455300
    33  H    0.170283
    34  H    0.146210
    35  H    0.163650
    36  N   -0.593226
    37  H    0.353508
    38  C   -0.056184
    39  H    0.194578
    40  C    0.641436
    41  C   -0.496836
    42  H    0.214649
    43  H    0.167776
    44  H    0.176579
    45  O   -0.558997
    46  N   -0.609604
    47  H    0.382629
    48  C   -0.082039
    49  H    0.185351
    50  C    0.650868
    51  C    0.114270
    52  H    0.162700
    53  O   -0.569862
    54  C   -0.478883
    55  H    0.164242
    56  H    0.169659
    57  H    0.146887
    58  O   -0.676267
    59  H    0.437457
    60  N   -0.589580
    61  H    0.359930
    62  C   -0.095204
    63  H    0.202980
    64  C    0.640364
    65  C   -0.111453
    66  H    0.229207
    67  H    0.148642
    68  O   -0.516097
    69  O   -0.658175
    70  H    0.415824
    71  N   -0.576706
    72  H    0.361248
    73  C   -0.251346
    74  H    0.187055
    75  H    0.181696
    76  C    0.629106
    77  O   -0.533749
    78  N   -0.594904
    79  H    0.343355
    80  C   -0.046352
    81  H    0.200295
    82  C    0.584579
    83  C   -0.269080
    84  H    0.138628
    85  H    0.156606
    86  O   -0.468309
    87  C   -0.270906
    88  H    0.162789
    89  H    0.174565
    90  C   -0.271019
    91  H    0.124346
    92  H    0.135082
    93  C   -0.139795
    94  H    0.155866
    95  H    0.117611
    96  N   -0.720183
    97  H    0.297058
    98  H    0.302522
    99  O   -0.563127
   100  H    0.418243
 Sum of Mulliken charges =   1.00000

 Dipole moment (field-independent basis, Debye):
    X=            -16.6600    Y=              1.3797    Z=             10.0046  Tot=             19.4821
 Quadrupole moment (field-independent basis, Debye-Ang):
   XX=           -145.5778   YY=           -252.3885   ZZ=           -213.0237
   XY=             -0.3459   XZ=            -61.5634   YZ=             11.8514

 Normal termination of Gaussian 16 at Mon Jun  6 03:06:43 2022.
