 Gaussian 16, Revision C.01,
 Gaussian 16:  ES64L-G16RevC.01  3-Jul-2019

 ----------------------------------------------------------------------
 # B3LYP/6-31G* empiricaldispersion=gd3 guess=read geom=check nosymm in
 tegral(ultrafinegrid)
 ----------------------------------------------------------------------

 ------------------------------------------------------
 Candidate Structure: Conf:472 Charge calc in gas phase
 ------------------------------------------------------
 Structure from the checkpoint file:  "conf-472.chk"
 Charge =  1 Multiplicity = 1

                          Input orientation:
 ---------------------------------------------------------------------
 Center     Atomic      Atomic             Coordinates (Angstroms)
 Number     Number       Type             X           Y           Z
 ---------------------------------------------------------------------
      1          7           0       -3.869163   -0.519055    5.160143
      2          1           0       -3.513660   -1.161931    5.875355
      3          1           0       -4.888371   -0.606699    5.113724
      4          1           0       -3.572754    0.465093    5.426351
      5          6           0       -3.179169   -0.684944    3.818019
      6          1           0       -2.829412   -1.715375    3.728161
      7          6           0       -2.009421    0.334238    3.929324
      8          6           0       -4.171406   -0.315820    2.696793
      9          1           0       -4.941975   -1.093575    2.624943
     10          1           0       -4.647696    0.639575    2.935985
     11          8           0       -2.171153    1.281608    4.710083
     12          6           0       -3.445094   -0.097587    1.349850
     13          7           0       -3.138127   -1.222985    0.664286
     14          1           0       -2.634228   -1.150637   -0.227150
     15          1           0       -3.585477   -2.105542    0.869361
     16          8           0       -3.111467    1.034095    1.027787
     17          7           0       -0.941891    0.084738    3.178779
     18          1           0       -0.985392   -0.673221    2.501940
     19          6           0        0.091393    1.085499    2.852135
     20          1           0       -0.137108    1.973848    3.443413
     21          6           0       -0.129721    1.332176    1.351581
     22          6           0        1.520489    0.575804    3.183199
     23          1           0        1.569495    0.559738    4.281976
     24          8           0       -0.214974    0.355665    0.604811
     25          6           0        2.588050    1.562033    2.667585
     26          1           0        2.552983    1.588341    1.570581
     27          1           0        3.560535    1.129160    2.923198
     28          6           0        1.810441   -0.841729    2.665246
     29          1           0        1.807286   -0.874404    1.573265
     30          1           0        2.802507   -1.150033    3.014774
     31          1           0        1.085084   -1.572123    3.046315
     32          6           0        2.506960    2.978697    3.246774
     33          1           0        3.365801    3.577315    2.926423
     34          1           0        1.609464    3.519681    2.921850
     35          1           0        2.502597    2.961841    4.343480
     36          7           0       -0.274290    2.603988    0.934454
     37          1           0       -0.228104    3.348579    1.616619
     38          6           0       -0.789993    2.952448   -0.398967
     39          1           0       -1.816613    2.574777   -0.461256
     40          6           0        0.085806    2.266518   -1.459199
     41          6           0       -0.756830    4.468504   -0.578912
     42          1           0       -1.186376    4.739676   -1.547407
     43          1           0       -1.344868    4.965414    0.200599
     44          1           0        0.275921    4.826639   -0.547241
     45          8           0        1.255470    2.637906   -1.626969
     46          7           0       -0.503310    1.282735   -2.167109
     47          1           0       -1.386378    0.950631   -1.793354
     48          6           0        0.296460    0.200520   -2.761571
     49          1           0        1.208931    0.122736   -2.159298
     50          6           0        0.742933    0.475409   -4.209891
     51          6           0       -0.458429   -1.147742   -2.643962
     52          1           0       -1.211263   -1.212064   -3.433520
     53          8           0        0.501379   -0.315562   -5.124635
     54          6           0        0.507505   -2.323592   -2.722867
     55          1           0        1.033312   -2.339367   -3.678765
     56          1           0       -0.046384   -3.260034   -2.608630
     57          1           0        1.263201   -2.258397   -1.931922
     58          8           0       -1.192787   -1.179456   -1.404223
     59          1           0       -0.581762   -0.923313   -0.686445
     60          7           0        1.498443    1.587917   -4.363552
     61          1           0        1.723794    2.118416   -3.525764
     62          6           0        2.275300    1.860723   -5.575126
     63          1           0        1.671354    1.589564   -6.445142
     64          6           0        3.547756    0.986511   -5.520444
     65          6           0        2.648987    3.348654   -5.630290
     66          1           0        3.125874    3.630440   -4.677656
     67          1           0        1.736155    3.941447   -5.743302
     68          8           0        4.655841    1.464640   -5.249064
     69          8           0        3.478160    3.628428   -6.734747
     70          1           0        4.339207    3.226004   -6.526267
     71          7           0        3.336777   -0.338467   -5.708257
     72          1           0        2.371544   -0.649671   -5.793898
     73          6           0        4.349733   -1.325761   -5.343957
     74          1           0        4.105015   -2.276516   -5.818104
     75          1           0        5.322604   -0.975980   -5.698352
     76          6           0        4.336879   -1.532326   -3.819191
     77          8           0        3.715528   -2.447835   -3.291748
     78          7           0        5.026737   -0.577832   -3.123744
     79          1           0        5.320293    0.249529   -3.638290
     80          6           0        4.945459   -0.482355   -1.672531
     81          1           0        4.758048   -1.485901   -1.289298
     82          6           0        3.741082    0.360880   -1.256280
     83          6           0        6.258718    0.092902   -1.108690
     84          1           0        7.045775   -0.642828   -1.312955
     85          1           0        6.511863    0.999463   -1.672454
     86          8           0        2.860433   -0.016088   -0.500659
     87          6           0        6.223071    0.432043    0.388485
     88          1           0        7.229844    0.756709    0.683106
     89          1           0        5.567313    1.299602    0.550747
     90          6           0        5.760803   -0.713950    1.298579
     91          1           0        6.279828   -1.644370    1.023104
     92          1           0        4.689417   -0.894704    1.156678
     93          6           0        6.017846   -0.409509    2.776177
     94          1           0        7.106985   -0.407922    2.959439
     95          1           0        5.667648    0.606627    3.002155
     96          7           0        5.271751   -1.337267    3.640096
     97          1           0        5.519107   -1.175032    4.615630
     98          1           0        5.562663   -2.293486    3.436092
     99          8           0        3.753159    1.575662   -1.820863
    100          1           0        2.915965    2.035960   -1.568721
 ---------------------------------------------------------------------

 SCF Done:  E(RB3LYP) =  -2418.59019118     A.U. after    2 cycles

 Alpha  occ. eigenvalues --  -19.27952 -19.25445 -19.24113 -19.23520 -19.23045
 Alpha  occ. eigenvalues --  -19.22642 -19.20900 -19.19618 -19.18910 -19.18842
 Alpha  occ. eigenvalues --  -19.17482 -14.62212 -14.50732 -14.47489 -14.47487
 Alpha  occ. eigenvalues --  -14.45489 -14.43364 -14.42588 -14.41669 -14.38068
 Alpha  occ. eigenvalues --  -10.44825 -10.43124 -10.42302 -10.40115 -10.39111
 Alpha  occ. eigenvalues --  -10.38509 -10.36673 -10.36063 -10.35519 -10.34620
 Alpha  occ. eigenvalues --  -10.34583 -10.33589 -10.31814 -10.31202 -10.29583
 Alpha  occ. eigenvalues --  -10.29540 -10.28944 -10.28766 -10.28459 -10.27690
 Alpha  occ. eigenvalues --  -10.26966 -10.25913 -10.25759 -10.25312 -10.24759
 Alpha  occ. eigenvalues --  -10.23971 -10.23927 -10.23055  -1.20633  -1.16991
 Alpha  occ. eigenvalues --   -1.16019  -1.15858  -1.15252  -1.13890  -1.11615
 Alpha  occ. eigenvalues --   -1.10685  -1.10389  -1.09126  -1.07869  -1.07333
 Alpha  occ. eigenvalues --   -1.06472  -1.03661  -1.02742  -1.02003  -0.99975
 Alpha  occ. eigenvalues --   -0.98868  -0.98170  -0.95209  -0.94421  -0.90850
 Alpha  occ. eigenvalues --   -0.87854  -0.86731  -0.85390  -0.85017  -0.82929
 Alpha  occ. eigenvalues --   -0.82288  -0.81478  -0.79563  -0.78506  -0.77717
 Alpha  occ. eigenvalues --   -0.75936  -0.75818  -0.75034  -0.74496  -0.73501
 Alpha  occ. eigenvalues --   -0.71311  -0.71085  -0.70572  -0.70399  -0.69972
 Alpha  occ. eigenvalues --   -0.68972  -0.67964  -0.67290  -0.66635  -0.66056
 Alpha  occ. eigenvalues --   -0.65834  -0.65516  -0.65163  -0.64593  -0.64228
 Alpha  occ. eigenvalues --   -0.63252  -0.62873  -0.61895  -0.61153  -0.60454
 Alpha  occ. eigenvalues --   -0.59932  -0.59426  -0.59019  -0.58376  -0.57880
 Alpha  occ. eigenvalues --   -0.57152  -0.56378  -0.56154  -0.55907  -0.55531
 Alpha  occ. eigenvalues --   -0.55039  -0.54993  -0.54581  -0.54040  -0.53825
 Alpha  occ. eigenvalues --   -0.53799  -0.53385  -0.53226  -0.53184  -0.52753
 Alpha  occ. eigenvalues --   -0.52218  -0.52140  -0.51494  -0.51250  -0.51030
 Alpha  occ. eigenvalues --   -0.50479  -0.50144  -0.49604  -0.49457  -0.49142
 Alpha  occ. eigenvalues --   -0.49051  -0.48826  -0.48775  -0.48445  -0.48116
 Alpha  occ. eigenvalues --   -0.47714  -0.47320  -0.46700  -0.46192  -0.46027
 Alpha  occ. eigenvalues --   -0.45843  -0.45525  -0.45371  -0.44994  -0.44746
 Alpha  occ. eigenvalues --   -0.44597  -0.44557  -0.44025  -0.43562  -0.43409
 Alpha  occ. eigenvalues --   -0.43129  -0.42999  -0.42669  -0.42355  -0.41943
 Alpha  occ. eigenvalues --   -0.41205  -0.40603  -0.40325  -0.39913  -0.39372
 Alpha  occ. eigenvalues --   -0.39252  -0.39140  -0.38982  -0.38584  -0.38465
 Alpha  occ. eigenvalues --   -0.38027  -0.37858  -0.37048  -0.36282  -0.36079
 Alpha  occ. eigenvalues --   -0.35383  -0.35157  -0.34957  -0.33914  -0.32548
 Alpha  occ. eigenvalues --   -0.32226  -0.30989  -0.30802  -0.30235  -0.29839
 Alpha virt. eigenvalues --   -0.14191  -0.12610  -0.11667  -0.09285  -0.08820
 Alpha virt. eigenvalues --   -0.07546  -0.07344  -0.06593  -0.05299  -0.04567
 Alpha virt. eigenvalues --   -0.03840  -0.03490  -0.03228  -0.02708  -0.01480

 Mulliken charges:
               1
     1  N   -0.748609
     2  H    0.421913
     3  H    0.417902
     4  H    0.434786
     5  C   -0.123570
     6  H    0.218237
     7  C    0.658111
     8  C   -0.381464
     9  H    0.185243
    10  H    0.211474
    11  O   -0.534506
    12  C    0.587514
    13  N   -0.767861
    14  H    0.415651
    15  H    0.343793
    16  O   -0.488005
    17  N   -0.581067
    18  H    0.369077
    19  C   -0.089393
    20  H    0.185368
    21  C    0.694070
    22  C   -0.072835
    23  H    0.137149
    24  O   -0.575937
    25  C   -0.301593
    26  H    0.171310
    27  H    0.179272
    28  C   -0.515418
    29  H    0.204830
    30  H    0.214930
    31  H    0.102507
    32  C   -0.455475
    33  H    0.167935
    34  H    0.113957
    35  H    0.153757
    36  N   -0.608596
    37  H    0.351971
    38  C   -0.033436
    39  H    0.195324
    40  C    0.653757
    41  C   -0.493329
    42  H    0.185987
    43  H    0.162745
    44  H    0.193273
    45  O   -0.578362
    46  N   -0.575701
    47  H    0.354646
    48  C   -0.142882
    49  H    0.213483
    50  C    0.646269
    51  C    0.126183
    52  H    0.172086
    53  O   -0.539508
    54  C   -0.470534
    55  H    0.188160
    56  H    0.152874
    57  H    0.169929
    58  O   -0.693910
    59  H    0.443450
    60  N   -0.624015
    61  H    0.372924
    62  C   -0.079411
    63  H    0.197112
    64  C    0.622902
    65  C   -0.035982
    66  H    0.135721
    67  H    0.157389
    68  O   -0.559655
    69  O   -0.619108
    70  H    0.415730
    71  N   -0.595308
    72  H    0.381402
    73  C   -0.234490
    74  H    0.190065
    75  H    0.193760
    76  C    0.581460
    77  O   -0.507803
    78  N   -0.607569
    79  H    0.373418
    80  C   -0.033542
    81  H    0.196529
    82  C    0.608842
    83  C   -0.282524
    84  H    0.162422
    85  H    0.158701
    86  O   -0.495643
    87  C   -0.283938
    88  H    0.148103
    89  H    0.141975
    90  C   -0.280982
    91  H    0.134594
    92  H    0.174568
    93  C   -0.139163
    94  H    0.128266
    95  H    0.137347
    96  N   -0.724738
    97  H    0.301790
    98  H    0.302679
    99  O   -0.598762
   100  H    0.458004
 Sum of Mulliken charges =   1.00000

 Dipole moment (field-independent basis, Debye):
    X=            -11.4084    Y=             -2.0076    Z=             19.9795  Tot=             23.0946
 Quadrupole moment (field-independent basis, Debye-Ang):
   XX=           -182.8006   YY=           -270.4601   ZZ=           -201.8596
   XY=             10.9695   XZ=            -53.3348   YZ=            -11.3099

 Normal termination of Gaussian 16 at Mon Jun  6 03:07:32 2022.
