 Gaussian 16, Revision C.01,
 Gaussian 16:  ES64L-G16RevC.01  3-Jul-2019

 ----------------------------------------------------------------------
 # B3LYP/6-31G* empiricaldispersion=gd3 guess=read geom=check nosymm in
 tegral(ultrafinegrid)
 ----------------------------------------------------------------------

 -----------------------------------------------------
 Candidate Structure: Conf:14 Charge calc in gas phase
 -----------------------------------------------------
 Structure from the checkpoint file:  "conf-14.chk"
 Charge =  1 Multiplicity = 1

                          Input orientation:
 ---------------------------------------------------------------------
 Center     Atomic      Atomic             Coordinates (Angstroms)
 Number     Number       Type             X           Y           Z
 ---------------------------------------------------------------------
      1          7           0       -4.759357    1.232366   -2.276938
      2          1           0       -5.260279    0.341053   -2.215405
      3          1           0       -4.947626    1.656132   -3.189301
      4          1           0       -5.085682    1.859872   -1.472748
      5          6           0       -3.282104    1.113031   -1.954040
      6          1           0       -2.978369    0.071832   -2.076715
      7          6           0       -3.243744    1.548889   -0.458741
      8          6           0       -2.466804    2.047798   -2.870172
      9          1           0       -2.461065    1.645572   -3.890901
     10          1           0       -2.915973    3.045026   -2.877426
     11          8           0       -4.228375    2.176692   -0.035374
     12          6           0       -1.040996    2.220910   -2.300796
     13          7           0       -0.239229    1.139192   -2.449643
     14          1           0        0.703105    1.094130   -2.042094
     15          1           0       -0.431700    0.450364   -3.163992
     16          8           0       -0.779208    3.218791   -1.647613
     17          7           0       -2.163317    1.210229    0.223842
     18          1           0       -1.364175    0.777581   -0.243503
     19          6           0       -1.808128    1.756189    1.536190
     20          1           0       -2.427411    2.641218    1.709526
     21          6           0       -0.307754    2.088456    1.395760
     22          6           0       -2.007924    0.721968    2.690449
     23          1           0       -1.168696    0.016507    2.630921
     24          8           0        0.389154    1.379013    0.664980
     25          6           0       -3.314107   -0.077439    2.515792
     26          1           0       -3.289923   -0.583640    1.542859
     27          1           0       -4.163685    0.619350    2.485486
     28          6           0       -1.962599    1.424148    4.055905
     29          1           0       -2.867355    2.025267    4.212734
     30          1           0       -1.880014    0.688718    4.857439
     31          1           0       -1.096551    2.083737    4.157852
     32          6           0       -3.532271   -1.130406    3.608872
     33          1           0       -4.390963   -1.765653    3.366856
     34          1           0       -2.652837   -1.777213    3.712734
     35          1           0       -3.725328   -0.674567    4.584388
     36          7           0        0.188702    3.068265    2.176096
     37          1           0       -0.452497    3.668281    2.677564
     38          6           0        1.630413    3.373338    2.240330
     39          1           0        1.954740    3.772877    1.270784
     40          6           0        2.448412    2.103107    2.506897
     41          6           0        1.882919    4.417828    3.329889
     42          1           0        2.954158    4.628758    3.381794
     43          1           0        1.367335    5.355116    3.091582
     44          1           0        1.552320    4.065156    4.314038
     45          8           0        3.565897    1.955937    2.018104
     46          7           0        1.883248    1.206487    3.359524
     47          1           0        0.909407    1.302680    3.614773
     48          6           0        2.431001   -0.123787    3.572254
     49          1           0        3.512209   -0.029163    3.712493
     50          6           0        2.151452   -0.999373    2.329725
     51          6           0        1.777376   -0.744654    4.825303
     52          1           0        2.161394   -1.771340    4.919288
     53          8           0        1.193104   -1.788253    2.275214
     54          6           0        2.084725    0.030385    6.097505
     55          1           0        3.162224    0.049697    6.291380
     56          1           0        1.582083   -0.445162    6.944203
     57          1           0        1.728920    1.062393    6.019814
     58          8           0        0.357619   -0.769657    4.654443
     59          1           0        0.228060   -1.349284    3.875419
     60          7           0        3.025830   -0.848619    1.319054
     61          1           0        3.709289   -0.093182    1.343367
     62          6           0        2.946605   -1.655102    0.122929
     63          1           0        2.680361   -2.677391    0.418919
     64          6           0        4.321630   -1.623537   -0.542203
     65          6           0        1.860956   -1.182065   -0.883791
     66          1           0        0.964256   -0.952788   -0.305017
     67          1           0        1.630984   -2.013791   -1.570446
     68          8           0        5.163154   -0.779354   -0.257690
     69          8           0        2.203019   -0.009556   -1.601549
     70          1           0        2.874246   -0.217246   -2.289629
     71          7           0        4.536095   -2.539217   -1.534426
     72          1           0        3.750671   -3.076999   -1.874382
     73          6           0        5.604122   -2.243495   -2.475991
     74          1           0        6.563441   -2.255911   -1.952338
     75          1           0        5.617663   -3.019058   -3.246540
     76          6           0        5.329192   -0.883551   -3.142517
     77          8           0        4.187079   -0.612734   -3.537776
     78          7           0        6.384065   -0.060588   -3.258816
     79          1           0        7.253285   -0.313084   -2.807422
     80          6           0        6.305938    1.275651   -3.843177
     81          1           0        5.535077    1.247201   -4.617519
     82          6           0        7.610265    1.657163   -4.530042
     83          6           0        5.936960    2.380627   -2.819825
     84          1           0        6.682273    2.390646   -2.013826
     85          1           0        6.019518    3.337545   -3.349920
     86          8           0        7.697961    2.527099   -5.361965
     87          6           0        4.521801    2.210492   -2.257160
     88          1           0        3.848562    1.993452   -3.097039
     89          1           0        4.485051    1.339314   -1.597627
     90          6           0        3.988726    3.434179   -1.499695
     91          1           0        4.263277    4.356102   -2.036122
     92          1           0        4.429640    3.497102   -0.497681
     93          6           0        2.465753    3.360911   -1.378867
     94          1           0        2.041772    3.224348   -2.391190
     95          1           0        2.194487    2.473169   -0.798504
     96          7           0        1.906850    4.534982   -0.694672
     97          1           0        0.893213    4.495724   -0.791425
     98          1           0        2.209565    5.384327   -1.171593
     99          8           0        8.675552    0.964977   -4.053096
    100          1           0        9.466711    1.310010   -4.509022
 ---------------------------------------------------------------------

 SCF Done:  E(RB3LYP) =  -2418.59213889     A.U. after    3 cycles

 Alpha  occ. eigenvalues --  -19.27122 -19.27097 -19.23061 -19.22848 -19.21725
 Alpha  occ. eigenvalues --  -19.20826 -19.20461 -19.20301 -19.20120 -19.19487
 Alpha  occ. eigenvalues --  -19.18359 -14.60859 -14.49288 -14.46211 -14.46014
 Alpha  occ. eigenvalues --  -14.44904 -14.44682 -14.42828 -14.42773 -14.36347
 Alpha  occ. eigenvalues --  -10.43727 -10.42041 -10.41136 -10.39171 -10.38721
 Alpha  occ. eigenvalues --  -10.37486 -10.37242 -10.36030 -10.35511 -10.34971
 Alpha  occ. eigenvalues --  -10.34014 -10.31978 -10.31566 -10.31320 -10.31103
 Alpha  occ. eigenvalues --  -10.30538 -10.29968 -10.29752 -10.28515 -10.26665
 Alpha  occ. eigenvalues --  -10.25851 -10.25600 -10.25184 -10.24885 -10.24806
 Alpha  occ. eigenvalues --  -10.23624 -10.23056 -10.22620  -1.19670  -1.17714
 Alpha  occ. eigenvalues --   -1.14910  -1.14564  -1.13736  -1.13127  -1.11599
 Alpha  occ. eigenvalues --   -1.11212  -1.10021  -1.09842  -1.08732  -1.07676
 Alpha  occ. eigenvalues --   -1.06237  -1.02176  -1.01651  -1.01094  -1.00997
 Alpha  occ. eigenvalues --   -0.99824  -0.98908  -0.94149  -0.92881  -0.90401
 Alpha  occ. eigenvalues --   -0.86940  -0.86236  -0.85092  -0.84103  -0.83153
 Alpha  occ. eigenvalues --   -0.82105  -0.81794  -0.79600  -0.79152  -0.77509
 Alpha  occ. eigenvalues --   -0.75118  -0.74790  -0.74570  -0.73524  -0.72833
 Alpha  occ. eigenvalues --   -0.72574  -0.71263  -0.70281  -0.69147  -0.68907
 Alpha  occ. eigenvalues --   -0.68548  -0.67015  -0.66658  -0.66327  -0.66021
 Alpha  occ. eigenvalues --   -0.65773  -0.65200  -0.64875  -0.64386  -0.63665
 Alpha  occ. eigenvalues --   -0.63132  -0.62424  -0.60975  -0.60324  -0.59755
 Alpha  occ. eigenvalues --   -0.59516  -0.59100  -0.59059  -0.58144  -0.57865
 Alpha  occ. eigenvalues --   -0.57108  -0.56840  -0.56179  -0.55277  -0.55135
 Alpha  occ. eigenvalues --   -0.54812  -0.54611  -0.54046  -0.53924  -0.53689
 Alpha  occ. eigenvalues --   -0.53444  -0.53167  -0.52782  -0.52544  -0.52248
 Alpha  occ. eigenvalues --   -0.51855  -0.51750  -0.51337  -0.50867  -0.50605
 Alpha  occ. eigenvalues --   -0.50543  -0.49908  -0.49703  -0.49449  -0.49267
 Alpha  occ. eigenvalues --   -0.48997  -0.48583  -0.48241  -0.48010  -0.47574
 Alpha  occ. eigenvalues --   -0.47350  -0.46904  -0.46583  -0.46450  -0.46317
 Alpha  occ. eigenvalues --   -0.46184  -0.45924  -0.45665  -0.45158  -0.44545
 Alpha  occ. eigenvalues --   -0.44428  -0.44210  -0.44108  -0.43727  -0.43081
 Alpha  occ. eigenvalues --   -0.42685  -0.42579  -0.42167  -0.41925  -0.41503
 Alpha  occ. eigenvalues --   -0.40880  -0.40797  -0.40695  -0.39856  -0.39483
 Alpha  occ. eigenvalues --   -0.38917  -0.38750  -0.38055  -0.38004  -0.37827
 Alpha  occ. eigenvalues --   -0.36912  -0.36299  -0.35749  -0.35617  -0.35516
 Alpha  occ. eigenvalues --   -0.35249  -0.34979  -0.34264  -0.33933  -0.33655
 Alpha  occ. eigenvalues --   -0.32355  -0.32248  -0.31767  -0.30845  -0.28661
 Alpha virt. eigenvalues --   -0.12847  -0.11852  -0.10501  -0.07731  -0.07458
 Alpha virt. eigenvalues --   -0.06724  -0.06478  -0.05958  -0.05516  -0.04335
 Alpha virt. eigenvalues --   -0.04169  -0.02580  -0.01904  -0.01508  -0.01321

 Mulliken charges:
               1
     1  N   -0.755310
     2  H    0.417484
     3  H    0.415400
     4  H    0.436062
     5  C   -0.118243
     6  H    0.215566
     7  C    0.653507
     8  C   -0.379378
     9  H    0.184533
    10  H    0.207667
    11  O   -0.545167
    12  C    0.588353
    13  N   -0.786522
    14  H    0.456169
    15  H    0.334298
    16  O   -0.480992
    17  N   -0.588960
    18  H    0.388721
    19  C   -0.066269
    20  H    0.181006
    21  C    0.644885
    22  C   -0.095609
    23  H    0.156646
    24  O   -0.543371
    25  C   -0.256882
    26  H    0.114471
    27  H    0.145568
    28  C   -0.472651
    29  H    0.147916
    30  H    0.203323
    31  H    0.129033
    32  C   -0.452550
    33  H    0.149947
    34  H    0.160169
    35  H    0.164587
    36  N   -0.639230
    37  H    0.344296
    38  C   -0.053901
    39  H    0.275522
    40  C    0.635334
    41  C   -0.492126
    42  H    0.197686
    43  H    0.165462
    44  H    0.155498
    45  O   -0.542015
    46  N   -0.609779
    47  H    0.361819
    48  C   -0.069639
    49  H    0.181441
    50  C    0.651153
    51  C    0.105863
    52  H    0.142313
    53  O   -0.585172
    54  C   -0.448942
    55  H    0.154595
    56  H    0.170879
    57  H    0.149786
    58  O   -0.663473
    59  H    0.431011
    60  N   -0.603945
    61  H    0.396498
    62  C   -0.060469
    63  H    0.180524
    64  C    0.597357
    65  C   -0.052531
    66  H    0.184083
    67  H    0.112374
    68  O   -0.507461
    69  O   -0.664639
    70  H    0.460908
    71  N   -0.571299
    72  H    0.338695
    73  C   -0.235190
    74  H    0.190946
    75  H    0.191825
    76  C    0.647116
    77  O   -0.574078
    78  N   -0.581746
    79  H    0.360948
    80  C   -0.059774
    81  H    0.201606
    82  C    0.590375
    83  C   -0.267248
    84  H    0.154372
    85  H    0.166676
    86  O   -0.446442
    87  C   -0.282148
    88  H    0.128962
    89  H    0.174420
    90  C   -0.264212
    91  H    0.117353
    92  H    0.167330
    93  C   -0.155402
    94  H    0.098069
    95  H    0.186632
    96  N   -0.756444
    97  H    0.324226
    98  H    0.295256
    99  O   -0.581321
   100  H    0.426001
 Sum of Mulliken charges =   1.00000

 Dipole moment (field-independent basis, Debye):
    X=             -8.5968    Y=              1.2123    Z=             -9.1272  Tot=             12.5969
 Quadrupole moment (field-independent basis, Debye-Ang):
   XX=           -157.5293   YY=           -260.8446   ZZ=           -234.4738
   XY=            -31.3372   XZ=             23.3304   YZ=             14.2714

 Normal termination of Gaussian 16 at Mon Jun  6 03:06:51 2022.
