 Gaussian 16, Revision C.01,
 Gaussian 16:  ES64L-G16RevC.01  3-Jul-2019

 ----------------------------------------------------------------------
 # B3LYP/6-31G* empiricaldispersion=gd3 guess=read geom=check nosymm in
 tegral(ultrafinegrid)
 ----------------------------------------------------------------------

 -----------------------------------------------------
 Candidate Structure: Conf:34 Charge calc in gas phase
 -----------------------------------------------------
 Structure from the checkpoint file:  "conf-34.chk"
 Charge =  1 Multiplicity = 1

                          Input orientation:
 ---------------------------------------------------------------------
 Center     Atomic      Atomic             Coordinates (Angstroms)
 Number     Number       Type             X           Y           Z
 ---------------------------------------------------------------------
      1          7           0       -7.291566    0.320344    4.338391
      2          1           0       -7.803160    0.775216    5.098905
      3          1           0       -7.387464   -0.740413    4.395885
      4          1           0       -7.627184    0.726334    3.449480
      5          6           0       -5.810577    0.578621    4.404164
      6          1           0       -5.514081    0.554078    5.456312
      7          6           0       -5.560362    1.936568    3.719320
      8          6           0       -5.081560   -0.506622    3.593328
      9          1           0       -5.271755   -0.342951    2.525300
     10          1           0       -4.007411   -0.369402    3.710825
     11          8           0       -6.383989    2.343684    2.907150
     12          6           0       -5.492145   -1.931652    3.949486
     13          7           0       -4.586317   -2.866770    3.651934
     14          1           0       -4.835664   -3.840159    3.774955
     15          1           0       -3.680869   -2.613214    3.243035
     16          8           0       -6.619911   -2.177025    4.420763
     17          7           0       -4.381924    2.531045    4.015270
     18          1           0       -3.760837    2.006294    4.621320
     19          6           0       -3.672491    3.336407    3.015382
     20          1           0       -4.334633    4.143282    2.688084
     21          6           0       -3.373555    2.395861    1.817833
     22          6           0       -2.397657    3.932240    3.684306
     23          1           0       -1.865488    3.081429    4.140789
     24          8           0       -3.461161    1.170187    1.944096
     25          6           0       -2.806529    4.906991    4.810979
     26          1           0       -3.622231    4.467763    5.397014
     27          1           0       -3.217628    5.816051    4.350082
     28          6           0       -1.435323    4.595490    2.686756
     29          1           0       -1.928630    5.421207    2.154945
     30          1           0       -0.590007    5.032576    3.223610
     31          1           0       -1.030631    3.879391    1.965451
     32          6           0       -1.659246    5.272650    5.758310
     33          1           0       -2.018084    5.923677    6.561611
     34          1           0       -1.230188    4.376099    6.221881
     35          1           0       -0.850075    5.801741    5.245182
     36          7           0       -3.009085    2.961432    0.651097
     37          1           0       -2.854509    3.959099    0.618899
     38          6           0       -2.431101    2.136963   -0.412030
     39          1           0       -3.239604    1.563930   -0.879841
     40          6           0       -1.414491    1.168598    0.236667
     41          6           0       -1.738630    3.022565   -1.447673
     42          1           0       -1.346678    2.411490   -2.265260
     43          1           0       -2.441214    3.746554   -1.872336
     44          1           0       -0.901766    3.555288   -0.986331
     45          8           0       -0.591681    1.565319    1.048929
     46          7           0       -1.548759   -0.138388   -0.132880
     47          1           0       -2.114659   -0.390643   -0.935393
     48          6           0       -0.702286   -1.196603    0.387891
     49          1           0        0.083617   -0.724014    0.982253
     50          6           0       -0.135471   -1.979756   -0.798194
     51          6           0       -1.532387   -2.147477    1.301624
     52          1           0       -2.261278   -2.663635    0.655081
     53          8           0       -0.840454   -2.123888   -1.815058
     54          6           0       -0.668214   -3.170180    2.028571
     55          1           0       -0.126462   -3.808021    1.324856
     56          1           0       -1.293103   -3.815900    2.653390
     57          1           0        0.055291   -2.662307    2.674091
     58          8           0       -2.231176   -1.395494    2.297170
     59          1           0       -2.581569   -0.578624    1.885136
     60          7           0        1.082494   -2.484447   -0.662147
     61          1           0        1.650483   -2.297787    0.165470
     62          6           0        1.653888   -3.560190   -1.481217
     63          1           0        0.945568   -4.394852   -1.572568
     64          6           0        2.868460   -4.025627   -0.649061
     65          6           0        1.966191   -3.108628   -2.927708
     66          1           0        2.720433   -3.764485   -3.378144
     67          1           0        2.406943   -2.099226   -2.864257
     68          8           0        3.169610   -3.446622    0.397913
     69          8           0        0.830746   -3.194368   -3.752650
     70          1           0        0.024260   -3.090736   -3.202895
     71          7           0        3.530990   -5.093240   -1.123327
     72          1           0        3.288593   -5.546126   -2.000448
     73          6           0        4.719178   -5.619521   -0.487690
     74          1           0        5.431670   -4.812628   -0.284039
     75          1           0        4.476620   -6.084614    0.476637
     76          6           0        5.326558   -6.659722   -1.437856
     77          8           0        4.759491   -6.962530   -2.484567
     78          7           0        6.498780   -7.191641   -1.026274
     79          1           0        6.890292   -6.917541   -0.135683
     80          6           0        7.195269   -8.225821   -1.779987
     81          1           0        6.465247   -8.676554   -2.457012
     82          6           0        7.713370   -9.338430   -0.879784
     83          6           0        8.372375   -7.669281   -2.611469
     84          1           0        9.101900   -7.211013   -1.929924
     85          1           0        8.869872   -8.522974   -3.083880
     86          8           0        8.023369  -10.431643   -1.283460
     87          6           0        7.937104   -6.656430   -3.673212
     88          1           0        7.191197   -7.118280   -4.332779
     89          1           0        7.432306   -5.811331   -3.190190
     90          6           0        9.119387   -6.136636   -4.494542
     91          1           0        9.632299   -6.982722   -4.973584
     92          1           0        9.857860   -5.658258   -3.839142
     93          6           0        8.699657   -5.131493   -5.567951
     94          1           0        7.949151   -5.603419   -6.229157
     95          1           0        8.198184   -4.282460   -5.086915
     96          7           0        9.877409   -4.613364   -6.269159
     97          1           0        9.593654   -3.917164   -6.955824
     98          1           0       10.314621   -5.364997   -6.799502
     99          8           0        7.843941   -8.956963    0.416513
    100          1           0        8.220231   -9.719266    0.894822
 ---------------------------------------------------------------------

 SCF Done:  E(RB3LYP) =  -2418.57241637     A.U. after    1 cycles

 Alpha  occ. eigenvalues --  -19.26369 -19.25918 -19.25433 -19.24269 -19.23650
 Alpha  occ. eigenvalues --  -19.20837 -19.20618 -19.19998 -19.19978 -19.19166
 Alpha  occ. eigenvalues --  -19.18272 -14.57183 -14.49060 -14.47779 -14.47348
 Alpha  occ. eigenvalues --  -14.45314 -14.44356 -14.43842 -14.43462 -14.34578
 Alpha  occ. eigenvalues --  -10.42872 -10.42541 -10.40351 -10.40014 -10.38294
 Alpha  occ. eigenvalues --  -10.38205 -10.37591 -10.37024 -10.36549 -10.35087
 Alpha  occ. eigenvalues --  -10.33778 -10.33641 -10.33383 -10.32249 -10.31524
 Alpha  occ. eigenvalues --  -10.30681 -10.30264 -10.30073 -10.29800 -10.28056
 Alpha  occ. eigenvalues --  -10.27407 -10.26617 -10.26561 -10.25653 -10.24525
 Alpha  occ. eigenvalues --  -10.24340 -10.22963 -10.22005  -1.18325  -1.16978
 Alpha  occ. eigenvalues --   -1.16817  -1.15754  -1.13149  -1.12489  -1.11883
 Alpha  occ. eigenvalues --   -1.11755  -1.11287  -1.11007  -1.07954  -1.06223
 Alpha  occ. eigenvalues --   -1.05949  -1.03739  -1.03191  -1.01542  -1.01072
 Alpha  occ. eigenvalues --   -1.00339  -0.99983  -0.93310  -0.91426  -0.90995
 Alpha  occ. eigenvalues --   -0.88430  -0.86666  -0.86221  -0.84301  -0.84091
 Alpha  occ. eigenvalues --   -0.81742  -0.81635  -0.80182  -0.79548  -0.78491
 Alpha  occ. eigenvalues --   -0.75325  -0.74226  -0.73368  -0.73261  -0.72465
 Alpha  occ. eigenvalues --   -0.72219  -0.71321  -0.70347  -0.69841  -0.69072
 Alpha  occ. eigenvalues --   -0.68236  -0.68145  -0.67788  -0.66724  -0.66316
 Alpha  occ. eigenvalues --   -0.65912  -0.65763  -0.65560  -0.64630  -0.63555
 Alpha  occ. eigenvalues --   -0.62740  -0.62629  -0.62455  -0.61517  -0.60303
 Alpha  occ. eigenvalues --   -0.60257  -0.59635  -0.58967  -0.58223  -0.57326
 Alpha  occ. eigenvalues --   -0.57046  -0.56638  -0.56392  -0.56144  -0.55742
 Alpha  occ. eigenvalues --   -0.55212  -0.55093  -0.54568  -0.54075  -0.53933
 Alpha  occ. eigenvalues --   -0.53756  -0.53213  -0.53083  -0.52612  -0.52576
 Alpha  occ. eigenvalues --   -0.52220  -0.51941  -0.51483  -0.51126  -0.50727
 Alpha  occ. eigenvalues --   -0.50667  -0.50627  -0.50183  -0.50105  -0.49566
 Alpha  occ. eigenvalues --   -0.48920  -0.48889  -0.48645  -0.48613  -0.48098
 Alpha  occ. eigenvalues --   -0.47913  -0.47551  -0.47351  -0.47280  -0.47021
 Alpha  occ. eigenvalues --   -0.46773  -0.46532  -0.46495  -0.46309  -0.45832
 Alpha  occ. eigenvalues --   -0.45475  -0.45319  -0.45050  -0.44807  -0.44367
 Alpha  occ. eigenvalues --   -0.43125  -0.42850  -0.42372  -0.42264  -0.41961
 Alpha  occ. eigenvalues --   -0.41533  -0.40364  -0.40202  -0.39664  -0.39642
 Alpha  occ. eigenvalues --   -0.39493  -0.38902  -0.38778  -0.38080  -0.37786
 Alpha  occ. eigenvalues --   -0.37587  -0.37550  -0.37067  -0.37060  -0.35520
 Alpha  occ. eigenvalues --   -0.35027  -0.34692  -0.34439  -0.34323  -0.33684
 Alpha  occ. eigenvalues --   -0.33151  -0.33065  -0.31457  -0.31234  -0.26837
 Alpha virt. eigenvalues --   -0.12249  -0.10757  -0.09635  -0.08190  -0.07332
 Alpha virt. eigenvalues --   -0.06881  -0.05704  -0.05267  -0.05133  -0.04330
 Alpha virt. eigenvalues --   -0.02468  -0.02127  -0.01625  -0.00526   0.00048

 Mulliken charges:
               1
     1  N   -0.750435
     2  H    0.406330
     3  H    0.446054
     4  H    0.411178
     5  C   -0.140277
     6  H    0.208774
     7  C    0.651119
     8  C   -0.398512
     9  H    0.228676
    10  H    0.225693
    11  O   -0.511304
    12  C    0.637202
    13  N   -0.754638
    14  H    0.366739
    15  H    0.406504
    16  O   -0.555720
    17  N   -0.580426
    18  H    0.343655
    19  C   -0.085586
    20  H    0.195677
    21  C    0.662962
    22  C   -0.093674
    23  H    0.139887
    24  O   -0.570158
    25  C   -0.259661
    26  H    0.143017
    27  H    0.148153
    28  C   -0.511227
    29  H    0.138928
    30  H    0.179604
    31  H    0.199627
    32  C   -0.453678
    33  H    0.165259
    34  H    0.147213
    35  H    0.163146
    36  N   -0.594555
    37  H    0.351289
    38  C   -0.018479
    39  H    0.167185
    40  C    0.622875
    41  C   -0.495283
    42  H    0.189277
    43  H    0.174657
    44  H    0.187509
    45  O   -0.513415
    46  N   -0.627596
    47  H    0.353484
    48  C   -0.083921
    49  H    0.196036
    50  C    0.631070
    51  C    0.146694
    52  H    0.132382
    53  O   -0.565421
    54  C   -0.464326
    55  H    0.167474
    56  H    0.150012
    57  H    0.173642
    58  O   -0.697156
    59  H    0.462187
    60  N   -0.607214
    61  H    0.372778
    62  C   -0.109173
    63  H    0.183791
    64  C    0.619859
    65  C    0.017851
    66  H    0.149040
    67  H    0.137513
    68  O   -0.542475
    69  O   -0.643034
    70  H    0.424332
    71  N   -0.625606
    72  H    0.370267
    73  C   -0.198677
    74  H    0.197626
    75  H    0.193445
    76  C    0.613665
    77  O   -0.522728
    78  N   -0.609490
    79  H    0.350082
    80  C   -0.061013
    81  H    0.213548
    82  C    0.590324
    83  C   -0.266471
    84  H    0.141243
    85  H    0.173412
    86  O   -0.444491
    87  C   -0.261868
    88  H    0.152728
    89  H    0.132509
    90  C   -0.252145
    91  H    0.131232
    92  H    0.148648
    93  C   -0.132694
    94  H    0.116011
    95  H    0.134441
    96  N   -0.716130
    97  H    0.298567
    98  H    0.295162
    99  O   -0.583831
   100  H    0.423247
 Sum of Mulliken charges =   1.00000

 Dipole moment (field-independent basis, Debye):
    X=            -14.9617    Y=             -0.1900    Z=             15.9447  Tot=             21.8660
 Quadrupole moment (field-independent basis, Debye-Ang):
   XX=           -125.5644   YY=           -218.8209   ZZ=           -208.1605
   XY=            -56.9442   XZ=            -86.7915   YZ=             -1.8576

 Normal termination of Gaussian 16 at Mon Jun  6 03:05:43 2022.
