 Gaussian 16, Revision C.01,
 Gaussian 16:  ES64L-G16RevC.01  3-Jul-2019

 ----------------------------------------------------------------------
 # B3LYP/6-31G* empiricaldispersion=gd3 guess=read geom=check nosymm in
 tegral(ultrafinegrid)
 ----------------------------------------------------------------------

 ------------------------------------------------------
 Candidate Structure: Conf:746 Charge calc in gas phase
 ------------------------------------------------------
 Structure from the checkpoint file:  "conf-746.chk"
 Charge =  1 Multiplicity = 1

                          Input orientation:
 ---------------------------------------------------------------------
 Center     Atomic      Atomic             Coordinates (Angstroms)
 Number     Number       Type             X           Y           Z
 ---------------------------------------------------------------------
      1          7           0       -7.455337    1.836150    5.693174
      2          1           0       -7.349489    1.715660    6.703626
      3          1           0       -8.452909    1.837441    5.467085
      4          1           0       -6.990496    2.764581    5.377919
      5          6           0       -6.640971    0.849266    4.884775
      6          1           0       -6.143532    0.157858    5.566882
      7          6           0       -5.587245    1.785528    4.207807
      8          6           0       -7.522423    0.060430    3.905213
      9          1           0       -8.443262   -0.266037    4.407266
     10          1           0       -7.815590    0.684680    3.052196
     11          8           0       -5.731609    3.009614    4.398753
     12          6           0       -6.775065   -1.193666    3.415117
     13          7           0       -7.459057   -1.986236    2.567269
     14          1           0       -7.000477   -2.817253    2.214909
     15          1           0       -8.397497   -1.786030    2.252332
     16          8           0       -5.634793   -1.437425    3.801914
     17          7           0       -4.641944    1.210617    3.489197
     18          1           0       -4.607971    0.190184    3.441652
     19          6           0       -3.556425    1.949126    2.829758
     20          1           0       -3.898201    2.979699    2.715283
     21          6           0       -3.374430    1.282090    1.460276
     22          6           0       -2.262866    1.936282    3.706506
     23          1           0       -2.511330    2.587411    4.558332
     24          8           0       -3.238135    0.058997    1.375261
     25          6           0       -1.048744    2.542950    2.973566
     26          1           0       -0.789938    1.914974    2.114243
     27          1           0       -0.196109    2.462830    3.659338
     28          6           0       -1.915453    0.542697    4.255089
     29          1           0       -1.619020   -0.146173    3.462214
     30          1           0       -1.070216    0.633098    4.945080
     31          1           0       -2.743899    0.095142    4.815998
     32          6           0       -1.182620    4.006126    2.542986
     33          1           0       -0.233382    4.356776    2.126537
     34          1           0       -1.936070    4.150543    1.760229
     35          1           0       -1.448426    4.650284    3.390403
     36          7           0       -3.418370    2.106697    0.384140
     37          1           0       -3.295986    3.097026    0.559770
     38          6           0       -2.935890    1.654816   -0.928815
     39          1           0       -3.398720    0.684062   -1.124540
     40          6           0       -1.407145    1.526528   -0.786616
     41          6           0       -3.305748    2.673958   -2.003782
     42          1           0       -2.980941    2.319197   -2.986532
     43          1           0       -4.387754    2.834980   -2.031293
     44          1           0       -2.801537    3.625974   -1.806413
     45          8           0       -0.779091    2.485402   -0.338250
     46          7           0       -0.873518    0.324111   -1.082909
     47          1           0       -1.404839   -0.365791   -1.600729
     48          6           0        0.492604   -0.039615   -0.749148
     49          1           0        0.986740    0.866664   -0.394642
     50          6           0        1.163960   -0.587611   -2.014941
     51          6           0        0.473586   -1.068247    0.419858
     52          1           0        0.067159   -2.015544    0.028732
     53          8           0        0.508857   -1.181205   -2.869509
     54          6           0        1.861571   -1.301228    1.000983
     55          1           0        2.545216   -1.720242    0.257955
     56          1           0        1.793025   -1.991200    1.846202
     57          1           0        2.275869   -0.354564    1.368597
     58          8           0       -0.340057   -0.576563    1.475467
     59          1           0       -1.266909   -0.538631    1.178357
     60          7           0        2.494149   -0.364851   -2.084874
     61          1           0        2.981627    0.125031   -1.341408
     62          6           0        3.322459   -0.663895   -3.233708
     63          1           0        3.116581   -1.672674   -3.605872
     64          6           0        4.772228   -0.521075   -2.777412
     65          6           0        3.024843    0.363673   -4.378001
     66          1           0        3.095690    1.371342   -3.947350
     67          1           0        1.992786    0.189634   -4.695023
     68          8           0        5.060544   -0.012121   -1.692699
     69          8           0        3.874635    0.216097   -5.497719
     70          1           0        4.624975    0.833968   -5.359099
     71          7           0        5.717309   -0.892224   -3.688752
     72          1           0        5.354720   -1.027302   -4.629222
     73          6           0        7.006671   -0.222855   -3.590634
     74          1           0        7.496277   -0.507274   -2.656043
     75          1           0        7.633818   -0.549645   -4.424851
     76          6           0        6.798032    1.303095   -3.678028
     77          8           0        5.974656    1.785193   -4.463520
     78          7           0        7.549587    2.049722   -2.845112
     79          1           0        8.133344    1.583938   -2.163374
     80          6           0        7.386554    3.492317   -2.694430
     81          1           0        6.914640    3.864731   -3.605795
     82          6           0        8.727252    4.199584   -2.555670
     83          6           0        6.504254    3.844696   -1.469214
     84          1           0        6.934216    3.349820   -0.586973
     85          1           0        6.576547    4.925133   -1.296361
     86          8           0        8.902266    5.368490   -2.800857
     87          6           0        5.037895    3.431903   -1.643457
     88          1           0        4.578373    4.063741   -2.416328
     89          1           0        4.987449    2.402258   -2.008040
     90          6           0        4.236383    3.519495   -0.339043
     91          1           0        4.333647    4.510011    0.123670
     92          1           0        4.654678    2.796912    0.378234
     93          6           0        2.752496    3.209943   -0.551552
     94          1           0        2.293063    4.013392   -1.141096
     95          1           0        2.671058    2.299396   -1.176578
     96          7           0        2.027365    3.122714    0.720212
     97          1           0        2.389333    2.347448    1.275436
     98          1           0        1.045913    2.923395    0.532599
     99          8           0        9.689386    3.389130   -2.045116
    100          1           0       10.492119    3.935136   -1.944099
 ---------------------------------------------------------------------

 SCF Done:  E(RB3LYP) =  -2418.57523359     A.U. after    3 cycles

 Alpha  occ. eigenvalues --  -19.27525 -19.25746 -19.25658 -19.22117 -19.20517
 Alpha  occ. eigenvalues --  -19.19480 -19.19440 -19.19054 -19.19020 -19.18707
 Alpha  occ. eigenvalues --  -19.17829 -14.60455 -14.49580 -14.49494 -14.46128
 Alpha  occ. eigenvalues --  -14.44089 -14.43076 -14.42259 -14.42139 -14.34732
 Alpha  occ. eigenvalues --  -10.44035 -10.43916 -10.41919 -10.39112 -10.37704
 Alpha  occ. eigenvalues --  -10.36840 -10.36741 -10.35847 -10.35362 -10.35135
 Alpha  occ. eigenvalues --  -10.33804 -10.32294 -10.30697 -10.29737 -10.29613
 Alpha  occ. eigenvalues --  -10.29549 -10.29245 -10.28641 -10.27976 -10.26700
 Alpha  occ. eigenvalues --  -10.24700 -10.24527 -10.24376 -10.24324 -10.23697
 Alpha  occ. eigenvalues --  -10.23591 -10.22404 -10.22092  -1.20020  -1.17670
 Alpha  occ. eigenvalues --   -1.16265  -1.14377  -1.13937  -1.11623  -1.11335
 Alpha  occ. eigenvalues --   -1.10094  -1.09553  -1.08111  -1.07288  -1.06532
 Alpha  occ. eigenvalues --   -1.06454  -1.04502  -1.02358  -1.00187  -0.99507
 Alpha  occ. eigenvalues --   -0.99101  -0.98660  -0.94921  -0.91579  -0.89952
 Alpha  occ. eigenvalues --   -0.86624  -0.85631  -0.84913  -0.84531  -0.82303
 Alpha  occ. eigenvalues --   -0.81520  -0.80879  -0.78947  -0.78199  -0.77171
 Alpha  occ. eigenvalues --   -0.75292  -0.74667  -0.73957  -0.73513  -0.72868
 Alpha  occ. eigenvalues --   -0.71266  -0.70682  -0.69402  -0.69206  -0.67753
 Alpha  occ. eigenvalues --   -0.67634  -0.67107  -0.66779  -0.66508  -0.66004
 Alpha  occ. eigenvalues --   -0.65586  -0.65071  -0.64632  -0.64513  -0.63409
 Alpha  occ. eigenvalues --   -0.62769  -0.62588  -0.61206  -0.60226  -0.59810
 Alpha  occ. eigenvalues --   -0.59244  -0.58663  -0.58287  -0.57596  -0.57438
 Alpha  occ. eigenvalues --   -0.57289  -0.56104  -0.56060  -0.55975  -0.55222
 Alpha  occ. eigenvalues --   -0.54869  -0.54407  -0.53853  -0.53316  -0.53065
 Alpha  occ. eigenvalues --   -0.52720  -0.52413  -0.52175  -0.51771  -0.51218
 Alpha  occ. eigenvalues --   -0.50979  -0.50947  -0.50782  -0.50397  -0.50314
 Alpha  occ. eigenvalues --   -0.49755  -0.49645  -0.49338  -0.48824  -0.48549
 Alpha  occ. eigenvalues --   -0.48168  -0.47619  -0.47609  -0.47409  -0.47306
 Alpha  occ. eigenvalues --   -0.46762  -0.46366  -0.45914  -0.45823  -0.45602
 Alpha  occ. eigenvalues --   -0.45166  -0.45151  -0.44895  -0.44616  -0.44247
 Alpha  occ. eigenvalues --   -0.43975  -0.43823  -0.43215  -0.42989  -0.42613
 Alpha  occ. eigenvalues --   -0.42570  -0.42280  -0.41443  -0.41268  -0.40571
 Alpha  occ. eigenvalues --   -0.40341  -0.39997  -0.39891  -0.39555  -0.38894
 Alpha  occ. eigenvalues --   -0.38564  -0.38331  -0.38168  -0.37690  -0.37158
 Alpha  occ. eigenvalues --   -0.36878  -0.36741  -0.35239  -0.34931  -0.34412
 Alpha  occ. eigenvalues --   -0.34306  -0.33881  -0.33552  -0.33094  -0.32628
 Alpha  occ. eigenvalues --   -0.31890  -0.31149  -0.30726  -0.30053  -0.27168
 Alpha virt. eigenvalues --   -0.12759  -0.12121  -0.11697  -0.08929  -0.07429
 Alpha virt. eigenvalues --   -0.05879  -0.05671  -0.05243  -0.04791  -0.04336
 Alpha virt. eigenvalues --   -0.03907  -0.03783  -0.02334  -0.01554  -0.00770

 Mulliken charges:
               1
     1  N   -0.773378
     2  H    0.418848
     3  H    0.409436
     4  H    0.441771
     5  C   -0.092710
     6  H    0.246927
     7  C    0.630051
     8  C   -0.411365
     9  H    0.196598
    10  H    0.213775
    11  O   -0.550089
    12  C    0.638715
    13  N   -0.738130
    14  H    0.381533
    15  H    0.362580
    16  O   -0.499541
    17  N   -0.608250
    18  H    0.417955
    19  C   -0.071778
    20  H    0.185306
    21  C    0.628984
    22  C   -0.081507
    23  H    0.136196
    24  O   -0.551965
    25  C   -0.286709
    26  H    0.179636
    27  H    0.153115
    28  C   -0.474552
    29  H    0.202506
    30  H    0.160981
    31  H    0.118414
    32  C   -0.458343
    33  H    0.196556
    34  H    0.113005
    35  H    0.139515
    36  N   -0.582370
    37  H    0.356367
    38  C   -0.057636
    39  H    0.169637
    40  C    0.627854
    41  C   -0.474530
    42  H    0.181933
    43  H    0.166021
    44  H    0.181431
    45  O   -0.530151
    46  N   -0.600544
    47  H    0.350227
    48  C   -0.089172
    49  H    0.177160
    50  C    0.638450
    51  C    0.135395
    52  H    0.131922
    53  O   -0.542804
    54  C   -0.469153
    55  H    0.166004
    56  H    0.171894
    57  H    0.152056
    58  O   -0.646501
    59  H    0.431930
    60  N   -0.628602
    61  H    0.368710
    62  C   -0.065887
    63  H    0.192507
    64  C    0.596202
    65  C   -0.049326
    66  H    0.152215
    67  H    0.180219
    68  O   -0.537126
    69  O   -0.647889
    70  H    0.437822
    71  N   -0.570381
    72  H    0.354122
    73  C   -0.245322
    74  H    0.185362
    75  H    0.195750
    76  C    0.641976
    77  O   -0.553578
    78  N   -0.580074
    79  H    0.351844
    80  C   -0.067042
    81  H    0.212297
    82  C    0.591359
    83  C   -0.268619
    84  H    0.142041
    85  H    0.170164
    86  O   -0.447178
    87  C   -0.282530
    88  H    0.139950
    89  H    0.170113
    90  C   -0.251512
    91  H    0.146952
    92  H    0.127782
    93  C   -0.138124
    94  H    0.145396
    95  H    0.093701
    96  N   -0.771575
    97  H    0.286558
    98  H    0.360146
    99  O   -0.580208
   100  H    0.422276
 Sum of Mulliken charges =   1.00000

 Dipole moment (field-independent basis, Debye):
    X=            -27.3641    Y=              2.3757    Z=             17.8556  Tot=             32.7607
 Quadrupole moment (field-independent basis, Debye-Ang):
   XX=             60.1099   YY=           -286.8597   ZZ=           -188.6296
   XY=            -28.5508   XZ=           -157.5445   YZ=             26.9072

 Normal termination of Gaussian 16 at Mon Jun  6 03:55:38 2022.
