 Gaussian 16, Revision C.01,
 Gaussian 16:  ES64L-G16RevC.01  3-Jul-2019

 ----------------------------------------------------------------------
 # B3LYP/6-31G* empiricaldispersion=gd3 guess=read geom=check nosymm in
 tegral(ultrafinegrid)
 ----------------------------------------------------------------------

 ------------------------------------------------------
 Candidate Structure: Conf:305 Charge calc in gas phase
 ------------------------------------------------------
 Structure from the checkpoint file:  "conf-305.chk"
 Charge =  1 Multiplicity = 1

                          Input orientation:
 ---------------------------------------------------------------------
 Center     Atomic      Atomic             Coordinates (Angstroms)
 Number     Number       Type             X           Y           Z
 ---------------------------------------------------------------------
      1          7           0       -7.372686    3.372874    5.544831
      2          1           0       -6.934307    3.590463    6.444051
      3          1           0       -8.286996    2.859460    5.697435
      4          1           0       -7.459988    4.263779    5.019149
      5          6           0       -6.510714    2.477088    4.696530
      6          1           0       -5.958392    1.809448    5.362541
      7          6           0       -5.582842    3.426481    3.902386
      8          6           0       -7.394238    1.669512    3.723091
      9          1           0       -7.869893    2.361982    3.015545
     10          1           0       -6.745886    1.012306    3.135505
     11          8           0       -5.916764    4.606734    3.791427
     12          6           0       -8.509239    0.904374    4.441561
     13          7           0       -8.821860   -0.310607    3.969580
     14          1           0       -9.596535   -0.809895    4.391006
     15          1           0       -8.347424   -0.736353    3.185890
     16          8           0       -9.103393    1.420772    5.400206
     17          7           0       -4.507802    2.845492    3.363680
     18          1           0       -4.396395    1.834364    3.404727
     19          6           0       -3.664295    3.451934    2.331407
     20          1           0       -4.149878    4.374979    1.998955
     21          6           0       -3.630328    2.400634    1.205952
     22          6           0       -2.245649    3.778524    2.887869
     23          1           0       -1.848338    2.840289    3.300267
     24          8           0       -3.780176    1.204177    1.483049
     25          6           0       -2.360189    4.805512    4.034066
     26          1           0       -3.143433    4.481017    4.729285
     27          1           0       -2.698758    5.765182    3.619355
     28          6           0       -1.293024    4.262534    1.783678
     29          1           0       -1.688364    5.159210    1.286696
     30          1           0       -0.326114    4.536513    2.212254
     31          1           0       -1.097267    3.503994    1.021410
     32          6           0       -1.061352    5.003537    4.824032
     33          1           0       -1.228191    5.674684    5.672834
     34          1           0       -0.690401    4.050007    5.219432
     35          1           0       -0.267179    5.444574    4.213971
     36          7           0       -3.430947    2.852185   -0.048803
     37          1           0       -3.194336    3.828175   -0.180920
     38          6           0       -3.093686    1.939526   -1.154851
     39          1           0       -3.718262    1.051910   -1.025012
     40          6           0       -1.602567    1.569858   -0.998135
     41          6           0       -3.364387    2.606996   -2.496863
     42          1           0       -3.167705    1.902124   -3.309576
     43          1           0       -4.406400    2.933646   -2.561262
     44          1           0       -2.697455    3.462776   -2.637174
     45          8           0       -0.718346    2.264399   -1.507546
     46          7           0       -1.349794    0.506441   -0.208140
     47          1           0       -2.104013   -0.033296    0.203053
     48          6           0        0.006224    0.120018    0.173775
     49          1           0        0.602228    1.034928    0.269312
     50          6           0        0.625635   -0.760915   -0.931271
     51          6           0       -0.036648   -0.639031    1.514851
     52          1           0        0.984456   -0.995459    1.712541
     53          8           0        0.779608   -1.981035   -0.786699
     54          6           0       -0.505382    0.233161    2.672950
     55          1           0        0.135034    1.115673    2.783174
     56          1           0       -0.469073   -0.345243    3.600492
     57          1           0       -1.538100    0.557712    2.511437
     58          8           0       -0.939300   -1.734032    1.410279
     59          1           0       -0.534799   -2.324655    0.744562
     60          7           0        0.958425   -0.104744   -2.061093
     61          1           0        0.797661    0.898134   -2.108233
     62          6           0        1.520140   -0.821552   -3.197118
     63          1           0        0.983503   -1.770319   -3.293646
     64          6           0        3.022335   -1.092091   -2.995288
     65          6           0        1.369159   -0.038269   -4.507775
     66          1           0        1.832384    0.950584   -4.393704
     67          1           0        0.306258    0.095812   -4.736785
     68          8           0        3.861352   -0.230109   -3.229480
     69          8           0        1.958485   -0.773447   -5.567163
     70          1           0        2.903528   -0.533110   -5.626574
     71          7           0        3.337275   -2.370496   -2.653708
     72          1           0        2.605165   -2.966534   -2.290610
     73          6           0        4.719243   -2.817055   -2.692322
     74          1           0        5.367269   -2.125531   -2.148254
     75          1           0        4.788925   -3.799984   -2.218692
     76          6           0        5.299141   -2.917687   -4.116124
     77          8           0        6.507953   -2.959946   -4.286471
     78          7           0        4.394823   -3.007633   -5.137524
     79          1           0        3.432980   -2.750262   -4.956242
     80          6           0        4.849523   -2.912240   -6.515910
     81          1           0        5.669717   -3.618636   -6.663381
     82          6           0        5.436593   -1.538671   -6.840935
     83          6           0        3.685378   -3.237946   -7.473850
     84          1           0        3.273714   -4.204885   -7.155748
     85          1           0        2.887957   -2.494774   -7.332259
     86          8           0        6.340937   -1.326977   -7.608322
     87          6           0        4.095691   -3.313325   -8.947973
     88          1           0        4.535473   -2.359830   -9.266908
     89          1           0        4.878084   -4.068309   -9.081450
     90          6           0        2.913061   -3.652583   -9.861858
     91          1           0        2.150565   -2.863413   -9.796969
     92          1           0        2.426999   -4.576733   -9.511510
     93          6           0        3.319373   -3.831479  -11.329409
     94          1           0        2.406455   -3.909277  -11.947835
     95          1           0        3.850120   -2.931417  -11.666280
     96          7           0        4.236391   -4.968621  -11.477878
     97          1           0        4.598398   -5.005561  -12.428751
     98          1           0        3.725873   -5.839388  -11.334498
     99          8           0        4.767873   -0.527488   -6.203878
    100          1           0        5.215214    0.303512   -6.449633
 ---------------------------------------------------------------------

 SCF Done:  E(RB3LYP) =  -2418.57105000     A.U. after    3 cycles

 Alpha  occ. eigenvalues --  -19.28082 -19.27335 -19.24387 -19.24380 -19.21255
 Alpha  occ. eigenvalues --  -19.21206 -19.20257 -19.19855 -19.17961 -19.17299
 Alpha  occ. eigenvalues --  -19.15030 -14.59249 -14.51387 -14.50627 -14.48424
 Alpha  occ. eigenvalues --  -14.45496 -14.43791 -14.42072 -14.39656 -14.33965
 Alpha  occ. eigenvalues --  -10.45686 -10.44526 -10.42352 -10.41208 -10.38251
 Alpha  occ. eigenvalues --  -10.37341 -10.36873 -10.35882 -10.35845 -10.34245
 Alpha  occ. eigenvalues --  -10.33916 -10.32522 -10.31820 -10.31541 -10.30566
 Alpha  occ. eigenvalues --  -10.29652 -10.29431 -10.28070 -10.27672 -10.27622
 Alpha  occ. eigenvalues --  -10.27544 -10.27464 -10.26278 -10.25581 -10.23559
 Alpha  occ. eigenvalues --  -10.22854 -10.21163 -10.20741  -1.20171  -1.19358
 Alpha  occ. eigenvalues --   -1.16239  -1.14627  -1.13868  -1.13210  -1.11848
 Alpha  occ. eigenvalues --   -1.09599  -1.08788  -1.07390  -1.07171  -1.06973
 Alpha  occ. eigenvalues --   -1.06368  -1.05679  -1.04596  -1.01718  -0.99967
 Alpha  occ. eigenvalues --   -0.98327  -0.96128  -0.95661  -0.92238  -0.90660
 Alpha  occ. eigenvalues --   -0.88260  -0.86169  -0.85402  -0.83779  -0.83152
 Alpha  occ. eigenvalues --   -0.82996  -0.80799  -0.79570  -0.78880  -0.76868
 Alpha  occ. eigenvalues --   -0.76106  -0.75176  -0.74542  -0.74149  -0.73028
 Alpha  occ. eigenvalues --   -0.72384  -0.72306  -0.70667  -0.70418  -0.69225
 Alpha  occ. eigenvalues --   -0.68657  -0.67977  -0.67866  -0.67074  -0.66432
 Alpha  occ. eigenvalues --   -0.65976  -0.64908  -0.64573  -0.63748  -0.63680
 Alpha  occ. eigenvalues --   -0.62373  -0.62088  -0.61027  -0.60515  -0.60368
 Alpha  occ. eigenvalues --   -0.59907  -0.59657  -0.59032  -0.58577  -0.58321
 Alpha  occ. eigenvalues --   -0.57761  -0.57516  -0.57122  -0.56689  -0.55930
 Alpha  occ. eigenvalues --   -0.55553  -0.55017  -0.54655  -0.54424  -0.54217
 Alpha  occ. eigenvalues --   -0.53074  -0.52885  -0.52652  -0.52593  -0.52005
 Alpha  occ. eigenvalues --   -0.51814  -0.51366  -0.50979  -0.50887  -0.50332
 Alpha  occ. eigenvalues --   -0.50222  -0.50109  -0.49756  -0.49139  -0.48741
 Alpha  occ. eigenvalues --   -0.48414  -0.48139  -0.48027  -0.47970  -0.47626
 Alpha  occ. eigenvalues --   -0.47382  -0.46730  -0.46343  -0.46214  -0.45928
 Alpha  occ. eigenvalues --   -0.45819  -0.45669  -0.45484  -0.45291  -0.44723
 Alpha  occ. eigenvalues --   -0.44221  -0.43941  -0.43806  -0.43505  -0.42933
 Alpha  occ. eigenvalues --   -0.42749  -0.42622  -0.42484  -0.42460  -0.42395
 Alpha  occ. eigenvalues --   -0.41515  -0.40817  -0.40580  -0.40172  -0.39411
 Alpha  occ. eigenvalues --   -0.39042  -0.39030  -0.38581  -0.37891  -0.36763
 Alpha  occ. eigenvalues --   -0.36731  -0.36489  -0.36176  -0.35341  -0.34882
 Alpha  occ. eigenvalues --   -0.34673  -0.34421  -0.33322  -0.32681  -0.32424
 Alpha  occ. eigenvalues --   -0.32293  -0.30284  -0.28905  -0.28109  -0.26067
 Alpha virt. eigenvalues --   -0.13891  -0.12989  -0.10748  -0.10218  -0.07778
 Alpha virt. eigenvalues --   -0.06203  -0.05900  -0.05593  -0.04106  -0.03744
 Alpha virt. eigenvalues --   -0.03237  -0.03012  -0.02161  -0.01305  -0.01085

 Mulliken charges:
               1
     1  N   -0.751100
     2  H    0.412534
     3  H    0.445897
     4  H    0.417541
     5  C   -0.129477
     6  H    0.220285
     7  C    0.643231
     8  C   -0.404513
     9  H    0.228232
    10  H    0.209900
    11  O   -0.519724
    12  C    0.649107
    13  N   -0.725073
    14  H    0.385145
    15  H    0.373857
    16  O   -0.534053
    17  N   -0.587921
    18  H    0.362484
    19  C   -0.095290
    20  H    0.189448
    21  C    0.638730
    22  C   -0.072374
    23  H    0.148943
    24  O   -0.555842
    25  C   -0.252835
    26  H    0.126061
    27  H    0.150100
    28  C   -0.501530
    29  H    0.147572
    30  H    0.182448
    31  H    0.178496
    32  C   -0.455914
    33  H    0.162349
    34  H    0.150316
    35  H    0.164530
    36  N   -0.586862
    37  H    0.351949
    38  C   -0.056760
    39  H    0.180065
    40  C    0.637694
    41  C   -0.468400
    42  H    0.181666
    43  H    0.163604
    44  H    0.184959
    45  O   -0.554001
    46  N   -0.594573
    47  H    0.366912
    48  C   -0.079678
    49  H    0.180643
    50  C    0.643768
    51  C    0.111481
    52  H    0.152649
    53  O   -0.558508
    54  C   -0.474751
    55  H    0.145456
    56  H    0.169383
    57  H    0.156174
    58  O   -0.649952
    59  H    0.421710
    60  N   -0.615919
    61  H    0.374939
    62  C   -0.056003
    63  H    0.167500
    64  C    0.595273
    65  C   -0.056387
    66  H    0.156071
    67  H    0.147752
    68  O   -0.513283
    69  O   -0.656548
    70  H    0.451434
    71  N   -0.606708
    72  H    0.355714
    73  C   -0.221066
    74  H    0.208299
    75  H    0.183792
    76  C    0.617517
    77  O   -0.507164
    78  N   -0.619426
    79  H    0.336126
    80  C   -0.019102
    81  H    0.201535
    82  C    0.611675
    83  C   -0.318776
    84  H    0.150911
    85  H    0.160821
    86  O   -0.444877
    87  C   -0.259291
    88  H    0.148384
    89  H    0.174027
    90  C   -0.254167
    91  H    0.128354
    92  H    0.121808
    93  C   -0.140119
    94  H    0.114513
    95  H    0.142523
    96  N   -0.711377
    97  H    0.301614
    98  H    0.292256
    99  O   -0.589984
   100  H    0.421173
 Sum of Mulliken charges =   1.00000

 Dipole moment (field-independent basis, Debye):
    X=            -34.7956    Y=             10.2877    Z=             17.1738  Tot=             40.1436
 Quadrupole moment (field-independent basis, Debye-Ang):
   XX=           -124.3525   YY=           -230.8405   ZZ=           -160.5752
   XY=            -41.7137   XZ=            -90.5705   YZ=             55.9455

 Normal termination of Gaussian 16 at Mon Jun  6 03:06:48 2022.
