 Gaussian 16, Revision C.01,
 Gaussian 16:  ES64L-G16RevC.01  3-Jul-2019

 ----------------------------------------------------------------------
 # B3LYP/6-31G* empiricaldispersion=gd3 guess=read geom=check nosymm in
 tegral(ultrafinegrid)
 ----------------------------------------------------------------------

 ------------------------------------------------------
 Candidate Structure: Conf:950 Charge calc in gas phase
 ------------------------------------------------------
 Structure from the checkpoint file:  "conf-950.chk"
 Charge =  1 Multiplicity = 1

                          Input orientation:
 ---------------------------------------------------------------------
 Center     Atomic      Atomic             Coordinates (Angstroms)
 Number     Number       Type             X           Y           Z
 ---------------------------------------------------------------------
      1          7           0       -5.247921    5.173381    3.741001
      2          1           0       -5.019754    5.370273    4.718714
      3          1           0       -6.257966    5.273547    3.614734
      4          1           0       -4.710674    5.853806    3.090411
      5          6           0       -4.694197    3.851576    3.253686
      6          1           0       -4.218439    3.334437    4.088424
      7          6           0       -3.616282    4.317393    2.223795
      8          6           0       -5.797124    2.962155    2.662266
      9          1           0       -6.680121    2.973209    3.315741
     10          1           0       -6.110563    3.327953    1.676886
     11          8           0       -3.563106    5.542199    1.990248
     12          6           0       -5.297568    1.507955    2.564338
     13          7           0       -6.161573    0.629701    2.017710
     14          1           0       -5.870185   -0.336083    1.932752
     15          1           0       -7.074548    0.888139    1.672142
     16          8           0       -4.185968    1.198835    2.982867
     17          7           0       -2.860083    3.387829    1.674946
     18          1           0       -2.959741    2.408659    1.955349
     19          6           0       -1.795241    3.684391    0.713074
     20          1           0       -2.134453    4.514509    0.088375
     21          6           0       -1.623433    2.407333   -0.113471
     22          6           0       -0.484875    4.097434    1.459925
     23          1           0       -0.798473    4.941374    2.091834
     24          8           0       -1.957313    1.313616    0.355209
     25          6           0        0.618026    4.613555    0.514479
     26          1           0        0.999360    3.781546   -0.087770
     27          1           0        1.456449    4.920024    1.152228
     28          6           0        0.045439    2.967414    2.355397
     29          1           0        0.425154    2.123769    1.772490
     30          1           0        0.870345    3.344502    2.969060
     31          1           0       -0.721553    2.583145    3.036755
     32          6           0        0.221276    5.803461   -0.369117
     33          1           0        1.092169    6.193233   -0.905407
     34          1           0       -0.529142    5.548320   -1.130395
     35          1           0       -0.199000    6.621035    0.229007
     36          7           0       -1.075299    2.537459   -1.341108
     37          1           0       -0.673993    3.429696   -1.599655
     38          6           0       -0.540233    1.350043   -2.013998
     39          1           0       -1.377436    0.665363   -2.185614
     40          6           0        0.484611    0.707383   -1.058207
     41          6           0        0.120093    1.735344   -3.339286
     42          1           0        0.429917    0.830858   -3.871357
     43          1           0       -0.587568    2.277655   -3.975196
     44          1           0        1.016965    2.343785   -3.175612
     45          8           0        1.337601    1.403832   -0.503763
     46          7           0        0.376035   -0.622453   -0.878514
     47          1           0       -0.377267   -1.142159   -1.312688
     48          6           0        1.202369   -1.360051    0.073991
     49          1           0        2.055539   -0.720542    0.310418
     50          6           0        1.598550   -2.654712   -0.640954
     51          6           0        0.404175   -1.637046    1.372452
     52          1           0       -0.422209   -2.313786    1.105622
     53          8           0        0.734660   -3.487349   -0.917480
     54          6           0        1.282655   -2.297340    2.426459
     55          1           0        1.673183   -3.256119    2.070668
     56          1           0        0.699058   -2.472786    3.334287
     57          1           0        2.123118   -1.642186    2.681779
     58          8           0       -0.087183   -0.426579    1.927803
     59          1           0       -0.753155   -0.042710    1.330480
     60          7           0        2.902041   -2.762680   -0.977976
     61          1           0        3.557460   -2.010926   -0.787361
     62          6           0        3.433581   -3.829392   -1.804609
     63          1           0        3.208769   -4.805897   -1.361675
     64          6           0        4.938701   -3.603030   -1.913705
     65          6           0        2.809971   -3.799480   -3.239632
     66          1           0        2.992328   -2.803840   -3.668075
     67          1           0        1.734202   -3.943509   -3.121239
     68          8           0        5.456922   -2.528554   -1.607051
     69          8           0        3.314160   -4.829597   -4.065327
     70          1           0        4.067539   -4.447458   -4.564679
     71          7           0        5.645609   -4.638100   -2.455576
     72          1           0        5.069566   -5.343173   -2.907661
     73          6           0        6.894239   -4.309568   -3.121340
     74          1           0        7.569262   -3.832628   -2.406687
     75          1           0        7.360365   -5.234581   -3.473958
     76          6           0        6.620418   -3.387295   -4.325514
     77          8           0        5.572021   -3.478230   -4.972818
     78          7           0        7.583923   -2.492133   -4.623616
     79          1           0        8.390650   -2.405759   -4.020154
     80          6           0        7.407215   -1.486863   -5.666471
     81          1           0        6.668885   -1.882161   -6.366936
     82          6           0        8.687977   -1.239220   -6.448913
     83          6           0        6.898099   -0.134952   -5.106211
     84          1           0        7.685012    0.306889   -4.478147
     85          1           0        6.759241    0.538189   -5.960646
     86          8           0        8.719469   -0.710937   -7.533936
     87          6           0        5.603916   -0.258196   -4.292933
     88          1           0        4.838134   -0.765185   -4.894357
     89          1           0        5.781822   -0.897351   -3.420716
     90          6           0        5.084232    1.104548   -3.820777
     91          1           0        4.732180    1.701002   -4.672482
     92          1           0        5.912250    1.671528   -3.366808
     93          6           0        3.957661    0.989616   -2.791709
     94          1           0        3.130856    0.401632   -3.216884
     95          1           0        4.330895    0.412539   -1.925338
     96          7           0        3.434738    2.316490   -2.437255
     97          1           0        4.210601    2.906616   -2.135714
     98          1           0        2.819885    2.218114   -1.630168
     99          8           0        9.799422   -1.603586   -5.760118
    100          1           0       10.565485   -1.363871   -6.315595
 ---------------------------------------------------------------------

 SCF Done:  E(RB3LYP) =  -2418.58012814     A.U. after    3 cycles

 Alpha  occ. eigenvalues --  -19.27263 -19.25986 -19.25108 -19.22321 -19.19737
 Alpha  occ. eigenvalues --  -19.19448 -19.19185 -19.19142 -19.19023 -19.18753
 Alpha  occ. eigenvalues --  -19.17515 -14.60202 -14.49123 -14.48944 -14.45982
 Alpha  occ. eigenvalues --  -14.44246 -14.43390 -14.42263 -14.42258 -14.35097
 Alpha  occ. eigenvalues --  -10.43698 -10.43319 -10.41508 -10.39142 -10.38032
 Alpha  occ. eigenvalues --  -10.36684 -10.36389 -10.36190 -10.35395 -10.34884
 Alpha  occ. eigenvalues --  -10.33893 -10.32161 -10.29947 -10.29892 -10.29426
 Alpha  occ. eigenvalues --  -10.29194 -10.29116 -10.28428 -10.28350 -10.25818
 Alpha  occ. eigenvalues --  -10.25710 -10.25557 -10.25076 -10.24631 -10.24114
 Alpha  occ. eigenvalues --  -10.22791 -10.22754 -10.22650  -1.19725  -1.17089
 Alpha  occ. eigenvalues --   -1.16583  -1.14473  -1.13866  -1.11515  -1.11411
 Alpha  occ. eigenvalues --   -1.10344  -1.09388  -1.07603  -1.06843  -1.06298
 Alpha  occ. eigenvalues --   -1.06092  -1.03946  -1.02347  -1.00146  -0.99801
 Alpha  occ. eigenvalues --   -0.99045  -0.98526  -0.94577  -0.92004  -0.90271
 Alpha  occ. eigenvalues --   -0.86331  -0.85918  -0.84809  -0.83941  -0.82388
 Alpha  occ. eigenvalues --   -0.81954  -0.81080  -0.79362  -0.78100  -0.76787
 Alpha  occ. eigenvalues --   -0.74929  -0.74382  -0.74292  -0.73128  -0.72571
 Alpha  occ. eigenvalues --   -0.71056  -0.70651  -0.70057  -0.69292  -0.68109
 Alpha  occ. eigenvalues --   -0.67280  -0.67208  -0.66713  -0.66368  -0.65838
 Alpha  occ. eigenvalues --   -0.65347  -0.65224  -0.64355  -0.64233  -0.63428
 Alpha  occ. eigenvalues --   -0.63152  -0.62455  -0.60851  -0.60053  -0.59693
 Alpha  occ. eigenvalues --   -0.58944  -0.58591  -0.58134  -0.57433  -0.57180
 Alpha  occ. eigenvalues --   -0.56895  -0.56376  -0.56274  -0.55900  -0.54683
 Alpha  occ. eigenvalues --   -0.54548  -0.54319  -0.53977  -0.53499  -0.53088
 Alpha  occ. eigenvalues --   -0.52965  -0.52798  -0.52171  -0.51954  -0.51694
 Alpha  occ. eigenvalues --   -0.51188  -0.50757  -0.50613  -0.50491  -0.50039
 Alpha  occ. eigenvalues --   -0.49876  -0.49437  -0.49343  -0.49037  -0.48845
 Alpha  occ. eigenvalues --   -0.48337  -0.47828  -0.47529  -0.47427  -0.46985
 Alpha  occ. eigenvalues --   -0.46483  -0.46395  -0.46125  -0.45833  -0.45137
 Alpha  occ. eigenvalues --   -0.44958  -0.44711  -0.44623  -0.44512  -0.44425
 Alpha  occ. eigenvalues --   -0.44140  -0.43596  -0.43219  -0.43164  -0.42613
 Alpha  occ. eigenvalues --   -0.42231  -0.42129  -0.41940  -0.41539  -0.41009
 Alpha  occ. eigenvalues --   -0.40483  -0.40123  -0.39989  -0.39231  -0.38811
 Alpha  occ. eigenvalues --   -0.38363  -0.38184  -0.38061  -0.37929  -0.37485
 Alpha  occ. eigenvalues --   -0.37289  -0.36395  -0.35877  -0.34805  -0.34552
 Alpha  occ. eigenvalues --   -0.34317  -0.33735  -0.33474  -0.33098  -0.32293
 Alpha  occ. eigenvalues --   -0.32045  -0.31126  -0.30335  -0.29777  -0.27843
 Alpha virt. eigenvalues --   -0.12429  -0.11852  -0.11134  -0.08659  -0.07078
 Alpha virt. eigenvalues --   -0.06154  -0.05622  -0.05022  -0.04870  -0.04406
 Alpha virt. eigenvalues --   -0.03643  -0.03334  -0.01954  -0.01438  -0.00238

 Mulliken charges:
               1
     1  N   -0.773019
     2  H    0.418471
     3  H    0.409234
     4  H    0.439984
     5  C   -0.091781
     6  H    0.248458
     7  C    0.634517
     8  C   -0.411394
     9  H    0.197444
    10  H    0.209931
    11  O   -0.554971
    12  C    0.637399
    13  N   -0.739490
    14  H    0.380734
    15  H    0.361126
    16  O   -0.494472
    17  N   -0.612390
    18  H    0.424080
    19  C   -0.086202
    20  H    0.188074
    21  C    0.651101
    22  C   -0.077950
    23  H    0.141403
    24  O   -0.562763
    25  C   -0.296266
    26  H    0.181651
    27  H    0.156089
    28  C   -0.486477
    29  H    0.212068
    30  H    0.156234
    31  H    0.136099
    32  C   -0.467874
    33  H    0.172859
    34  H    0.126252
    35  H    0.157689
    36  N   -0.597735
    37  H    0.358210
    38  C   -0.037373
    39  H    0.163766
    40  C    0.638005
    41  C   -0.508027
    42  H    0.176511
    43  H    0.164818
    44  H    0.216804
    45  O   -0.540759
    46  N   -0.608598
    47  H    0.349258
    48  C   -0.063665
    49  H    0.179942
    50  C    0.633855
    51  C    0.135113
    52  H    0.135006
    53  O   -0.545352
    54  C   -0.459387
    55  H    0.160229
    56  H    0.166140
    57  H    0.155349
    58  O   -0.653097
    59  H    0.430641
    60  N   -0.636604
    61  H    0.363639
    62  C   -0.045159
    63  H    0.188293
    64  C    0.591574
    65  C   -0.055321
    66  H    0.141270
    67  H    0.186727
    68  O   -0.535878
    69  O   -0.650784
    70  H    0.439410
    71  N   -0.569218
    72  H    0.351880
    73  C   -0.251619
    74  H    0.191378
    75  H    0.197791
    76  C    0.647923
    77  O   -0.552439
    78  N   -0.589426
    79  H    0.351200
    80  C   -0.064904
    81  H    0.214036
    82  C    0.593396
    83  C   -0.269413
    84  H    0.140127
    85  H    0.171488
    86  O   -0.447514
    87  C   -0.291373
    88  H    0.148361
    89  H    0.172865
    90  C   -0.258529
    91  H    0.147439
    92  H    0.124538
    93  C   -0.135973
    94  H    0.123231
    95  H    0.123420
    96  N   -0.765205
    97  H    0.289302
    98  H    0.341855
    99  O   -0.580240
   100  H    0.422954
 Sum of Mulliken charges =   1.00000

 Dipole moment (field-independent basis, Debye):
    X=            -16.0848    Y=             15.8886    Z=              9.6290  Tot=             24.5741
 Quadrupole moment (field-independent basis, Debye-Ang):
   XX=            -46.1220   YY=           -198.5541   ZZ=           -243.8993
   XY=           -115.1069   XZ=            -96.8808   YZ=             63.2184

 Normal termination of Gaussian 16 at Mon Jun  6 03:55:33 2022.
