 Gaussian 16, Revision C.01,
 Gaussian 16:  ES64L-G16RevC.01  3-Jul-2019

 -------------------------------------------------------------------
 # B3LYP/6-31G* guess=read geom=check nosymm integral(ultrafinegrid)
 -------------------------------------------------------------------

 ------------------------------------------------------
 Candidate Structure: Conf:549 Charge calc in gas phase
 ------------------------------------------------------
 Structure from the checkpoint file:  "conf-549.chk"
 Charge =  1 Multiplicity = 1

                          Input orientation:
 ---------------------------------------------------------------------
 Center     Atomic      Atomic             Coordinates (Angstroms)
 Number     Number       Type             X           Y           Z
 ---------------------------------------------------------------------
      1          7           0        0.574642   -2.607389    2.950256
      2          1           0        1.101124   -1.740161    2.688133
      3          1           0        0.659594   -2.818842    3.948473
      4          1           0        0.971336   -3.368399    2.380708
      5          6           0       -0.855783   -2.382368    2.485261
      6          1           0       -1.218422   -1.508131    3.020392
      7          6           0       -0.596464   -2.083573    0.989844
      8          6           0       -1.728120   -3.609353    2.754942
      9          1           0       -1.827826   -3.752468    3.838326
     10          1           0       -1.232289   -4.498419    2.347586
     11          8           0        0.094175   -2.890741    0.374527
     12          6           0       -3.126332   -3.524912    2.110379
     13          1           0       -3.712407   -4.403441    2.389558
     14          1           0       -3.029869   -3.548171    1.016252
     15          6           0       -3.903729   -2.266370    2.449858
     16          8           0       -3.421724   -1.148426    2.526259
     17          8           0       -5.207242   -2.512054    2.621020
     18          7           0       -1.048008   -0.889839    0.529592
     19          1           0       -1.630942   -0.381963    1.187362
     20          6           0       -0.179726   -0.059300   -0.309849
     21          1           0       -0.705697    0.894202   -0.422848
     22          6           0        1.107679    0.258320    0.524215
     23          6           0        0.036288   -0.649384   -1.731590
     24          1           0        0.497816   -1.634183   -1.638926
     25          1           0       -0.968601   -0.804393   -2.144153
     26          8           0        1.371557   -0.335500    1.584406
     27          6           0        0.869513    0.243015   -2.623117
     28          6           0        0.441743    1.532163   -2.988010
     29          1           0       -0.559106    1.867597   -2.719460
     30          6           0        2.137998   -0.166481   -3.048675
     31          1           0        2.481677   -1.171354   -2.813351
     32          6           0        1.280329    2.408670   -3.672322
     33          1           0        0.955993    3.412544   -3.928381
     34          6           0        2.977171    0.688367   -3.759298
     35          1           0        3.947028    0.338999   -4.099900
     36          8           0        3.392770    2.911864   -4.615948
     37          6           0        2.580141    2.009459   -4.032321
     38          7           0        1.873965    1.268237    0.079587
     39          1           0        1.605608    1.736231   -0.779750
     40          6           0        2.889617    1.891298    0.920613
     41          1           0        3.598940    1.129741    1.260669
     42          6           0        2.215447    2.482706    2.168393
     43          6           0        3.639300    3.003157    0.153035
     44          1           0        2.893436    3.649367   -0.331261
     45          1           0        4.153609    3.628318    0.890265
     46          8           0        1.032857    2.695848    2.296454
     47          6           0        4.660429    2.506322   -0.883578
     48          1           0        4.198570    1.750435   -1.529793
     49          1           0        5.491019    2.014135   -0.356603
     50          6           0        5.191207    3.672761   -1.735122
     51          1           0        4.369742    4.088443   -2.331367
     52          1           0        5.538952    4.474108   -1.068675
     53          6           0        6.350648    3.328808   -2.676329
     54          1           0        6.656352    4.241746   -3.197323
     55          1           0        7.219351    2.985890   -2.093139
     56          7           0        5.968784    2.343032   -3.716460
     57          1           0        6.687909    2.316996   -4.438872
     58          1           0        4.349827    2.665885   -4.439272
     59          1           0        5.951983    1.407344   -3.312316
     60          8           0        3.137535    2.768255    3.111628
     61          1           0       -5.654453   -1.658162    2.784661
     62          1           0        2.666020    3.192926    3.853554
 ---------------------------------------------------------------------

 SCF Done:  E(RB3LYP) =  -1526.22716566     A.U. after    1 cycles

 Alpha  occ. eigenvalues --  -19.31237 -19.29077 -19.26045 -19.25237 -19.24574
 Alpha  occ. eigenvalues --  -19.23428 -19.21988 -14.58879 -14.47996 -14.47221
 Alpha  occ. eigenvalues --  -14.42366 -10.44375 -10.42303 -10.41469 -10.40981
 Alpha  occ. eigenvalues --  -10.39037 -10.35360 -10.34133 -10.34055 -10.32826
 Alpha  occ. eigenvalues --  -10.32067 -10.29691 -10.28918 -10.28679 -10.27322
 Alpha  occ. eigenvalues --  -10.27273 -10.27211 -10.27032 -10.26473 -10.26256
 Alpha  occ. eigenvalues --  -10.26119  -1.22422  -1.20021  -1.17946  -1.15470
 Alpha  occ. eigenvalues --   -1.13351  -1.12893  -1.11085  -1.10718  -1.05049
 Alpha  occ. eigenvalues --   -1.03878  -0.97994  -0.94350  -0.93341  -0.90364
 Alpha  occ. eigenvalues --   -0.88343  -0.86159  -0.84876  -0.82479  -0.81760
 Alpha  occ. eigenvalues --   -0.79006  -0.78550  -0.75267  -0.73710  -0.73238
 Alpha  occ. eigenvalues --   -0.72349  -0.71525  -0.69988  -0.69552  -0.68879
 Alpha  occ. eigenvalues --   -0.68128  -0.66490  -0.66194  -0.65176  -0.63585
 Alpha  occ. eigenvalues --   -0.62289  -0.61133  -0.60806  -0.60248  -0.59640
 Alpha  occ. eigenvalues --   -0.59390  -0.58819  -0.58411  -0.57634  -0.56931
 Alpha  occ. eigenvalues --   -0.56253  -0.55866  -0.55261  -0.55138  -0.54323
 Alpha  occ. eigenvalues --   -0.54038  -0.53615  -0.53015  -0.52422  -0.51739
 Alpha  occ. eigenvalues --   -0.51552  -0.51065  -0.50337  -0.50120  -0.49834
 Alpha  occ. eigenvalues --   -0.49636  -0.49111  -0.48726  -0.48280  -0.47771
 Alpha  occ. eigenvalues --   -0.47407  -0.46770  -0.46107  -0.45496  -0.44813
 Alpha  occ. eigenvalues --   -0.43520  -0.43014  -0.42815  -0.42275  -0.41708
 Alpha  occ. eigenvalues --   -0.41164  -0.40915  -0.39757  -0.39383  -0.39001
 Alpha  occ. eigenvalues --   -0.38744  -0.38005  -0.37143  -0.36269  -0.34642
 Alpha  occ. eigenvalues --   -0.33121  -0.28910
 Alpha virt. eigenvalues --   -0.13090  -0.11406  -0.10012  -0.08664  -0.08495
 Alpha virt. eigenvalues --   -0.08326  -0.06935  -0.03534  -0.02740  -0.02282
 Alpha virt. eigenvalues --   -0.01924  -0.01695  -0.01291   0.00321   0.00899

 Mulliken charges:
               1
     1  N   -0.756060
     2  H    0.454589
     3  H    0.403718
     4  H    0.413129
     5  C   -0.104701
     6  H    0.228077
     7  C    0.606039
     8  C   -0.284493
     9  H    0.176752
    10  H    0.185827
    11  O   -0.511159
    12  C   -0.378409
    13  H    0.212796
    14  H    0.218204
    15  C    0.603261
    16  O   -0.483544
    17  O   -0.534912
    18  N   -0.575138
    19  H    0.372604
    20  C   -0.107631
    21  H    0.191851
    22  C    0.673333
    23  C   -0.347673
    24  H    0.195281
    25  H    0.174380
    26  O   -0.596317
    27  C    0.136521
    28  C   -0.228291
    29  H    0.134701
    30  C   -0.182954
    31  H    0.135290
    32  C   -0.165980
    33  H    0.155867
    34  C   -0.199611
    35  H    0.130321
    36  O   -0.679442
    37  C    0.365894
    38  N   -0.599164
    39  H    0.371155
    40  C   -0.019759
    41  H    0.188939
    42  C    0.587428
    43  C   -0.311495
    44  H    0.160976
    45  H    0.182874
    46  O   -0.463061
    47  C   -0.283742
    48  H    0.157725
    49  H    0.140226
    50  C   -0.266189
    51  H    0.167389
    52  H    0.147578
    53  C   -0.149820
    54  H    0.169159
    55  H    0.143624
    56  N   -0.769701
    57  H    0.334781
    58  H    0.463484
    59  H    0.323024
    60  O   -0.563272
    61  H    0.431964
    62  H    0.423760
 Sum of Mulliken charges =   1.00000

 Dipole moment (field-independent basis, Debye):
    X=              5.0707    Y=             -5.0785    Z=              8.9936  Tot=             11.5060
 Quadrupole moment (field-independent basis, Debye-Ang):
   XX=            -97.4347   YY=           -140.0517   ZZ=           -136.4134
   XY=             27.9985   XZ=            -23.8839   YZ=            -30.0359

 Normal termination of Gaussian 16 at Tue May 24 03:23:56 2022.
