 Gaussian 16, Revision C.01,
 Gaussian 16:  ES64L-G16RevC.01  3-Jul-2019

 -------------------------------------------------------------------
 # B3LYP/6-31G* guess=read geom=check nosymm integral(ultrafinegrid)
 -------------------------------------------------------------------

 ------------------------------------------------------
 Candidate Structure: Conf:234 Charge calc in gas phase
 ------------------------------------------------------
 Structure from the checkpoint file:  "conf-234.chk"
 Charge =  1 Multiplicity = 1

                          Input orientation:
 ---------------------------------------------------------------------
 Center     Atomic      Atomic             Coordinates (Angstroms)
 Number     Number       Type             X           Y           Z
 ---------------------------------------------------------------------
      1          7           0        0.085589   -3.459586    2.291564
      2          1           0        0.739225   -2.647182    2.370241
      3          1           0        0.192614   -4.110711    3.074670
      4          1           0        0.306348   -3.921289    1.397107
      5          6           0       -1.307276   -2.864009    2.166274
      6          1           0       -1.468903   -2.271511    3.063631
      7          6           0       -1.100700   -1.976796    0.914392
      8          6           0       -2.368172   -3.955332    2.013878
      9          1           0       -2.410064   -4.552638    2.933502
     10          1           0       -2.078514   -4.626061    1.196306
     11          8           0       -0.578178   -2.510079   -0.059454
     12          6           0       -3.772172   -3.406148    1.686437
     13          1           0       -4.486973   -4.230946    1.646725
     14          1           0       -3.764519   -2.946663    0.688735
     15          6           0       -4.272772   -2.343795    2.647980
     16          8           0       -3.599861   -1.420196    3.077117
     17          8           0       -5.563514   -2.507727    2.953738
     18          7           0       -1.412175   -0.660871    1.049631
     19          1           0       -1.894681   -0.439509    1.915684
     20          6           0       -0.470211    0.359282    0.577671
     21          1           0       -0.885400    1.321321    0.895175
     22          6           0        0.871016    0.153104    1.360880
     23          6           0       -0.337965    0.395961   -0.975877
     24          1           0       -0.001584   -0.582151   -1.323693
     25          1           0       -1.357063    0.538253   -1.356004
     26          8           0        1.126278   -0.908562    1.956063
     27          6           0        0.593202    1.482884   -1.464696
     28          6           0        0.285519    2.844099   -1.296689
     29          1           0       -0.692984    3.135803   -0.917817
     30          6           0        1.838414    1.157524   -2.017285
     31          1           0        2.087357    0.113517   -2.195237
     32          6           0        1.219417    3.837832   -1.583758
     33          1           0        0.990794    4.887179   -1.425671
     34          6           0        2.776415    2.141537   -2.322729
     35          1           0        3.739796    1.871914   -2.746784
     36          8           0        3.409846    4.473265   -2.236962
     37          6           0        2.495818    3.490178   -2.055332
     38          7           0        1.696136    1.211852    1.379837
     39          1           0        1.436835    2.029015    0.835789
     40          6           0        3.041671    1.203016    1.962599
     41          1           0        3.251337    0.183549    2.287407
     42          6           0        3.112599    2.082791    3.209397
     43          6           0        4.062020    1.660834    0.896093
     44          1           0        3.951345    0.980530    0.045702
     45          1           0        3.756347    2.647740    0.532142
     46          8           0        3.694553    1.786581    4.224763
     47          6           0        5.531623    1.672662    1.341255
     48          1           0        5.771153    0.692093    1.772167
     49          1           0        5.691341    2.397525    2.151317
     50          6           0        6.513230    1.954130    0.179624
     51          1           0        7.475181    1.487016    0.424563
     52          1           0        6.155075    1.458948   -0.732800
     53          6           0        6.824438    3.422035   -0.136875
     54          1           0        7.275392    3.892501    0.751486
     55          1           0        7.584960    3.444118   -0.924699
     56          7           0        5.668772    4.204347   -0.636395
     57          1           0        6.009882    5.116973   -0.942680
     58          1           0        5.039383    4.416618    0.138071
     59          1           0        4.306398    4.147168   -1.963339
     60          8           0        2.488756    3.270358    3.019017
     61          1           0       -5.832526   -1.767481    3.533193
     62          1           0        2.603167    3.785333    3.841056
 ---------------------------------------------------------------------

 SCF Done:  E(RB3LYP) =  -1526.21558934     A.U. after    1 cycles

 Alpha  occ. eigenvalues --  -19.31710 -19.29215 -19.26537 -19.25622 -19.24841
 Alpha  occ. eigenvalues --  -19.23399 -19.22433 -14.59197 -14.48276 -14.47929
 Alpha  occ. eigenvalues --  -14.41755 -10.44852 -10.42701 -10.41441 -10.41434
 Alpha  occ. eigenvalues --  -10.39393 -10.35864 -10.34428 -10.33968 -10.33193
 Alpha  occ. eigenvalues --  -10.32207 -10.29383 -10.29060 -10.28445 -10.27697
 Alpha  occ. eigenvalues --  -10.27504 -10.27297 -10.27260 -10.26592 -10.26501
 Alpha  occ. eigenvalues --  -10.26478  -1.22900  -1.19974  -1.18311  -1.15715
 Alpha  occ. eigenvalues --   -1.13811  -1.13210  -1.11071  -1.11061  -1.05363
 Alpha  occ. eigenvalues --   -1.04409  -0.97463  -0.94712  -0.93647  -0.90489
 Alpha  occ. eigenvalues --   -0.88492  -0.86475  -0.84853  -0.82724  -0.82006
 Alpha  occ. eigenvalues --   -0.79266  -0.78633  -0.75394  -0.74027  -0.73043
 Alpha  occ. eigenvalues --   -0.72735  -0.71596  -0.70672  -0.69698  -0.69687
 Alpha  occ. eigenvalues --   -0.68693  -0.66593  -0.65877  -0.65536  -0.63945
 Alpha  occ. eigenvalues --   -0.63064  -0.61483  -0.61346  -0.60424  -0.59893
 Alpha  occ. eigenvalues --   -0.59136  -0.58875  -0.58006  -0.57535  -0.56733
 Alpha  occ. eigenvalues --   -0.56435  -0.55907  -0.55607  -0.55089  -0.54706
 Alpha  occ. eigenvalues --   -0.54404  -0.53864  -0.53351  -0.52156  -0.52000
 Alpha  occ. eigenvalues --   -0.51593  -0.51063  -0.50381  -0.50227  -0.50078
 Alpha  occ. eigenvalues --   -0.49758  -0.49369  -0.48841  -0.48734  -0.48427
 Alpha  occ. eigenvalues --   -0.48082  -0.46857  -0.46210  -0.45541  -0.44920
 Alpha  occ. eigenvalues --   -0.43958  -0.43238  -0.42847  -0.42224  -0.41523
 Alpha  occ. eigenvalues --   -0.41221  -0.40953  -0.40180  -0.39878  -0.39380
 Alpha  occ. eigenvalues --   -0.38970  -0.38366  -0.37238  -0.35478  -0.34331
 Alpha  occ. eigenvalues --   -0.33315  -0.29557
 Alpha virt. eigenvalues --   -0.13480  -0.11913  -0.10137  -0.08909  -0.08855
 Alpha virt. eigenvalues --   -0.08615  -0.07353  -0.03811  -0.02990  -0.02716
 Alpha virt. eigenvalues --   -0.02333  -0.02270  -0.01055   0.00428   0.00759

 Mulliken charges:
               1
     1  N   -0.754154
     2  H    0.454790
     3  H    0.405107
     4  H    0.414581
     5  C   -0.104274
     6  H    0.225071
     7  C    0.608530
     8  C   -0.286761
     9  H    0.177996
    10  H    0.188245
    11  O   -0.507887
    12  C   -0.377808
    13  H    0.214069
    14  H    0.217938
    15  C    0.604063
    16  O   -0.485691
    17  O   -0.532676
    18  N   -0.579349
    19  H    0.370922
    20  C   -0.104426
    21  H    0.183779
    22  C    0.648776
    23  C   -0.350265
    24  H    0.198298
    25  H    0.176208
    26  O   -0.587987
    27  C    0.138237
    28  C   -0.225621
    29  H    0.134066
    30  C   -0.189563
    31  H    0.136387
    32  C   -0.159050
    33  H    0.154570
    34  C   -0.183423
    35  H    0.146850
    36  O   -0.677483
    37  C    0.350307
    38  N   -0.586054
    39  H    0.370968
    40  C   -0.062791
    41  H    0.197101
    42  C    0.596839
    43  C   -0.282921
    44  H    0.167217
    45  H    0.156872
    46  O   -0.444014
    47  C   -0.281373
    48  H    0.154147
    49  H    0.151722
    50  C   -0.260217
    51  H    0.155983
    52  H    0.144838
    53  C   -0.148740
    54  H    0.141441
    55  H    0.164893
    56  N   -0.753714
    57  H    0.332350
    58  H    0.320346
    59  H    0.437360
    60  O   -0.572130
    61  H    0.432431
    62  H    0.425074
 Sum of Mulliken charges =   1.00000

 Dipole moment (field-independent basis, Debye):
    X=              0.8199    Y=             -5.9441    Z=             10.1232  Tot=             11.7679
 Quadrupole moment (field-independent basis, Debye-Ang):
   XX=           -106.9430   YY=           -109.1973   ZZ=           -164.0499
   XY=             36.7631   XZ=            -18.8435   YZ=            -19.0430

 Normal termination of Gaussian 16 at Tue May 24 03:23:02 2022.
