 Gaussian 16, Revision C.01,
 Gaussian 16:  ES64L-G16RevC.01  3-Jul-2019

 -------------------------------------------------------------------
 # B3LYP/6-31G* guess=read geom=check nosymm integral(ultrafinegrid)
 -------------------------------------------------------------------

 ------------------------------------------------------
 Candidate Structure: Conf:472 Charge calc in gas phase
 ------------------------------------------------------
 Structure from the checkpoint file:  "conf-472.chk"
 Charge =  1 Multiplicity = 1

                          Input orientation:
 ---------------------------------------------------------------------
 Center     Atomic      Atomic             Coordinates (Angstroms)
 Number     Number       Type             X           Y           Z
 ---------------------------------------------------------------------
      1          7           0       -0.212722   -2.170443    2.489916
      2          1           0        0.471173   -1.476029    2.084249
      3          1           0        0.000797   -2.388733    3.467109
      4          1           0       -0.129468   -3.021541    1.918639
      5          6           0       -1.613177   -1.598351    2.280313
      6          1           0       -1.679129   -0.729027    2.941124
      7          6           0       -1.511659   -1.217303    0.782466
      8          6           0       -2.700263   -2.625042    2.583261
      9          1           0       -2.591975   -3.473606    1.899837
     10          1           0       -3.656957   -2.148644    2.336058
     11          8           0       -1.312576   -2.127796   -0.008371
     12          6           0       -2.733064   -3.098970    4.048906
     13          1           0       -2.852594   -2.258689    4.738273
     14          1           0       -1.809658   -3.634559    4.310331
     15          6           0       -3.891214   -4.053453    4.306641
     16          8           0       -4.790425   -3.855940    5.084497
     17          8           0       -3.781356   -5.160084    3.535667
     18          7           0       -1.507526    0.115875    0.499959
     19          1           0       -1.638401    0.721319    1.301567
     20          6           0       -0.586621    0.669164   -0.501822
     21          1           0       -0.765302    1.749497   -0.503945
     22          6           0        0.869305    0.451609    0.031484
     23          6           0       -0.871531    0.153041   -1.946446
     24          1           0       -0.767582   -0.932552   -1.963311
     25          1           0       -1.928049    0.377612   -2.137279
     26          8           0        1.117727   -0.322630    0.974607
     27          6           0        0.028696    0.789196   -2.982300
     28          6           0       -0.045181    2.161991   -3.276865
     29          1           0       -0.846099    2.765359   -2.852000
     30          6           0        1.035982    0.039716   -3.603527
     31          1           0        1.092366   -1.031801   -3.424567
     32          6           0        0.906452    2.780471   -4.085176
     33          1           0        0.866844    3.846451   -4.285888
     34          6           0        1.986026    0.642751   -4.424744
     35          1           0        2.766157    0.048938   -4.892741
     36          8           0        2.928431    2.679288   -5.322424
     37          6           0        1.964410    2.031631   -4.626413
     38          7           0        1.814528    1.197075   -0.558473
     39          1           0        1.541587    1.768996   -1.352963
     40          6           0        3.253647    1.110950   -0.273393
     41          1           0        3.388961    0.351346    0.496413
     42          6           0        3.737398    2.432873    0.324504
     43          6           0        4.010869    0.752212   -1.567521
     44          1           0        3.651744   -0.231806   -1.889914
     45          1           0        3.702471    1.453289   -2.348046
     46          8           0        4.287377    2.554037    1.390878
     47          6           0        5.542451    0.721125   -1.462493
     48          1           0        5.833802   -0.038737   -0.726699
     49          1           0        5.926756    1.674865   -1.073170
     50          6           0        6.214127    0.405724   -2.820720
     51          1           0        7.147150   -0.139652   -2.634953
     52          1           0        5.572639   -0.270619   -3.400924
     53          6           0        6.588055    1.614931   -3.687189
     54          1           0        7.329628    2.223787   -3.145572
     55          1           0        7.081562    1.249453   -4.594003
     56          7           0        5.432945    2.434089   -4.124915
     57          1           0        5.779497    3.165077   -4.748418
     58          1           0        5.050874    2.941330   -3.325552
     59          1           0        3.811758    2.276995   -5.112540
     60          8           0        3.487063    3.469893   -0.515017
     61          1           0       -4.548645   -5.729964    3.738096
     62          1           0        3.811577    4.278461   -0.073160
 ---------------------------------------------------------------------

 SCF Done:  E(RB3LYP) =  -1526.20298239     A.U. after    3 cycles

 Alpha  occ. eigenvalues --  -19.29982 -19.29785 -19.26537 -19.25975 -19.24205
 Alpha  occ. eigenvalues --  -19.24115 -19.22873 -14.59950 -14.50229 -14.48872
 Alpha  occ. eigenvalues --  -14.42115 -10.43874 -10.42643 -10.42535 -10.42176
 Alpha  occ. eigenvalues --  -10.41050 -10.36960 -10.34626 -10.34095 -10.33130
 Alpha  occ. eigenvalues --  -10.32728 -10.29851 -10.29735 -10.28804 -10.28294
 Alpha  occ. eigenvalues --  -10.28076 -10.27863 -10.27808 -10.27026 -10.27013
 Alpha  occ. eigenvalues --  -10.26976  -1.20682  -1.20624  -1.19271  -1.16804
 Alpha  occ. eigenvalues --   -1.14129  -1.11833  -1.11830  -1.11530  -1.06832
 Alpha  occ. eigenvalues --   -1.05337  -0.97833  -0.95023  -0.94247  -0.91272
 Alpha  occ. eigenvalues --   -0.89346  -0.87118  -0.85434  -0.83264  -0.82536
 Alpha  occ. eigenvalues --   -0.79244  -0.78394  -0.76160  -0.74872  -0.73742
 Alpha  occ. eigenvalues --   -0.72874  -0.71982  -0.71398  -0.70726  -0.70378
 Alpha  occ. eigenvalues --   -0.69736  -0.67243  -0.66608  -0.66240  -0.63884
 Alpha  occ. eigenvalues --   -0.63633  -0.61841  -0.61615  -0.60437  -0.59649
 Alpha  occ. eigenvalues --   -0.59081  -0.58271  -0.58158  -0.57902  -0.57275
 Alpha  occ. eigenvalues --   -0.56974  -0.56190  -0.55570  -0.55276  -0.55117
 Alpha  occ. eigenvalues --   -0.54764  -0.54547  -0.54243  -0.53684  -0.52490
 Alpha  occ. eigenvalues --   -0.51724  -0.51086  -0.50817  -0.50609  -0.50412
 Alpha  occ. eigenvalues --   -0.49709  -0.49571  -0.49233  -0.49107  -0.48744
 Alpha  occ. eigenvalues --   -0.48668  -0.47636  -0.46701  -0.46178  -0.45439
 Alpha  occ. eigenvalues --   -0.43786  -0.43343  -0.42779  -0.42162  -0.41978
 Alpha  occ. eigenvalues --   -0.41927  -0.41465  -0.41165  -0.40214  -0.39763
 Alpha  occ. eigenvalues --   -0.38965  -0.38490  -0.37537  -0.36274  -0.34691
 Alpha  occ. eigenvalues --   -0.33853  -0.30100
 Alpha virt. eigenvalues --   -0.14503  -0.11423  -0.10871  -0.09506  -0.09145
 Alpha virt. eigenvalues --   -0.08585  -0.07978  -0.06760  -0.04462  -0.03471
 Alpha virt. eigenvalues --   -0.02386  -0.02369  -0.01247  -0.00747   0.00177

 Mulliken charges:
               1
     1  N   -0.759353
     2  H    0.459080
     3  H    0.409004
     4  H    0.417523
     5  C   -0.114504
     6  H    0.194799
     7  C    0.617717
     8  C   -0.287917
     9  H    0.212434
    10  H    0.204810
    11  O   -0.488977
    12  C   -0.365199
    13  H    0.194518
    14  H    0.161083
    15  C    0.576108
    16  O   -0.420297
    17  O   -0.559626
    18  N   -0.568292
    19  H    0.344368
    20  C   -0.107278
    21  H    0.187590
    22  C    0.648587
    23  C   -0.349863
    24  H    0.202276
    25  H    0.180774
    26  O   -0.588284
    27  C    0.126397
    28  C   -0.222717
    29  H    0.134987
    30  C   -0.184985
    31  H    0.138015
    32  C   -0.155835
    33  H    0.156617
    34  C   -0.185129
    35  H    0.148711
    36  O   -0.675785
    37  C    0.350614
    38  N   -0.590825
    39  H    0.376781
    40  C   -0.058639
    41  H    0.199108
    42  C    0.589682
    43  C   -0.283784
    44  H    0.161110
    45  H    0.169963
    46  O   -0.436954
    47  C   -0.285205
    48  H    0.155500
    49  H    0.148537
    50  C   -0.261632
    51  H    0.157934
    52  H    0.147305
    53  C   -0.147700
    54  H    0.141636
    55  H    0.166301
    56  N   -0.756681
    57  H    0.332946
    58  H    0.320225
    59  H    0.438065
    60  O   -0.574279
    61  H    0.431956
    62  H    0.426675
 Sum of Mulliken charges =   1.00000

 Dipole moment (field-independent basis, Debye):
    X=              4.0566    Y=             -2.3791    Z=              4.6683  Tot=              6.6264
 Quadrupole moment (field-independent basis, Debye-Ang):
   XX=           -129.9191   YY=           -132.6568   ZZ=           -160.2384
   XY=             22.1893   XZ=            -31.7377   YZ=            -29.1263

 Normal termination of Gaussian 16 at Tue May 24 03:23:31 2022.
