 Gaussian 16, Revision C.01,
 Gaussian 16:  ES64L-G16RevC.01  3-Jul-2019

 -------------------------------------------------------------------
 # B3LYP/6-31G* guess=read geom=check nosymm integral(ultrafinegrid)
 -------------------------------------------------------------------

 ------------------------------------------------------
 Candidate Structure: Conf:720 Charge calc in gas phase
 ------------------------------------------------------
 Structure from the checkpoint file:  "conf-720.chk"
 Charge =  1 Multiplicity = 1

                          Input orientation:
 ---------------------------------------------------------------------
 Center     Atomic      Atomic             Coordinates (Angstroms)
 Number     Number       Type             X           Y           Z
 ---------------------------------------------------------------------
      1          7           0        0.622905   -4.031502    1.480438
      2          1           0        1.493366   -4.201210    1.990991
      3          1           0        0.060879   -4.893180    1.477887
      4          1           0        0.860777   -3.705939    0.512841
      5          6           0       -0.195364   -2.885104    2.044389
      6          1           0        0.095029   -2.751199    3.089962
      7          6           0        0.204017   -1.686193    1.154605
      8          6           0       -1.688271   -3.216378    1.896659
      9          1           0       -1.923782   -3.247588    0.825011
     10          1           0       -2.280168   -2.388354    2.295052
     11          8           0        0.763655   -1.905598    0.075011
     12          6           0       -2.173088   -4.491990    2.585200
     13          1           0       -1.994567   -4.437308    3.668111
     14          1           0       -1.691915   -5.409199    2.209376
     15          6           0       -3.724883   -4.658579    2.306472
     16          8           0       -4.111262   -5.788495    2.011957
     17          8           0       -4.362932   -3.558281    2.408337
     18          7           0       -0.160557   -0.484973    1.627974
     19          1           0       -0.719778   -0.483407    2.470144
     20          6           0       -0.137709    0.766884    0.875873
     21          1           0       -0.604233    1.499036    1.543977
     22          6           0        1.318805    1.224623    0.650166
     23          6           0       -0.967854    0.734337   -0.451609
     24          1           0       -1.175678    1.780996   -0.718990
     25          1           0       -0.338662    0.323089   -1.247474
     26          8           0        2.293344    0.584333    1.017277
     27          6           0       -2.237571   -0.081817   -0.356844
     28          6           0       -2.503167   -1.079585   -1.303042
     29          1           0       -1.824195   -1.208694   -2.145019
     30          6           0       -3.143618    0.065586    0.707683
     31          1           0       -3.001490    0.862378    1.438386
     32          6           0       -3.588467   -1.943991   -1.167154
     33          1           0       -3.768536   -2.739071   -1.884496
     34          6           0       -4.210837   -0.808691    0.873458
     35          1           0       -4.874756   -0.721346    1.727203
     36          8           0       -5.363596   -2.798197    0.159506
     37          6           0       -4.419943   -1.866232   -0.037377
     38          7           0        1.436160    2.413773   -0.017777
     39          1           0        0.633355    3.014494   -0.169016
     40          6           0        2.734112    3.034968   -0.211095
     41          1           0        3.332287    2.921498    0.701156
     42          6           0        2.500354    4.521252   -0.451632
     43          6           0        3.537617    2.381740   -1.364094
     44          1           0        4.524172    2.855734   -1.414794
     45          1           0        3.685159    1.335264   -1.077541
     46          8           0        1.409035    5.028618   -0.595187
     47          6           0        2.827001    2.466511   -2.721681
     48          1           0        2.773149    3.510996   -3.057344
     49          1           0        1.794765    2.113687   -2.606404
     50          6           0        3.532507    1.623112   -3.798536
     51          1           0        4.563083    1.979118   -3.936260
     52          1           0        3.588830    0.579047   -3.460570
     53          6           0        2.777675    1.696938   -5.120174
     54          1           0        1.756151    1.317770   -5.037998
     55          1           0        2.747847    2.708891   -5.531404
     56          7           0        3.456579    0.832989   -6.189161
     57          1           0        2.960187    0.869364   -7.088456
     58          1           0        3.497203   -0.151216   -5.895985
     59          1           0        4.423326    1.140071   -6.354281
     60          8           0        3.658336    5.202905   -0.511208
     61          1           0       -5.232847   -3.158386    1.105022
     62          1           0        3.434040    6.144502   -0.644030
 ---------------------------------------------------------------------

 SCF Done:  E(RB3LYP) =  -1526.11864676     A.U. after    3 cycles

 Alpha  occ. eigenvalues --  -19.31105 -19.25683 -19.23940 -19.21668 -19.15844
 Alpha  occ. eigenvalues --  -19.09507 -19.08516 -14.67000 -14.56571 -14.47450
 Alpha  occ. eigenvalues --  -14.46290 -10.44026 -10.43613 -10.40649 -10.38987
 Alpha  occ. eigenvalues --  -10.36734 -10.36344 -10.35233 -10.34149 -10.33257
 Alpha  occ. eigenvalues --  -10.31321 -10.28366 -10.27856 -10.27740 -10.26606
 Alpha  occ. eigenvalues --  -10.24687 -10.24221 -10.24174 -10.22993 -10.22464
 Alpha  occ. eigenvalues --  -10.22428  -1.22158  -1.20838  -1.16098  -1.13836
 Alpha  occ. eigenvalues --   -1.13179  -1.10633  -1.05139  -1.04102  -1.03104
 Alpha  occ. eigenvalues --   -1.02152  -0.97693  -0.93990  -0.91695  -0.90487
 Alpha  occ. eigenvalues --   -0.89089  -0.86908  -0.84972  -0.81117  -0.80491
 Alpha  occ. eigenvalues --   -0.79430  -0.79137  -0.78554  -0.77774  -0.74217
 Alpha  occ. eigenvalues --   -0.73251  -0.72943  -0.70643  -0.70380  -0.69321
 Alpha  occ. eigenvalues --   -0.68577  -0.67797  -0.67466  -0.65855  -0.65130
 Alpha  occ. eigenvalues --   -0.64132  -0.62741  -0.61343  -0.60416  -0.59807
 Alpha  occ. eigenvalues --   -0.59376  -0.58540  -0.58342  -0.56850  -0.56672
 Alpha  occ. eigenvalues --   -0.56027  -0.54947  -0.54607  -0.53814  -0.53443
 Alpha  occ. eigenvalues --   -0.52648  -0.52208  -0.51833  -0.51309  -0.50887
 Alpha  occ. eigenvalues --   -0.50453  -0.49679  -0.49445  -0.49110  -0.48600
 Alpha  occ. eigenvalues --   -0.47872  -0.47468  -0.46642  -0.46553  -0.46213
 Alpha  occ. eigenvalues --   -0.44979  -0.44518  -0.43302  -0.43159  -0.42582
 Alpha  occ. eigenvalues --   -0.41465  -0.41210  -0.39579  -0.39312  -0.39095
 Alpha  occ. eigenvalues --   -0.38433  -0.37509  -0.37098  -0.36306  -0.36039
 Alpha  occ. eigenvalues --   -0.34939  -0.31907  -0.29775  -0.26062  -0.24721
 Alpha  occ. eigenvalues --   -0.23950  -0.22636
 Alpha virt. eigenvalues --   -0.17266  -0.10679  -0.10556  -0.10518  -0.09370
 Alpha virt. eigenvalues --   -0.08553  -0.07801  -0.07488  -0.05130  -0.04888
 Alpha virt. eigenvalues --   -0.04067  -0.03731  -0.03527  -0.02849  -0.02114

 Mulliken charges:
               1
     1  N   -0.741276
     2  H    0.405891
     3  H    0.410736
     4  H    0.414063
     5  C   -0.140435
     6  H    0.196998
     7  C    0.687101
     8  C   -0.300756
     9  H    0.181069
    10  H    0.210651
    11  O   -0.555324
    12  C   -0.385874
    13  H    0.147255
    14  H    0.119587
    15  C    0.598553
    16  O   -0.532858
    17  O   -0.632338
    18  N   -0.580429
    19  H    0.358911
    20  C   -0.078265
    21  H    0.181943
    22  C    0.634264
    23  C   -0.363332
    24  H    0.146929
    25  H    0.150413
    26  O   -0.512097
    27  C    0.174855
    28  C   -0.198473
    29  H    0.094232
    30  C   -0.220726
    31  H    0.104483
    32  C   -0.177066
    33  H    0.137410
    34  C   -0.161241
    35  H    0.154535
    36  O   -0.681254
    37  C    0.376806
    38  N   -0.631019
    39  H    0.360002
    40  C   -0.027792
    41  H    0.212201
    42  C    0.577716
    43  C   -0.282858
    44  H    0.172292
    45  H    0.189519
    46  O   -0.456879
    47  C   -0.283307
    48  H    0.163263
    49  H    0.174988
    50  C   -0.293543
    51  H    0.173001
    52  H    0.176443
    53  C   -0.207876
    54  H    0.235566
    55  H    0.232992
    56  N   -0.732000
    57  H    0.435859
    58  H    0.430115
    59  H    0.429583
    60  O   -0.561672
    61  H    0.457547
    62  H    0.430914
 Sum of Mulliken charges =   1.00000

 Dipole moment (field-independent basis, Debye):
    X=             30.0922    Y=             10.5237    Z=            -24.4796  Tot=             40.1938
 Quadrupole moment (field-independent basis, Debye-Ang):
   XX=           -186.3417   YY=           -171.5192   ZZ=             -7.9370
   XY=            -40.0707   XZ=            -75.2320   YZ=            -20.9828

 Normal termination of Gaussian 16 at Tue May 24 03:24:20 2022.
