 Gaussian 16, Revision C.01,
 Gaussian 16:  ES64L-G16RevC.01  3-Jul-2019

 -------------------------------------------------------------------
 # B3LYP/6-31G* guess=read geom=check nosymm integral(ultrafinegrid)
 -------------------------------------------------------------------

 -----------------------------------------------------
 Candidate Structure: Conf:21 Charge calc in gas phase
 -----------------------------------------------------
 Structure from the checkpoint file:  "conf-21.chk"
 Charge =  1 Multiplicity = 1

                          Input orientation:
 ---------------------------------------------------------------------
 Center     Atomic      Atomic             Coordinates (Angstroms)
 Number     Number       Type             X           Y           Z
 ---------------------------------------------------------------------
      1          7           0       -2.912756   -1.119739    3.927506
      2          1           0       -3.808026   -1.393940    3.511585
      3          1           0       -2.908124   -1.405919    4.910610
      4          1           0       -2.801245   -0.066877    3.826848
      5          6           0       -1.716352   -1.627062    3.139513
      6          1           0       -2.018356   -2.489685    2.547426
      7          6           0       -1.374877   -0.398644    2.252605
      8          6           0       -0.601007   -1.999521    4.142466
      9          1           0       -0.972447   -2.831108    4.756267
     10          1           0       -0.439917   -1.144797    4.812072
     11          8           0       -1.783924    0.707292    2.641311
     12          6           0        0.771312   -2.383491    3.551765
     13          1           0        1.426895   -2.694714    4.368393
     14          1           0        1.249255   -1.524356    3.062058
     15          6           0        0.714864   -3.469792    2.500936
     16          8           0       -0.095378   -3.493310    1.583321
     17          8           0        1.664242   -4.391394    2.654185
     18          7           0       -0.672784   -0.649159    1.152351
     19          1           0       -0.358250   -1.611385    1.013692
     20          6           0       -0.026644    0.382503    0.340341
     21          1           0       -0.530147    1.327036    0.559545
     22          6           0        1.457462    0.460620    0.765006
     23          6           0       -0.175037    0.024728   -1.176246
     24          1           0       -0.095077   -1.064914   -1.267680
     25          1           0       -1.192773    0.295369   -1.481054
     26          8           0        2.066311   -0.542352    1.136155
     27          6           0        0.872912    0.667458   -2.058326
     28          6           0        0.817384    2.018131   -2.429189
     29          1           0       -0.068548    2.608362   -2.196832
     30          6           0        2.007069   -0.069000   -2.433699
     31          1           0        2.070083   -1.123007   -2.173204
     32          6           0        1.884372    2.632813   -3.088694
     33          1           0        1.822647    3.680410   -3.371405
     34          6           0        3.070255    0.524738   -3.102560
     35          1           0        3.950999   -0.046659   -3.378223
     36          8           0        4.134209    2.428556   -3.987149
     37          6           0        3.041545    1.896344   -3.403598
     38          7           0        2.009060    1.690912    0.669314
     39          1           0        1.444087    2.412914    0.242351
     40          6           0        3.454545    1.903902    0.598897
     41          1           0        3.875095    1.227811   -0.153146
     42          6           0        4.184670    1.588438    1.898796
     43          6           0        3.731963    3.374812    0.187038
     44          1           0        2.885012    3.716885   -0.422419
     45          1           0        3.752356    4.012158    1.080448
     46          8           0        5.352784    1.279174    1.940009
     47          6           0        5.003837    3.557092   -0.649695
     48          1           0        4.905710    2.958761   -1.562048
     49          1           0        5.870403    3.160026   -0.108300
     50          6           0        5.244313    5.034746   -1.024888
     51          1           0        4.290622    5.584790   -1.026235
     52          1           0        5.862929    5.518863   -0.259735
     53          6           0        5.907543    5.233056   -2.393646
     54          1           0        6.359720    6.234134   -2.442607
     55          1           0        6.716482    4.506851   -2.531000
     56          7           0        4.936078    5.030698   -3.498606
     57          1           0        5.419246    5.143083   -4.390919
     58          1           0        4.241181    5.777957   -3.469989
     59          1           0        4.242585    3.406968   -3.794309
     60          8           0        3.426968    1.773630    3.004602
     61          1           0        1.607722   -5.013943    1.902015
     62          1           0        4.023620    1.604016    3.758820
 ---------------------------------------------------------------------

 SCF Done:  E(RB3LYP) =  -1526.21691453     A.U. after    1 cycles

 Alpha  occ. eigenvalues --  -19.31721 -19.27198 -19.27026 -19.26533 -19.21637
 Alpha  occ. eigenvalues --  -19.21330 -19.21188 -14.60712 -14.49448 -14.45576
 Alpha  occ. eigenvalues --  -14.41727 -10.44828 -10.43695 -10.41016 -10.39488
 Alpha  occ. eigenvalues --  -10.38578 -10.35559 -10.34542 -10.32651 -10.32125
 Alpha  occ. eigenvalues --  -10.31391 -10.29261 -10.28921 -10.27665 -10.26780
 Alpha  occ. eigenvalues --  -10.26727 -10.26204 -10.25960 -10.25860 -10.25444
 Alpha  occ. eigenvalues --  -10.25094  -1.22956  -1.19485  -1.18023  -1.14407
 Alpha  occ. eigenvalues --   -1.13831  -1.13299  -1.09966  -1.08904  -1.06271
 Alpha  occ. eigenvalues --   -1.02283  -0.97277  -0.95248  -0.92773  -0.89560
 Alpha  occ. eigenvalues --   -0.88140  -0.86714  -0.83602  -0.81748  -0.81701
 Alpha  occ. eigenvalues --   -0.79730  -0.77453  -0.74622  -0.74402  -0.74200
 Alpha  occ. eigenvalues --   -0.72527  -0.71304  -0.70659  -0.68843  -0.68785
 Alpha  occ. eigenvalues --   -0.67471  -0.66229  -0.65915  -0.65028  -0.64273
 Alpha  occ. eigenvalues --   -0.62270  -0.61351  -0.60616  -0.60379  -0.59654
 Alpha  occ. eigenvalues --   -0.58736  -0.58297  -0.57711  -0.56972  -0.56292
 Alpha  occ. eigenvalues --   -0.55611  -0.54903  -0.54512  -0.54304  -0.53859
 Alpha  occ. eigenvalues --   -0.53436  -0.52670  -0.52411  -0.52129  -0.51345
 Alpha  occ. eigenvalues --   -0.51098  -0.50781  -0.50350  -0.50217  -0.49955
 Alpha  occ. eigenvalues --   -0.49102  -0.48575  -0.48119  -0.47007  -0.46926
 Alpha  occ. eigenvalues --   -0.46593  -0.45763  -0.44831  -0.44232  -0.44000
 Alpha  occ. eigenvalues --   -0.43439  -0.42665  -0.41746  -0.41430  -0.41105
 Alpha  occ. eigenvalues --   -0.40683  -0.40295  -0.40067  -0.39515  -0.38993
 Alpha  occ. eigenvalues --   -0.38156  -0.36438  -0.35285  -0.34083  -0.33817
 Alpha  occ. eigenvalues --   -0.32250  -0.28297
 Alpha virt. eigenvalues --   -0.12848  -0.12203  -0.10875  -0.08241  -0.07532
 Alpha virt. eigenvalues --   -0.06792  -0.06656  -0.06275  -0.03983  -0.02544
 Alpha virt. eigenvalues --   -0.02095  -0.01160  -0.00644  -0.00088   0.00033

 Mulliken charges:
               1
     1  N   -0.756119
     2  H    0.419127
     3  H    0.412567
     4  H    0.432007
     5  C   -0.113856
     6  H    0.238373
     7  C    0.632626
     8  C   -0.305897
     9  H    0.183210
    10  H    0.187199
    11  O   -0.542023
    12  C   -0.396327
    13  H    0.208478
    14  H    0.254204
    15  C    0.621193
    16  O   -0.495267
    17  O   -0.528940
    18  N   -0.592588
    19  H    0.397979
    20  C   -0.090862
    21  H    0.187921
    22  C    0.645001
    23  C   -0.362473
    24  H    0.163673
    25  H    0.171538
    26  O   -0.545090
    27  C    0.149554
    28  C   -0.219979
    29  H    0.125753
    30  C   -0.181583
    31  H    0.136405
    32  C   -0.191125
    33  H    0.130619
    34  C   -0.165166
    35  H    0.154030
    36  O   -0.693297
    37  C    0.368721
    38  N   -0.598440
    39  H    0.342285
    40  C    0.001371
    41  H    0.203460
    42  C    0.598619
    43  C   -0.327000
    44  H    0.145698
    45  H    0.165972
    46  O   -0.454891
    47  C   -0.285724
    48  H    0.169512
    49  H    0.173629
    50  C   -0.264444
    51  H    0.129615
    52  H    0.157603
    53  C   -0.150127
    54  H    0.147148
    55  H    0.170381
    56  N   -0.765620
    57  H    0.335761
    58  H    0.319527
    59  H    0.464057
    60  O   -0.567319
    61  H    0.434619
    62  H    0.414719
 Sum of Mulliken charges =   1.00000

 Dipole moment (field-independent basis, Debye):
    X=             -4.3577    Y=              0.2360    Z=             11.9912  Tot=             12.7607
 Quadrupole moment (field-independent basis, Debye-Ang):
   XX=           -134.5070   YY=           -109.9574   ZZ=           -109.1043
   XY=             45.8069   XZ=            -46.1827   YZ=            -46.2557

 Normal termination of Gaussian 16 at Tue May 24 03:23:14 2022.
