 Gaussian 16, Revision C.01,
 Gaussian 16:  ES64L-G16RevC.01  3-Jul-2019

 -------------------------------------------------------------------
 # B3LYP/6-31G* guess=read geom=check nosymm integral(ultrafinegrid)
 -------------------------------------------------------------------

 ------------------------------------------------------
 Candidate Structure: Conf:696 Charge calc in gas phase
 ------------------------------------------------------
 Structure from the checkpoint file:  "conf-696.chk"
 Charge =  1 Multiplicity = 1

                          Input orientation:
 ---------------------------------------------------------------------
 Center     Atomic      Atomic             Coordinates (Angstroms)
 Number     Number       Type             X           Y           Z
 ---------------------------------------------------------------------
      1          7           0       -0.385724   -2.113766    3.023413
      2          1           0        0.196844   -1.333175    2.612534
      3          1           0       -0.146303   -2.296581    4.001763
      4          1           0       -0.187499   -2.947763    2.455589
      5          6           0       -1.852266   -1.739008    2.809616
      6          1           0       -2.032864   -0.878951    3.461357
      7          6           0       -1.796719   -1.359894    1.309984
      8          6           0       -2.793663   -2.894934    3.121054
      9          1           0       -2.595168   -3.714690    2.421510
     10          1           0       -3.812129   -2.558054    2.899552
     11          8           0       -1.472635   -2.239313    0.524335
     12          6           0       -2.745720   -3.385806    4.572350
     13          1           0       -2.822742   -2.549246    5.281575
     14          1           0       -1.816584   -3.915845    4.816826
     15          6           0       -3.907827   -4.326373    4.866079
     16          8           0       -4.876037   -4.463491    4.156421
     17          8           0       -3.721360   -4.971053    6.032996
     18          7           0       -1.958814   -0.040859    1.016567
     19          1           0       -2.145808    0.556068    1.813118
     20          6           0       -1.122487    0.597197   -0.007538
     21          1           0       -1.385658    1.659799    0.023046
     22          6           0        0.361716    0.512868    0.478204
     23          6           0       -1.424688    0.083335   -1.444769
     24          1           0       -1.196356   -0.982266   -1.497985
     25          1           0       -2.510195    0.182576   -1.571512
     26          8           0        0.689136   -0.115853    1.503033
     27          6           0       -0.673188    0.838600   -2.520680
     28          6           0       -0.826277    2.223623   -2.690393
     29          1           0       -1.578547    2.763164   -2.116604
     30          6           0        0.260474    0.180780   -3.336449
     31          1           0        0.382733   -0.895966   -3.243846
     32          6           0       -0.026170    2.937603   -3.582466
     33          1           0       -0.167411    4.007271   -3.707027
     34          6           0        1.057068    0.877278   -4.239539
     35          1           0        1.790178    0.363674   -4.853670
     36          8           0        1.810625    2.925059   -5.156775
     37          6           0        0.956610    2.274894   -4.341938
     38          7           0        1.254489    1.213664   -0.231165
     39          1           0        0.926262    1.720571   -1.045943
     40          6           0        2.635424    1.397468    0.194153
     41          1           0        3.007518    0.435517    0.560484
     42          6           0        2.682864    2.373106    1.377223
     43          6           0        3.528876    1.856619   -0.980175
     44          1           0        4.569444    1.773107   -0.649896
     45          1           0        3.393183    1.134224   -1.794299
     46          8           0        1.746550    3.005578    1.806286
     47          6           0        3.273454    3.281461   -1.502560
     48          1           0        3.494808    4.010551   -0.710198
     49          1           0        2.212518    3.405342   -1.758013
     50          6           0        4.132696    3.583861   -2.741513
     51          1           0        5.192088    3.452804   -2.482949
     52          1           0        3.903848    2.857927   -3.530526
     53          6           0        3.966546    4.994400   -3.318573
     54          1           0        4.253303    5.746883   -2.567853
     55          1           0        4.654174    5.106870   -4.162722
     56          7           0        2.598185    5.237789   -3.839672
     57          1           0        2.597940    6.085972   -4.405510
     58          1           0        1.961395    5.424799   -3.065911
     59          1           0        1.991792    3.844081   -4.794553
     60          8           0        3.931820    2.439194    1.883184
     61          1           0       -4.504875   -5.535352    6.182001
     62          1           0        3.911146    3.082258    2.617674
 ---------------------------------------------------------------------

 SCF Done:  E(RB3LYP) =  -1526.21932464     A.U. after    1 cycles

 Alpha  occ. eigenvalues --  -19.29608 -19.29453 -19.25943 -19.25334 -19.24195
 Alpha  occ. eigenvalues --  -19.23858 -19.22214 -14.59388 -14.49566 -14.47789
 Alpha  occ. eigenvalues --  -14.42672 -10.43217 -10.42692 -10.41874 -10.41738
 Alpha  occ. eigenvalues --  -10.40442 -10.36229 -10.34493 -10.33059 -10.33022
 Alpha  occ. eigenvalues --  -10.32438 -10.29948 -10.29308 -10.29041 -10.27902
 Alpha  occ. eigenvalues --  -10.27880 -10.27820 -10.27350 -10.26955 -10.26727
 Alpha  occ. eigenvalues --  -10.26263  -1.20653  -1.20402  -1.18691  -1.16185
 Alpha  occ. eigenvalues --   -1.13554  -1.11870  -1.11496  -1.10977  -1.06213
 Alpha  occ. eigenvalues --   -1.04596  -0.98253  -0.94458  -0.93794  -0.90910
 Alpha  occ. eigenvalues --   -0.89029  -0.86759  -0.85253  -0.82895  -0.82185
 Alpha  occ. eigenvalues --   -0.79049  -0.78306  -0.75832  -0.74291  -0.73975
 Alpha  occ. eigenvalues --   -0.72341  -0.71916  -0.70179  -0.70000  -0.69628
 Alpha  occ. eigenvalues --   -0.69105  -0.66765  -0.66565  -0.65808  -0.63578
 Alpha  occ. eigenvalues --   -0.62614  -0.61318  -0.61072  -0.60441  -0.59856
 Alpha  occ. eigenvalues --   -0.58891  -0.58562  -0.58321  -0.57832  -0.57362
 Alpha  occ. eigenvalues --   -0.56976  -0.55943  -0.55623  -0.54974  -0.54925
 Alpha  occ. eigenvalues --   -0.54343  -0.53700  -0.53475  -0.52800  -0.52331
 Alpha  occ. eigenvalues --   -0.51975  -0.51096  -0.50916  -0.50256  -0.49824
 Alpha  occ. eigenvalues --   -0.49659  -0.49205  -0.48471  -0.48397  -0.48142
 Alpha  occ. eigenvalues --   -0.47444  -0.47164  -0.46755  -0.46203  -0.44968
 Alpha  occ. eigenvalues --   -0.43677  -0.43077  -0.42576  -0.41866  -0.41833
 Alpha  occ. eigenvalues --   -0.41538  -0.41392  -0.40461  -0.39573  -0.39048
 Alpha  occ. eigenvalues --   -0.38462  -0.38132  -0.37836  -0.36916  -0.34981
 Alpha  occ. eigenvalues --   -0.33548  -0.29428
 Alpha virt. eigenvalues --   -0.13821  -0.10719  -0.09739  -0.09179  -0.08912
 Alpha virt. eigenvalues --   -0.08800  -0.07510  -0.06077  -0.04083  -0.02165
 Alpha virt. eigenvalues --   -0.01897  -0.01727  -0.01488  -0.00471   0.00274

 Mulliken charges:
               1
     1  N   -0.759544
     2  H    0.458002
     3  H    0.406851
     4  H    0.415340
     5  C   -0.120113
     6  H    0.192181
     7  C    0.616836
     8  C   -0.273813
     9  H    0.201304
    10  H    0.219054
    11  O   -0.492043
    12  C   -0.390476
    13  H    0.193866
    14  H    0.172077
    15  C    0.598484
    16  O   -0.434725
    17  O   -0.558140
    18  N   -0.566708
    19  H    0.346451
    20  C   -0.115228
    21  H    0.194005
    22  C    0.668573
    23  C   -0.344228
    24  H    0.199505
    25  H    0.180354
    26  O   -0.599592
    27  C    0.120097
    28  C   -0.221513
    29  H    0.132781
    30  C   -0.187473
    31  H    0.141085
    32  C   -0.195173
    33  H    0.137454
    34  C   -0.164966
    35  H    0.155923
    36  O   -0.679554
    37  C    0.365890
    38  N   -0.596967
    39  H    0.385061
    40  C   -0.048135
    41  H    0.197294
    42  C    0.599550
    43  C   -0.297816
    44  H    0.180444
    45  H    0.173258
    46  O   -0.463555
    47  C   -0.295224
    48  H    0.148306
    49  H    0.139981
    50  C   -0.267161
    51  H    0.149990
    52  H    0.171465
    53  C   -0.150034
    54  H    0.144808
    55  H    0.170806
    56  N   -0.771345
    57  H    0.335986
    58  H    0.323101
    59  H    0.462575
    60  O   -0.561415
    61  H    0.431700
    62  H    0.424505
 Sum of Mulliken charges =   1.00000

 Dipole moment (field-independent basis, Debye):
    X=              1.7195    Y=              1.3696    Z=             10.3688  Tot=             10.5993
 Quadrupole moment (field-independent basis, Debye-Ang):
   XX=           -149.7998   YY=           -112.5427   ZZ=           -123.6999
   XY=             28.4341   XZ=            -26.3177   YZ=            -52.4016

 Normal termination of Gaussian 16 at Tue May 24 03:23:55 2022.
