 Gaussian 16, Revision C.01,
 Gaussian 16:  ES64L-G16RevC.01  3-Jul-2019

 -------------------------------------------------------------------
 # B3LYP/6-31G* guess=read geom=check nosymm integral(ultrafinegrid)
 -------------------------------------------------------------------

 ------------------------------------------------------
 Candidate Structure: Conf:962 Charge calc in gas phase
 ------------------------------------------------------
 Structure from the checkpoint file:  "conf-962.chk"
 Charge =  1 Multiplicity = 1

                          Input orientation:
 ---------------------------------------------------------------------
 Center     Atomic      Atomic             Coordinates (Angstroms)
 Number     Number       Type             X           Y           Z
 ---------------------------------------------------------------------
      1          7           0       -0.337952   -2.470735    3.087595
      2          1           0        0.183747   -1.555782    2.959649
      3          1           0       -0.278326   -2.815817    4.050220
      4          1           0        0.113149   -3.145857    2.457651
      5          6           0       -1.772812   -2.257917    2.610581
      6          1           0       -2.247171   -1.622138    3.364220
      7          6           0       -1.497146   -1.515131    1.281042
      8          6           0       -2.497403   -3.589874    2.454933
      9          1           0       -2.447216   -4.155361    3.391816
     10          1           0       -1.984804   -4.172388    1.680309
     11          8           0       -0.930346   -2.136194    0.393390
     12          6           0       -3.969517   -3.383847    2.061202
     13          1           0       -4.061022   -2.848042    1.112691
     14          1           0       -4.484825   -2.789514    2.828737
     15          6           0       -4.748429   -4.681520    1.906554
     16          8           0       -5.569634   -4.889739    1.049282
     17          8           0       -4.430086   -5.573390    2.876447
     18          7           0       -1.752185   -0.179637    1.280724
     19          1           0       -2.143272    0.192056    2.137463
     20          6           0       -0.844909    0.743563    0.589135
     21          1           0       -1.201810    1.747754    0.842450
     22          6           0        0.560884    0.610031    1.252057
     23          6           0       -0.894255    0.605021   -0.959743
     24          1           0       -0.400769   -0.323105   -1.255546
     25          1           0       -1.955431    0.489522   -1.211885
     26          8           0        0.767674   -0.140016    2.226037
     27          6           0       -0.303522    1.789032   -1.701024
     28          6           0       -0.873156    3.071648   -1.601236
     29          1           0       -1.775981    3.218534   -1.010515
     30          6           0        0.829709    1.642899   -2.514053
     31          1           0        1.271224    0.656903   -2.643327
     32          6           0       -0.309069    4.168721   -2.240399
     33          1           0       -0.745076    5.158289   -2.147521
     34          6           0        1.401136    2.733065   -3.171228
     35          1           0        2.263048    2.591625   -3.816938
     36          8           0        1.388569    5.120712   -3.577044
     37          6           0        0.856115    4.018932   -3.014751
     38          7           0        1.522646    1.389386    0.745796
     39          1           0        1.282941    1.993436   -0.033989
     40          6           0        2.833587    1.539310    1.363909
     41          1           0        3.158318    0.551373    1.705077
     42          6           0        2.715910    2.423569    2.612678
     43          6           0        3.860861    2.079125    0.345491
     44          1           0        4.857687    1.970249    0.783891
     45          1           0        3.823525    1.414726   -0.526896
     46          8           0        1.709743    2.976306    2.988467
     47          6           0        3.639704    3.537342   -0.094966
     48          1           0        3.960723    4.215520    0.706728
     49          1           0        2.571301    3.739274   -0.253916
     50          6           0        4.376094    3.863030   -1.401801
     51          1           0        5.447594    3.645636   -1.297044
     52          1           0        3.994140    3.192072   -2.180872
     53          6           0        4.172584    5.313040   -1.872413
     54          1           0        3.213107    5.696101   -1.506619
     55          1           0        4.957696    5.960092   -1.455108
     56          7           0        4.110972    5.378174   -3.350517
     57          1           0        4.154256    6.351095   -3.655185
     58          1           0        2.373907    5.018259   -3.724251
     59          1           0        4.925157    4.919864   -3.759989
     60          8           0        3.903585    2.501344    3.248100
     61          1           0       -4.987053   -6.361994    2.727298
     62          1           0        3.776350    3.077657    4.026126
 ---------------------------------------------------------------------

 SCF Done:  E(RB3LYP) =  -1526.21560626     A.U. after    2 cycles

 Alpha  occ. eigenvalues --  -19.29415 -19.29182 -19.26158 -19.25486 -19.23816
 Alpha  occ. eigenvalues --  -19.23254 -19.22357 -14.59639 -14.49821 -14.47971
 Alpha  occ. eigenvalues --  -14.42084 -10.43361 -10.41910 -10.41867 -10.41851
 Alpha  occ. eigenvalues --  -10.40658 -10.36276 -10.34654 -10.33521 -10.32396
 Alpha  occ. eigenvalues --  -10.32008 -10.29685 -10.29495 -10.29255 -10.28026
 Alpha  occ. eigenvalues --  -10.27847 -10.27616 -10.27536 -10.27231 -10.26581
 Alpha  occ. eigenvalues --  -10.26269  -1.20356  -1.19923  -1.18871  -1.16346
 Alpha  occ. eigenvalues --   -1.13812  -1.11480  -1.11054  -1.11039  -1.06416
 Alpha  occ. eigenvalues --   -1.04809  -0.97795  -0.94646  -0.93731  -0.91108
 Alpha  occ. eigenvalues --   -0.88937  -0.86307  -0.85438  -0.82803  -0.82214
 Alpha  occ. eigenvalues --   -0.78797  -0.78179  -0.75811  -0.74360  -0.74000
 Alpha  occ. eigenvalues --   -0.72187  -0.71811  -0.70664  -0.70231  -0.69455
 Alpha  occ. eigenvalues --   -0.69136  -0.67775  -0.66872  -0.66160  -0.63726
 Alpha  occ. eigenvalues --   -0.63051  -0.61700  -0.60563  -0.59901  -0.59236
 Alpha  occ. eigenvalues --   -0.58601  -0.57893  -0.57660  -0.57361  -0.56920
 Alpha  occ. eigenvalues --   -0.56799  -0.55984  -0.55413  -0.55315  -0.54943
 Alpha  occ. eigenvalues --   -0.54486  -0.54059  -0.53446  -0.52912  -0.52070
 Alpha  occ. eigenvalues --   -0.51866  -0.51394  -0.50384  -0.50078  -0.49963
 Alpha  occ. eigenvalues --   -0.49604  -0.49164  -0.48715  -0.48593  -0.47805
 Alpha  occ. eigenvalues --   -0.47668  -0.47192  -0.46476  -0.45789  -0.44989
 Alpha  occ. eigenvalues --   -0.43564  -0.43061  -0.42420  -0.42253  -0.41575
 Alpha  occ. eigenvalues --   -0.41454  -0.41199  -0.40489  -0.39770  -0.39397
 Alpha  occ. eigenvalues --   -0.38760  -0.38270  -0.36965  -0.36823  -0.34470
 Alpha  occ. eigenvalues --   -0.33360  -0.29369
 Alpha virt. eigenvalues --   -0.14062  -0.10819  -0.09759  -0.08833  -0.08679
 Alpha virt. eigenvalues --   -0.08493  -0.07567  -0.06432  -0.04300  -0.02458
 Alpha virt. eigenvalues --   -0.01779  -0.00969  -0.00745  -0.00493   0.00176

 Mulliken charges:
               1
     1  N   -0.762626
     2  H    0.458040
     3  H    0.408211
     4  H    0.415952
     5  C   -0.111558
     6  H    0.193023
     7  C    0.607771
     8  C   -0.281600
     9  H    0.185699
    10  H    0.195923
    11  O   -0.489685
    12  C   -0.368955
    13  H    0.205556
    14  H    0.188968
    15  C    0.584222
    16  O   -0.426339
    17  O   -0.566658
    18  N   -0.566134
    19  H    0.347052
    20  C   -0.111802
    21  H    0.202633
    22  C    0.669169
    23  C   -0.345347
    24  H    0.192196
    25  H    0.183734
    26  O   -0.601215
    27  C    0.100004
    28  C   -0.187355
    29  H    0.132147
    30  C   -0.206627
    31  H    0.137794
    32  C   -0.160237
    33  H    0.156315
    34  C   -0.191285
    35  H    0.145577
    36  O   -0.678237
    37  C    0.363369
    38  N   -0.595117
    39  H    0.384063
    40  C   -0.057386
    41  H    0.197401
    42  C    0.603088
    43  C   -0.292793
    44  H    0.182786
    45  H    0.163302
    46  O   -0.456940
    47  C   -0.294871
    48  H    0.159806
    49  H    0.152190
    50  C   -0.278680
    51  H    0.150752
    52  H    0.151544
    53  C   -0.141662
    54  H    0.166529
    55  H    0.151555
    56  N   -0.771390
    57  H    0.335106
    58  H    0.455725
    59  H    0.324083
    60  O   -0.562297
    61  H    0.429361
    62  H    0.426153
 Sum of Mulliken charges =   1.00000

 Dipole moment (field-independent basis, Debye):
    X=              4.3637    Y=             -1.5740    Z=             10.7110  Tot=             11.6724
 Quadrupole moment (field-independent basis, Debye-Ang):
   XX=           -131.6461   YY=           -117.5046   ZZ=           -131.3075
   XY=             43.3691   XZ=            -30.6340   YZ=            -42.7427

 Normal termination of Gaussian 16 at Tue May 24 03:23:20 2022.
