 Gaussian 16, Revision C.01,
 Gaussian 16:  ES64L-G16RevC.01  3-Jul-2019

 -------------------------------------------------------------------
 # B3LYP/6-31G* guess=read geom=check nosymm integral(ultrafinegrid)
 -------------------------------------------------------------------

 ------------------------------------------------------
 Candidate Structure: Conf:217 Charge calc in gas phase
 ------------------------------------------------------
 Structure from the checkpoint file:  "conf-217.chk"
 Charge =  1 Multiplicity = 1

                          Input orientation:
 ---------------------------------------------------------------------
 Center     Atomic      Atomic             Coordinates (Angstroms)
 Number     Number       Type             X           Y           Z
 ---------------------------------------------------------------------
      1          7           0       -0.105891   -2.263171    2.737280
      2          1           0        0.465071   -1.462434    2.350294
      3          1           0        0.155593   -2.489977    3.701420
      4          1           0        0.084296   -3.071937    2.131487
      5          6           0       -1.576792   -1.891819    2.578858
      6          1           0       -1.755048   -1.069686    3.278209
      7          6           0       -1.573342   -1.437109    1.098018
      8          6           0       -2.473575   -3.090726    2.869704
      9          1           0       -2.255392   -3.472848    3.875358
     10          1           0       -2.248285   -3.886278    2.152535
     11          8           0       -1.281210   -2.278479    0.260364
     12          6           0       -3.961208   -2.715084    2.767926
     13          1           0       -4.193035   -2.392747    1.743718
     14          1           0       -4.220490   -1.891212    3.439067
     15          6           0       -4.906246   -3.859971    3.100559
     16          8           0       -5.935389   -3.738824    3.717165
     17          8           0       -4.464167   -5.035101    2.594384
     18          7           0       -1.748203   -0.104719    0.874800
     19          1           0       -1.908901    0.448158    1.708082
     20          6           0       -0.943173    0.590219   -0.139386
     21          1           0       -1.217446    1.647380   -0.056578
     22          6           0        0.553023    0.498783    0.310556
     23          6           0       -1.279260    0.137510   -1.590806
     24          1           0       -1.098095   -0.934547   -1.678700
     25          1           0       -2.359807    0.290554   -1.705767
     26          8           0        0.903983   -0.184223    1.293587
     27          6           0       -0.493805    0.890548   -2.641621
     28          6           0        0.441648    0.220417   -3.444602
     29          1           0        0.522142   -0.862136   -3.377962
     30          6           0       -0.593203    2.284303   -2.776870
     31          1           0       -1.343185    2.834753   -2.210423
     32          6           0        1.295071    0.911311   -4.297675
     33          1           0        2.031279    0.389298   -4.900831
     34          6           0        0.267068    2.993711   -3.615356
     35          1           0        0.182396    4.073331   -3.701860
     36          8           0        2.168076    2.950222   -5.109935
     37          6           0        1.253520    2.314309   -4.354472
     38          7           0        1.430002    1.256996   -0.356282
     39          1           0        1.101460    1.796365   -1.150091
     40          6           0        2.839084    1.339046    0.019183
     41          1           0        3.201756    0.324269    0.205241
     42          6           0        3.067708    2.089071    1.334903
     43          6           0        3.695605    1.961590   -1.108297
     44          1           0        4.736855    1.891603   -0.773837
     45          1           0        3.599984    1.320730   -1.993324
     46          8           0        4.081534    1.980836    1.981953
     47          6           0        3.368946    3.417410   -1.481269
     48          1           0        3.356794    4.042787   -0.578343
     49          1           0        2.364808    3.483900   -1.918365
     50          6           0        4.386794    4.004203   -2.474616
     51          1           0        5.367045    4.057196   -1.984459
     52          1           0        4.503514    3.329051   -3.332599
     53          6           0        4.005003    5.405242   -2.991507
     54          1           0        3.386639    5.919423   -2.246930
     55          1           0        4.909619    6.014334   -3.121249
     56          7           0        3.225287    5.343456   -4.255491
     57          1           0        2.747343    6.231201   -4.407697
     58          1           0        2.333662    3.877057   -4.767779
     59          1           0        3.877432    5.253647   -5.036308
     60          8           0        2.050893    2.916282    1.673879
     61          1           0       -5.133800   -5.710089    2.818840
     62          1           0        2.333628    3.365083    2.494396
 ---------------------------------------------------------------------

 SCF Done:  E(RB3LYP) =  -1526.21199823     A.U. after    1 cycles

 Alpha  occ. eigenvalues --  -19.29541 -19.29219 -19.26430 -19.25686 -19.23391
 Alpha  occ. eigenvalues --  -19.23335 -19.22708 -14.59751 -14.50054 -14.48125
 Alpha  occ. eigenvalues --  -14.42666 -10.43679 -10.42034 -10.41964 -10.41657
 Alpha  occ. eigenvalues --  -10.40787 -10.36690 -10.34420 -10.33717 -10.32774
 Alpha  occ. eigenvalues --  -10.32145 -10.30155 -10.29638 -10.28892 -10.28120
 Alpha  occ. eigenvalues --  -10.28050 -10.27585 -10.27565 -10.27185 -10.26921
 Alpha  occ. eigenvalues --  -10.26521  -1.20275  -1.20006  -1.19116  -1.16516
 Alpha  occ. eigenvalues --   -1.13939  -1.11497  -1.11205  -1.11117  -1.06650
 Alpha  occ. eigenvalues --   -1.04802  -0.98194  -0.94814  -0.94074  -0.90885
 Alpha  occ. eigenvalues --   -0.88966  -0.86405  -0.85288  -0.83172  -0.82462
 Alpha  occ. eigenvalues --   -0.78929  -0.78343  -0.75922  -0.74394  -0.73733
 Alpha  occ. eigenvalues --   -0.72684  -0.71874  -0.70760  -0.70332  -0.69644
 Alpha  occ. eigenvalues --   -0.69343  -0.67131  -0.66864  -0.66481  -0.63716
 Alpha  occ. eigenvalues --   -0.63338  -0.61913  -0.61400  -0.60610  -0.58952
 Alpha  occ. eigenvalues --   -0.58647  -0.58414  -0.57672  -0.57288  -0.57042
 Alpha  occ. eigenvalues --   -0.56480  -0.56092  -0.55606  -0.55323  -0.54933
 Alpha  occ. eigenvalues --   -0.54433  -0.54049  -0.53660  -0.52920  -0.52617
 Alpha  occ. eigenvalues --   -0.52258  -0.50866  -0.50643  -0.50411  -0.49972
 Alpha  occ. eigenvalues --   -0.49668  -0.49362  -0.48987  -0.48582  -0.47880
 Alpha  occ. eigenvalues --   -0.47794  -0.47466  -0.46178  -0.45410  -0.45274
 Alpha  occ. eigenvalues --   -0.43982  -0.43214  -0.42479  -0.42146  -0.41576
 Alpha  occ. eigenvalues --   -0.41247  -0.41222  -0.40818  -0.40152  -0.39575
 Alpha  occ. eigenvalues --   -0.39543  -0.38559  -0.36929  -0.36005  -0.34989
 Alpha  occ. eigenvalues --   -0.33815  -0.29640
 Alpha virt. eigenvalues --   -0.14367  -0.11055  -0.09960  -0.09174  -0.08681
 Alpha virt. eigenvalues --   -0.08428  -0.07710  -0.06662  -0.04322  -0.02556
 Alpha virt. eigenvalues --   -0.02092  -0.01580  -0.01196  -0.00392   0.00474

 Mulliken charges:
               1
     1  N   -0.759826
     2  H    0.458768
     3  H    0.408692
     4  H    0.417593
     5  C   -0.110818
     6  H    0.193105
     7  C    0.610652
     8  C   -0.279470
     9  H    0.170371
    10  H    0.210148
    11  O   -0.488791
    12  C   -0.368709
    13  H    0.205653
    14  H    0.188206
    15  C    0.582173
    16  O   -0.429110
    17  O   -0.561968
    18  N   -0.564440
    19  H    0.344286
    20  C   -0.112523
    21  H    0.191130
    22  C    0.664133
    23  C   -0.346800
    24  H    0.201758
    25  H    0.177549
    26  O   -0.601043
    27  C    0.125605
    28  C   -0.187135
    29  H    0.141594
    30  C   -0.227423
    31  H    0.132775
    32  C   -0.164147
    33  H    0.155842
    34  C   -0.195244
    35  H    0.144586
    36  O   -0.684826
    37  C    0.364193
    38  N   -0.606568
    39  H    0.386977
    40  C   -0.027930
    41  H    0.197412
    42  C    0.596093
    43  C   -0.313518
    44  H    0.183282
    45  H    0.174211
    46  O   -0.448439
    47  C   -0.294922
    48  H    0.149062
    49  H    0.151641
    50  C   -0.261117
    51  H    0.153786
    52  H    0.159923
    53  C   -0.154871
    54  H    0.155528
    55  H    0.155648
    56  N   -0.767223
    57  H    0.329903
    58  H    0.460599
    59  H    0.336442
    60  O   -0.572795
    61  H    0.429640
    62  H    0.420696
 Sum of Mulliken charges =   1.00000

 Dipole moment (field-independent basis, Debye):
    X=              1.3090    Y=              1.7142    Z=              5.7049  Tot=              6.0990
 Quadrupole moment (field-independent basis, Debye-Ang):
   XX=           -166.6783   YY=            -98.7444   ZZ=           -141.6736
   XY=             30.5988   XZ=            -22.2172   YZ=            -46.2240

 Normal termination of Gaussian 16 at Tue May 24 03:23:00 2022.
