 Gaussian 16, Revision C.01,
 Gaussian 16:  ES64L-G16RevC.01  3-Jul-2019

 -------------------------------------------------------------------
 # B3LYP/6-31G* guess=read geom=check nosymm integral(ultrafinegrid)
 -------------------------------------------------------------------

 -----------------------------------------------------
 Candidate Structure: Conf:34 Charge calc in gas phase
 -----------------------------------------------------
 Structure from the checkpoint file:  "conf-34.chk"
 Charge =  1 Multiplicity = 1

                          Input orientation:
 ---------------------------------------------------------------------
 Center     Atomic      Atomic             Coordinates (Angstroms)
 Number     Number       Type             X           Y           Z
 ---------------------------------------------------------------------
      1          7           0       -2.070757    0.358936    2.078822
      2          1           0       -6.417844   -3.462029   -0.021044
      3          1           0       -2.453812    0.267787    3.017049
      4          1           0       -2.556745    1.130393    1.623704
      5          6           0       -0.624027    0.578145    2.098879
      6          1           0       -0.185910   -0.257233    2.661612
      7          6           0       -0.126195    0.474219    0.630355
      8          6           0       -0.083215    1.904665    2.645835
      9          1           0       -0.386421    2.704875    1.961682
     10          1           0        1.006400    1.834908    2.586434
     11          8           0        0.590545    1.352715    0.118012
     12          6           0       -0.418328    2.335913    4.067626
     13          1           0       -0.120326    1.591744    4.818512
     14          1           0       -1.488946    2.513934    4.223381
     15          6           0        0.326247    3.625407    4.371353
     16          8           0        1.134008    4.164396    3.624408
     17          8           0        0.012938    4.126868    5.567361
     18          7           0       -0.515158   -0.624283   -0.036225
     19          1           0       -1.257056   -1.171946    0.397118
     20          6           0       -0.305352   -0.839998   -1.473390
     21          1           0       -0.942785   -0.148001   -2.033886
     22          6           0        1.124837   -0.500167   -1.944689
     23          6           0       -0.684258   -2.298990   -1.853093
     24          1           0       -0.671215   -2.348912   -2.947714
     25          1           0        0.097524   -2.981626   -1.499969
     26          8           0        1.302005    0.274935   -2.873773
     27          6           0       -2.023286   -2.743252   -1.303306
     28          6           0       -2.086099   -3.556221   -0.159606
     29          1           0       -1.165201   -3.929626    0.283915
     30          6           0       -3.230686   -2.312009   -1.869477
     31          1           0       -3.218440   -1.695334   -2.765452
     32          6           0       -3.302838   -3.914464    0.413143
     33          1           0       -3.348323   -4.548618    1.292531
     34          6           0       -4.456841   -2.662734   -1.308136
     35          1           0       -5.382476   -2.320930   -1.766957
     36          8           0       -5.654825   -3.811943    0.467087
     37          6           0       -4.497114   -3.456214   -0.153998
     38          7           0        2.151807   -1.137035   -1.299090
     39          1           0        1.959790   -1.936102   -0.706085
     40          6           0        3.513753   -1.033468   -1.803065
     41          1           0        3.443047   -0.657690   -2.828117
     42          6           0        4.119094   -2.429952   -1.818294
     43          6           0        4.426473   -0.059046   -0.990229
     44          1           0        4.908334   -0.592474   -0.159808
     45          1           0        5.230110    0.281900   -1.651891
     46          8           0        3.622743   -3.396700   -1.280267
     47          6           0        3.617915    1.113918   -0.426262
     48          1           0        2.927280    0.698989    0.313153
     49          1           0        2.984428    1.529208   -1.217625
     50          6           0        4.447181    2.233120    0.228100
     51          1           0        5.367186    1.831529    0.672320
     52          1           0        4.769500    2.972537   -0.516241
     53          6           0        3.703912    2.920949    1.374955
     54          1           0        3.539061    2.224047    2.201293
     55          1           0        4.245401    3.787359    1.762751
     56          7           0        2.321000    3.410895    0.991900
     57          1           0        1.855264    3.815905    1.828334
     58          1           0        1.700308    2.631672    0.646501
     59          1           0        2.366430    4.125024    0.258424
     60          8           0        5.296465   -2.452497   -2.466483
     61          1           0        0.527654    4.946922    5.700128
     62          1           0        5.639219   -3.365803   -2.414959
 ---------------------------------------------------------------------

 SCF Done:  E(RB3LYP) =  -1526.23182236     A.U. after    1 cycles

 Alpha  occ. eigenvalues --  -19.32047 -19.28817 -19.27503 -19.25158 -19.24459
 Alpha  occ. eigenvalues --  -19.23352 -19.20293 -14.56690 -14.47029 -14.44856
 Alpha  occ. eigenvalues --  -14.43740 -10.45366 -10.41332 -10.40634 -10.37809
 Alpha  occ. eigenvalues --  -10.37592 -10.34676 -10.33126 -10.32961 -10.32686
 Alpha  occ. eigenvalues --  -10.32528 -10.31427 -10.31148 -10.29086 -10.28927
 Alpha  occ. eigenvalues --  -10.28699 -10.27386 -10.27183 -10.27134 -10.26776
 Alpha  occ. eigenvalues --  -10.26206  -1.23410  -1.19844  -1.15670  -1.14322
 Alpha  occ. eigenvalues --   -1.13292  -1.12360  -1.11451  -1.10923  -1.03888
 Alpha  occ. eigenvalues --   -1.01422  -1.00498  -0.93383  -0.92054  -0.91675
 Alpha  occ. eigenvalues --   -0.88569  -0.86996  -0.84005  -0.82682  -0.82624
 Alpha  occ. eigenvalues --   -0.81114  -0.76684  -0.76042  -0.74121  -0.72189
 Alpha  occ. eigenvalues --   -0.71335  -0.70090  -0.69885  -0.69566  -0.68868
 Alpha  occ. eigenvalues --   -0.68386  -0.67421  -0.66570  -0.64310  -0.62503
 Alpha  occ. eigenvalues --   -0.62145  -0.61938  -0.61333  -0.60824  -0.60478
 Alpha  occ. eigenvalues --   -0.59519  -0.59039  -0.58557  -0.57848  -0.56835
 Alpha  occ. eigenvalues --   -0.56648  -0.55789  -0.55223  -0.54482  -0.54354
 Alpha  occ. eigenvalues --   -0.53765  -0.53278  -0.52911  -0.52370  -0.51971
 Alpha  occ. eigenvalues --   -0.51506  -0.51067  -0.50667  -0.49996  -0.49626
 Alpha  occ. eigenvalues --   -0.49495  -0.49262  -0.48850  -0.48204  -0.47930
 Alpha  occ. eigenvalues --   -0.47137  -0.46981  -0.46818  -0.46344  -0.45033
 Alpha  occ. eigenvalues --   -0.44719  -0.44528  -0.44112  -0.43427  -0.43337
 Alpha  occ. eigenvalues --   -0.41380  -0.41258  -0.40979  -0.40590  -0.38664
 Alpha  occ. eigenvalues --   -0.37286  -0.36969  -0.35529  -0.34577  -0.33840
 Alpha  occ. eigenvalues --   -0.33110  -0.29550
 Alpha virt. eigenvalues --   -0.11935  -0.10689  -0.08396  -0.08175  -0.07919
 Alpha virt. eigenvalues --   -0.07617  -0.06028  -0.04397  -0.03272  -0.02341
 Alpha virt. eigenvalues --   -0.01181  -0.00921  -0.00397  -0.00359   0.00140

 Mulliken charges:
               1
     1  N   -0.719968
     2  H    0.416148
     3  H    0.326440
     4  H    0.317601
     5  C   -0.092579
     6  H    0.176040
     7  C    0.654116
     8  C   -0.268722
     9  H    0.152721
    10  H    0.130054
    11  O   -0.566727
    12  C   -0.374485
    13  H    0.202128
    14  H    0.197361
    15  C    0.616449
    16  O   -0.500616
    17  O   -0.538241
    18  N   -0.619511
    19  H    0.377591
    20  C   -0.029943
    21  H    0.187329
    22  C    0.628671
    23  C   -0.396289
    24  H    0.187467
    25  H    0.165610
    26  O   -0.514521
    27  C    0.138157
    28  C   -0.208620
    29  H    0.135282
    30  C   -0.183750
    31  H    0.142376
    32  C   -0.150381
    33  H    0.155814
    34  C   -0.189190
    35  H    0.137724
    36  O   -0.631573
    37  C    0.355661
    38  N   -0.611319
    39  H    0.345315
    40  C   -0.037596
    41  H    0.217707
    42  C    0.576481
    43  C   -0.285808
    44  H    0.149852
    45  H    0.176278
    46  O   -0.463929
    47  C   -0.287074
    48  H    0.148874
    49  H    0.183354
    50  C   -0.282209
    51  H    0.182048
    52  H    0.171011
    53  C   -0.200633
    54  H    0.201666
    55  H    0.205717
    56  N   -0.812200
    57  H    0.438924
    58  H    0.464088
    59  H    0.398327
    60  O   -0.555116
    61  H    0.432436
    62  H    0.428184
 Sum of Mulliken charges =   1.00000

 Dipole moment (field-independent basis, Debye):
    X=              5.0880    Y=              8.6018    Z=              8.0637  Tot=             12.8414
 Quadrupole moment (field-independent basis, Debye-Ang):
   XX=           -107.1541   YY=           -130.2956   ZZ=           -146.9021
   XY=             18.2709   XZ=              6.8676   YZ=             35.8918

 Normal termination of Gaussian 16 at Tue May 24 03:23:12 2022.
