 Gaussian 16, Revision C.01,
 Gaussian 16:  ES64L-G16RevC.01  3-Jul-2019

 -------------------------------------------------------------------
 # B3LYP/6-31G* guess=read geom=check nosymm integral(ultrafinegrid)
 -------------------------------------------------------------------

 ------------------------------------------------------
 Candidate Structure: Conf:497 Charge calc in gas phase
 ------------------------------------------------------
 Structure from the checkpoint file:  "conf-497.chk"
 Charge =  1 Multiplicity = 1

                          Input orientation:
 ---------------------------------------------------------------------
 Center     Atomic      Atomic             Coordinates (Angstroms)
 Number     Number       Type             X           Y           Z
 ---------------------------------------------------------------------
      1          7           0       -0.108532   -1.970719    3.181063
      2          1           0        0.416835   -1.164186    2.758186
      3          1           0       -0.088751   -1.958199    4.212572
      4          1           0        0.332756   -2.823930    2.819172
      5          6           0       -1.544942   -1.896115    2.682297
      6          1           0       -1.979231   -1.035298    3.197179
      7          6           0       -1.318123   -1.644792    1.172519
      8          6           0       -2.327848   -3.180218    2.967218
      9          1           0       -2.012487   -3.940976    2.245270
     10          1           0       -3.380241   -2.959491    2.756843
     11          8           0       -0.786479   -2.534925    0.525661
     12          6           0       -2.203766   -3.770384    4.393445
     13          1           0       -1.212841   -4.213707    4.544309
     14          1           0       -2.939040   -4.571041    4.497489
     15          6           0       -2.463933   -2.767816    5.499786
     16          8           0       -3.493913   -2.587310    6.089298
     17          8           0       -1.332528   -2.016728    5.754826
     18          7           0       -1.596459   -0.388941    0.725673
     19          1           0       -1.950770    0.250383    1.426513
     20          6           0       -0.728662    0.250862   -0.271168
     21          1           0       -1.133985    1.258324   -0.413210
     22          6           0        0.678965    0.412799    0.380307
     23          6           0       -0.758899   -0.465422   -1.653257
     24          1           0       -0.182146   -1.390561   -1.596411
     25          1           0       -1.803405   -0.760187   -1.809385
     26          8           0        0.928196   -0.026444    1.518725
     27          6           0       -0.281992    0.398335   -2.802918
     28          6           0       -1.005473    1.533905   -3.209352
     29          1           0       -1.938162    1.787841   -2.707864
     30          6           0        0.880792    0.076639   -3.517547
     31          1           0        1.435029   -0.824061   -3.261285
     32          6           0       -0.555415    2.352362   -4.238843
     33          1           0       -1.103589    3.242700   -4.530179
     34          6           0        1.336834    0.881598   -4.561607
     35          1           0        2.234253    0.611303   -5.111493
     36          8           0        1.103661    2.933177   -5.824598
     37          6           0        0.648770    2.058660   -4.900894
     38          7           0        1.606332    1.088854   -0.312680
     39          1           0        1.386272    1.406810   -1.250865
     40          6           0        2.956526    1.280329    0.224413
     41          1           0        3.337160    0.302437    0.533099
     42          6           0        2.984683    2.133261    1.494629
     43          6           0        3.914096    1.865179   -0.839688
     44          1           0        4.933717    1.656440   -0.499903
     45          1           0        3.769809    1.276964   -1.754847
     46          8           0        3.874718    2.065044    2.308052
     47          6           0        3.780020    3.376740   -1.126310
     48          1           0        4.290851    3.932794   -0.332250
     49          1           0        2.726790    3.687213   -1.080440
     50          6           0        4.353841    3.766956   -2.505712
     51          1           0        4.609012    4.833580   -2.521144
     52          1           0        5.289121    3.218520   -2.688916
     53          6           0        3.325265    3.447790   -3.599055
     54          1           0        2.918647    2.450078   -3.413467
     55          1           0        2.477932    4.137900   -3.512195
     56          7           0        3.747620    3.461642   -5.009681
     57          1           0        2.099076    2.973961   -5.795570
     58          1           0        4.562173    2.864245   -5.148320
     59          1           0        4.027045    4.399430   -5.295945
     60          8           0        1.957377    3.008459    1.579283
     61          1           0       -1.549357   -1.405716    6.486746
     62          1           0        2.115629    3.533695    2.387595
 ---------------------------------------------------------------------

 SCF Done:  E(RB3LYP) =  -1526.21272092     A.U. after    1 cycles

 Alpha  occ. eigenvalues --  -19.33467 -19.29530 -19.27056 -19.26154 -19.25687
 Alpha  occ. eigenvalues --  -19.23453 -19.22339 -14.58726 -14.49871 -14.48596
 Alpha  occ. eigenvalues --  -14.42099 -10.45182 -10.43444 -10.42078 -10.41798
 Alpha  occ. eigenvalues --  -10.40607 -10.36562 -10.34789 -10.34483 -10.33900
 Alpha  occ. eigenvalues --  -10.32374 -10.29679 -10.29650 -10.29635 -10.28065
 Alpha  occ. eigenvalues --  -10.28038 -10.27774 -10.27672 -10.27229 -10.26684
 Alpha  occ. eigenvalues --  -10.26394  -1.23424  -1.20341  -1.18814  -1.16620
 Alpha  occ. eigenvalues --   -1.14867  -1.13291  -1.11274  -1.11016  -1.06481
 Alpha  occ. eigenvalues --   -1.04925  -0.97853  -0.95036  -0.93936  -0.91204
 Alpha  occ. eigenvalues --   -0.89525  -0.87290  -0.85472  -0.82943  -0.82403
 Alpha  occ. eigenvalues --   -0.79228  -0.78500  -0.76133  -0.74416  -0.74168
 Alpha  occ. eigenvalues --   -0.73162  -0.72648  -0.71263  -0.70115  -0.69918
 Alpha  occ. eigenvalues --   -0.69707  -0.67586  -0.66655  -0.65924  -0.64245
 Alpha  occ. eigenvalues --   -0.63730  -0.61789  -0.61499  -0.61186  -0.60871
 Alpha  occ. eigenvalues --   -0.59586  -0.59495  -0.58651  -0.57779  -0.57622
 Alpha  occ. eigenvalues --   -0.56717  -0.56503  -0.56074  -0.55720  -0.55114
 Alpha  occ. eigenvalues --   -0.54855  -0.54475  -0.53839  -0.53541  -0.52871
 Alpha  occ. eigenvalues --   -0.52028  -0.51387  -0.51075  -0.50525  -0.50491
 Alpha  occ. eigenvalues --   -0.50247  -0.50198  -0.49645  -0.49215  -0.48803
 Alpha  occ. eigenvalues --   -0.47833  -0.47400  -0.46609  -0.45315  -0.45301
 Alpha  occ. eigenvalues --   -0.45180  -0.44383  -0.43449  -0.43174  -0.42097
 Alpha  occ. eigenvalues --   -0.41630  -0.41228  -0.40608  -0.40295  -0.39980
 Alpha  occ. eigenvalues --   -0.39457  -0.38982  -0.38308  -0.36326  -0.34340
 Alpha  occ. eigenvalues --   -0.33476  -0.29524
 Alpha virt. eigenvalues --   -0.13916  -0.12464  -0.11098  -0.08845  -0.08624
 Alpha virt. eigenvalues --   -0.08524  -0.07732  -0.06491  -0.05105  -0.02334
 Alpha virt. eigenvalues --   -0.01579  -0.01558  -0.01138  -0.00430  -0.00093

 Mulliken charges:
               1
     1  N   -0.776931
     2  H    0.453801
     3  H    0.428882
     4  H    0.410236
     5  C   -0.107623
     6  H    0.194521
     7  C    0.610801
     8  C   -0.298801
     9  H    0.212604
    10  H    0.208015
    11  O   -0.489867
    12  C   -0.371993
    13  H    0.177149
    14  H    0.227874
    15  C    0.581210
    16  O   -0.399863
    17  O   -0.608627
    18  N   -0.566054
    19  H    0.343165
    20  C   -0.106970
    21  H    0.194921
    22  C    0.662722
    23  C   -0.349466
    24  H    0.191284
    25  H    0.185637
    26  O   -0.592840
    27  C    0.118940
    28  C   -0.192938
    29  H    0.130822
    30  C   -0.207806
    31  H    0.136785
    32  C   -0.159818
    33  H    0.156388
    34  C   -0.198039
    35  H    0.143370
    36  O   -0.677230
    37  C    0.374543
    38  N   -0.607139
    39  H    0.372668
    40  C   -0.021063
    41  H    0.195584
    42  C    0.602685
    43  C   -0.320642
    44  H    0.188422
    45  H    0.162651
    46  O   -0.452621
    47  C   -0.288042
    48  H    0.165658
    49  H    0.150505
    50  C   -0.270852
    51  H    0.153900
    52  H    0.140702
    53  C   -0.161794
    54  H    0.151237
    55  H    0.167161
    56  N   -0.758678
    57  H    0.451905
    58  H    0.320064
    59  H    0.329729
    60  O   -0.569302
    61  H    0.437338
    62  H    0.421115
 Sum of Mulliken charges =   1.00000

 Dipole moment (field-independent basis, Debye):
    X=              2.3164    Y=             -0.7690    Z=              8.0407  Tot=              8.4029
 Quadrupole moment (field-independent basis, Debye-Ang):
   XX=           -152.7593   YY=           -138.0631   ZZ=           -129.6127
   XY=             20.9920   XZ=            -34.3090   YZ=            -33.2806

 Normal termination of Gaussian 16 at Tue May 24 03:23:54 2022.
