 Gaussian 16, Revision C.01,
 Gaussian 16:  ES64L-G16RevC.01  3-Jul-2019

 -------------------------------------------------------------------
 # B3LYP/6-31G* guess=read geom=check nosymm integral(ultrafinegrid)
 -------------------------------------------------------------------

 ------------------------------------------------------
 Candidate Structure: Conf:746 Charge calc in gas phase
 ------------------------------------------------------
 Structure from the checkpoint file:  "conf-746.chk"
 Charge =  1 Multiplicity = 1

                          Input orientation:
 ---------------------------------------------------------------------
 Center     Atomic      Atomic             Coordinates (Angstroms)
 Number     Number       Type             X           Y           Z
 ---------------------------------------------------------------------
      1          7           0        0.052291   -3.559553    3.295321
      2          1           0        0.948707   -3.204504    3.630605
      3          1           0       -0.391398   -4.085225    4.046810
      4          1           0        0.248268   -4.195551    2.520966
      5          6           0       -0.800845   -2.456423    2.813440
      6          1           0       -0.920279   -1.720558    3.614631
      7          6           0       -0.111643   -1.781667    1.627659
      8          6           0       -2.188094   -2.940303    2.401559
      9          1           0       -2.077912   -3.722177    1.647671
     10          1           0       -2.720493   -2.112843    1.917299
     11          8           0        0.740222   -2.355362    0.973265
     12          6           0       -3.029010   -3.456706    3.566248
     13          1           0       -3.140478   -2.693031    4.334564
     14          1           0       -2.564985   -4.334146    4.030022
     15          6           0       -4.401871   -3.853920    3.110207
     16          8           0       -5.446020   -3.402924    3.506683
     17          8           0       -4.348541   -4.826243    2.164382
     18          7           0       -0.516392   -0.505700    1.371833
     19          1           0       -1.314241   -0.144523    1.861332
     20          6           0       -0.137126    0.186948    0.148658
     21          1           0       -0.682270    1.135590    0.191066
     22          6           0        1.364025    0.515986    0.088612
     23          6           0       -0.586109   -0.545208   -1.132702
     24          1           0       -0.295408    0.072924   -1.980948
     25          1           0       -0.052128   -1.487313   -1.215371
     26          8           0        1.967489    0.587750   -0.973116
     27          6           0       -2.050872   -0.764669   -1.110241
     28          6           0       -2.590340   -2.030688   -0.826945
     29          1           0       -1.916082   -2.858095   -0.625116
     30          6           0       -2.926709    0.317811   -1.327562
     31          1           0       -2.489473    1.292203   -1.529914
     32          6           0       -3.941815   -2.235695   -0.784913
     33          1           0       -4.368866   -3.203536   -0.567352
     34          6           0       -4.287460    0.169484   -1.291831
     35          1           0       -4.962323    0.998943   -1.459135
     36          8           0       -6.091018   -1.301571   -0.942947
     37          6           0       -4.871477   -1.134370   -1.000697
     38          7           0        1.953911    0.789501    1.270892
     39          1           0        1.463965    0.662000    2.141979
     40          6           0        3.351477    1.157992    1.318293
     41          1           0        3.887769    0.580766    0.555915
     42          6           0        3.880501    0.804248    2.686758
     43          6           0        3.537558    2.655392    1.024286
     44          1           0        3.049747    2.846802    0.065491
     45          1           0        2.990325    3.225872    1.781425
     46          8           0        3.217887    0.746490    3.692199
     47          6           0        4.987050    3.123824    0.954536
     48          1           0        5.488631    3.009730    1.919957
     49          1           0        4.982639    4.197882    0.739355
     50          6           0        5.783770    2.417645   -0.129781
     51          1           0        5.873664    1.351833    0.088453
     52          1           0        5.259986    2.506696   -1.086268
     53          6           0        7.172177    3.000972   -0.272009
     54          1           0        7.093377    4.071224   -0.476480
     55          1           0        7.699515    2.890020    0.678656
     56          7           0        7.953584    2.349998   -1.353762
     57          1           0        8.900934    2.722327   -1.425569
     58          1           0        7.503516    2.481170   -2.259114
     59          1           0        8.028626    1.346026   -1.195392
     60          8           0        5.209174    0.581188    2.674227
     61          1           0       -5.265252   -5.012175    1.924710
     62          1           0        5.458388    0.405338    3.589528
 ---------------------------------------------------------------------

 SCF Done:  E(RB3LYP) =  -1526.04985969     A.U. after    3 cycles

 Alpha  occ. eigenvalues --  -19.32304 -19.26621 -19.26447 -19.24814 -19.21397
 Alpha  occ. eigenvalues --  -19.19955 -19.04855 -14.63724 -14.62985 -14.47616
 Alpha  occ. eigenvalues --  -14.45430 -10.44185 -10.41950 -10.41039 -10.40228
 Alpha  occ. eigenvalues --  -10.39981 -10.37195 -10.34853 -10.34102 -10.32100
 Alpha  occ. eigenvalues --  -10.31889 -10.31339 -10.31117 -10.30529 -10.22236
 Alpha  occ. eigenvalues --  -10.20710 -10.18703 -10.18244 -10.17667 -10.15872
 Alpha  occ. eigenvalues --  -10.15796  -1.23639  -1.19251  -1.19002  -1.17987
 Alpha  occ. eigenvalues --   -1.16108  -1.14500  -1.12450  -1.08933  -1.04364
 Alpha  occ. eigenvalues --   -1.02476  -0.96303  -0.95835  -0.94801  -0.90740
 Alpha  occ. eigenvalues --   -0.88232  -0.85714  -0.84912  -0.81778  -0.80016
 Alpha  occ. eigenvalues --   -0.78141  -0.77153  -0.76775  -0.76667  -0.75229
 Alpha  occ. eigenvalues --   -0.74494  -0.73775  -0.73729  -0.71935  -0.69782
 Alpha  occ. eigenvalues --   -0.69138  -0.68402  -0.67294  -0.67118  -0.65144
 Alpha  occ. eigenvalues --   -0.63449  -0.63205  -0.61898  -0.61356  -0.59895
 Alpha  occ. eigenvalues --   -0.59495  -0.59409  -0.58456  -0.58128  -0.56822
 Alpha  occ. eigenvalues --   -0.56061  -0.55849  -0.55601  -0.54788  -0.54219
 Alpha  occ. eigenvalues --   -0.53869  -0.53335  -0.53109  -0.52304  -0.51819
 Alpha  occ. eigenvalues --   -0.51216  -0.50395  -0.49760  -0.49176  -0.48221
 Alpha  occ. eigenvalues --   -0.47618  -0.47368  -0.47111  -0.46858  -0.46639
 Alpha  occ. eigenvalues --   -0.46067  -0.45771  -0.44419  -0.44162  -0.43785
 Alpha  occ. eigenvalues --   -0.41551  -0.41017  -0.40201  -0.39007  -0.38646
 Alpha  occ. eigenvalues --   -0.37529  -0.37189  -0.36347  -0.34976  -0.34957
 Alpha  occ. eigenvalues --   -0.33830  -0.33450  -0.33367  -0.29387  -0.24851
 Alpha  occ. eigenvalues --   -0.18582  -0.15564
 Alpha virt. eigenvalues --   -0.14679  -0.12844  -0.11357  -0.11096  -0.08060
 Alpha virt. eigenvalues --   -0.07933  -0.07569  -0.06454  -0.06327  -0.05825
 Alpha virt. eigenvalues --   -0.05470  -0.03633  -0.03359  -0.01868  -0.01216

 Mulliken charges:
               1
     1  N   -0.709207
     2  H    0.424555
     3  H    0.422693
     4  H    0.430264
     5  C   -0.164116
     6  H    0.206952
     7  C    0.648519
     8  C   -0.300834
     9  H    0.209394
    10  H    0.247801
    11  O   -0.512606
    12  C   -0.366851
    13  H    0.192181
    14  H    0.146611
    15  C    0.594256
    16  O   -0.417519
    17  O   -0.565311
    18  N   -0.617099
    19  H    0.354665
    20  C   -0.075861
    21  H    0.188383
    22  C    0.655026
    23  C   -0.362493
    24  H    0.168220
    25  H    0.162645
    26  O   -0.533709
    27  C    0.127157
    28  C   -0.207761
    29  H    0.058826
    30  C   -0.194434
    31  H    0.076892
    32  C   -0.238043
    33  H    0.076839
    34  C   -0.217282
    35  H    0.103462
    36  O   -0.606297
    37  C    0.415087
    38  N   -0.624030
    39  H    0.336557
    40  C   -0.013022
    41  H    0.188798
    42  C    0.571206
    43  C   -0.281492
    44  H    0.193887
    45  H    0.171023
    46  O   -0.463903
    47  C   -0.280807
    48  H    0.160957
    49  H    0.163498
    50  C   -0.289512
    51  H    0.173309
    52  H    0.179228
    53  C   -0.221330
    54  H    0.221334
    55  H    0.218947
    56  N   -0.659063
    57  H    0.383564
    58  H    0.383525
    59  H    0.377856
    60  O   -0.571957
    61  H    0.438477
    62  H    0.421944
 Sum of Mulliken charges =   1.00000

 Dipole moment (field-independent basis, Debye):
    X=             42.8446    Y=              1.5014    Z=             14.1592  Tot=             45.1486
 Quadrupole moment (field-independent basis, Debye-Ang):
   XX=            -16.0195   YY=            -99.6338   ZZ=           -131.7866
   XY=             66.4388   XZ=            -37.9142   YZ=            -59.4350

 Normal termination of Gaussian 16 at Tue May 24 03:24:18 2022.
