 Gaussian 16, Revision C.01,
 Gaussian 16:  ES64L-G16RevC.01  3-Jul-2019

 -------------------------------------------------------------------
 # B3LYP/6-31G* guess=read geom=check nosymm integral(ultrafinegrid)
 -------------------------------------------------------------------

 ------------------------------------------------------
 Candidate Structure: Conf:306 Charge calc in gas phase
 ------------------------------------------------------
 Structure from the checkpoint file:  "conf-306.chk"
 Charge =  1 Multiplicity = 1

                          Input orientation:
 ---------------------------------------------------------------------
 Center     Atomic      Atomic             Coordinates (Angstroms)
 Number     Number       Type             X           Y           Z
 ---------------------------------------------------------------------
      1          7           0       -0.264323   -1.295030    3.020351
      2          1           0        0.380360   -0.660135    2.480479
      3          1           0       -0.121031   -1.218947    4.031787
      4          1           0       -0.045596   -2.251685    2.710969
      5          6           0       -1.693236   -0.984652    2.584971
      6          1           0       -1.903215    0.027444    2.943639
      7          6           0       -1.511715   -1.062186    1.046456
      8          6           0       -2.667777   -2.007028    3.160844
      9          1           0       -2.566418   -2.048122    4.250923
     10          1           0       -2.408847   -2.994703    2.761456
     11          8           0       -1.134390   -2.136961    0.601549
     12          6           0       -4.121488   -1.662062    2.797178
     13          1           0       -4.271393   -1.635567    1.714387
     14          1           0       -4.382968   -0.670090    3.191735
     15          6           0       -5.142224   -2.643917    3.354093
     16          8           0       -6.127135   -3.013011    2.766010
     17          8           0       -4.826173   -3.031309    4.613643
     18          7           0       -1.655732    0.106884    0.357121
     19          1           0       -1.979869    0.885525    0.919345
     20          6           0       -0.689013    0.515806   -0.675380
     21          1           0       -1.056243    1.468756   -1.069363
     22          6           0        0.663797    0.804500    0.048375
     23          6           0       -0.573519   -0.495884   -1.874103
     24          1           0       -0.735324   -1.499311   -1.482936
     25          1           0       -1.394881   -0.271744   -2.562602
     26          8           0        0.989724    0.222969    1.097431
     27          6           0        0.772901   -0.417018   -2.553379
     28          6           0        1.042345    0.487746   -3.590887
     29          1           0        0.224042    1.034339   -4.057205
     30          6           0        1.843358   -1.152537   -2.024393
     31          1           0        1.651295   -1.890783   -1.248933
     32          6           0        2.349533    0.726281   -4.017833
     33          1           0        2.561654    1.444770   -4.803757
     34          6           0        3.150907   -0.927146   -2.441669
     35          1           0        3.971968   -1.498156   -2.018168
     36          8           0        4.688991    0.400885   -3.734985
     37          6           0        3.424052    0.062192   -3.402608
     38          7           0        1.421820    1.760760   -0.516764
     39          1           0        1.139691    2.059557   -1.444660
     40          6           0        2.853157    1.971683   -0.250155
     41          1           0        3.411637    1.166279   -0.734574
     42          6           0        3.219302    1.914640    1.224745
     43          6           0        3.268637    3.346066   -0.829716
     44          1           0        2.937194    3.381279   -1.876169
     45          1           0        2.700625    4.110509   -0.287592
     46          8           0        4.205355    1.339799    1.634026
     47          6           0        4.776978    3.675283   -0.771672
     48          1           0        5.194795    3.358014    0.192508
     49          1           0        4.850113    4.767857   -0.768136
     50          6           0        5.647379    3.133412   -1.941063
     51          1           0        5.017759    2.731879   -2.743384
     52          1           0        6.190957    3.978001   -2.379891
     53          6           0        6.701154    2.077017   -1.584628
     54          1           0        7.387183    1.974932   -2.432153
     55          1           0        7.299555    2.420692   -0.726777
     56          7           0        6.116534    0.734558   -1.348187
     57          1           0        5.257500    0.334651   -2.910590
     58          1           0        5.594617    0.735776   -0.469084
     59          1           0        6.873392    0.064556   -1.208538
     60          8           0        2.424961    2.673020    2.007526
     61          1           0       -5.536062   -3.633476    4.910246
     62          1           0        2.820838    2.654337    2.899961
 ---------------------------------------------------------------------

 SCF Done:  E(RB3LYP) =  -1526.19777441     A.U. after    1 cycles

 Alpha  occ. eigenvalues --  -19.30335 -19.29600 -19.26969 -19.26497 -19.24723
 Alpha  occ. eigenvalues --  -19.23663 -19.22481 -14.60319 -14.50619 -14.49168
 Alpha  occ. eigenvalues --  -14.42004 -10.44287 -10.42937 -10.42751 -10.42301
 Alpha  occ. eigenvalues --  -10.41249 -10.37210 -10.34862 -10.34092 -10.32548
 Alpha  occ. eigenvalues --  -10.32548 -10.29750 -10.29564 -10.29381 -10.27973
 Alpha  occ. eigenvalues --  -10.27820 -10.27616 -10.27589 -10.26848 -10.26783
 Alpha  occ. eigenvalues --  -10.26330  -1.21347  -1.20341  -1.19634  -1.17264
 Alpha  occ. eigenvalues --   -1.14428  -1.12238  -1.11466  -1.11192  -1.07147
 Alpha  occ. eigenvalues --   -1.05694  -0.97603  -0.95177  -0.94072  -0.91301
 Alpha  occ. eigenvalues --   -0.89143  -0.86731  -0.85009  -0.83071  -0.82615
 Alpha  occ. eigenvalues --   -0.79230  -0.78641  -0.76339  -0.75059  -0.74822
 Alpha  occ. eigenvalues --   -0.72446  -0.72032  -0.71065  -0.70503  -0.70020
 Alpha  occ. eigenvalues --   -0.69320  -0.67455  -0.66668  -0.65978  -0.64428
 Alpha  occ. eigenvalues --   -0.63966  -0.62024  -0.61475  -0.60071  -0.59634
 Alpha  occ. eigenvalues --   -0.59213  -0.58850  -0.58172  -0.57651  -0.57322
 Alpha  occ. eigenvalues --   -0.56837  -0.56396  -0.56157  -0.55673  -0.55474
 Alpha  occ. eigenvalues --   -0.55155  -0.54843  -0.54181  -0.52608  -0.52389
 Alpha  occ. eigenvalues --   -0.51738  -0.51692  -0.50947  -0.50423  -0.50137
 Alpha  occ. eigenvalues --   -0.49698  -0.49419  -0.49053  -0.48656  -0.48366
 Alpha  occ. eigenvalues --   -0.48187  -0.47791  -0.46942  -0.46498  -0.45457
 Alpha  occ. eigenvalues --   -0.43697  -0.43124  -0.42456  -0.42103  -0.41776
 Alpha  occ. eigenvalues --   -0.41614  -0.41571  -0.41148  -0.40032  -0.39243
 Alpha  occ. eigenvalues --   -0.38696  -0.38492  -0.37960  -0.37244  -0.34679
 Alpha  occ. eigenvalues --   -0.33739  -0.29704
 Alpha virt. eigenvalues --   -0.15166  -0.11701  -0.10251  -0.09924  -0.09105
 Alpha virt. eigenvalues --   -0.09062  -0.08156  -0.07128  -0.04685  -0.03219
 Alpha virt. eigenvalues --   -0.02934  -0.02541  -0.01577  -0.01128  -0.00436

 Mulliken charges:
               1
     1  N   -0.758450
     2  H    0.455971
     3  H    0.408023
     4  H    0.419586
     5  C   -0.111940
     6  H    0.190720
     7  C    0.618105
     8  C   -0.280729
     9  H    0.186906
    10  H    0.197408
    11  O   -0.486647
    12  C   -0.371064
    13  H    0.205174
    14  H    0.188374
    15  C    0.585727
    16  O   -0.424935
    17  O   -0.566607
    18  N   -0.569898
    19  H    0.343591
    20  C   -0.091403
    21  H    0.180886
    22  C    0.657895
    23  C   -0.366359
    24  H    0.218675
    25  H    0.175579
    26  O   -0.592037
    27  C    0.133434
    28  C   -0.226001
    29  H    0.137427
    30  C   -0.182901
    31  H    0.137724
    32  C   -0.168595
    33  H    0.156624
    34  C   -0.193410
    35  H    0.143778
    36  O   -0.678537
    37  C    0.359546
    38  N   -0.594368
    39  H    0.356090
    40  C   -0.016853
    41  H    0.203941
    42  C    0.608751
    43  C   -0.317758
    44  H    0.162518
    45  H    0.172815
    46  O   -0.468943
    47  C   -0.292139
    48  H    0.157755
    49  H    0.164757
    50  C   -0.283444
    51  H    0.169240
    52  H    0.160251
    53  C   -0.150687
    54  H    0.166991
    55  H    0.148435
    56  N   -0.787126
    57  H    0.459446
    58  H    0.333196
    59  H    0.329623
    60  O   -0.563695
    61  H    0.430481
    62  H    0.419085
 Sum of Mulliken charges =   1.00000

 Dipole moment (field-independent basis, Debye):
    X=              1.9602    Y=              2.4788    Z=             11.0416  Tot=             11.4849
 Quadrupole moment (field-independent basis, Debye-Ang):
   XX=           -139.0039   YY=           -156.0322   ZZ=           -131.6951
   XY=             14.2144   XZ=            -17.7316   YZ=            -24.9244

 Normal termination of Gaussian 16 at Tue May 24 03:23:04 2022.
