 Gaussian 16, Revision C.01,
 Gaussian 16:  ES64L-G16RevC.01  3-Jul-2019

 -------------------------------------------------------------------
 # B3LYP/6-31G* guess=read geom=check nosymm integral(ultrafinegrid)
 -------------------------------------------------------------------

 ------------------------------------------------------
 Candidate Structure: Conf:669 Charge calc in gas phase
 ------------------------------------------------------
 Structure from the checkpoint file:  "conf-669.chk"
 Charge =  1 Multiplicity = 1

                          Input orientation:
 ---------------------------------------------------------------------
 Center     Atomic      Atomic             Coordinates (Angstroms)
 Number     Number       Type             X           Y           Z
 ---------------------------------------------------------------------
      1          7           0        0.483387   -3.042670    2.721776
      2          1           0        1.014141   -2.163403    2.533721
      3          1           0        0.736313   -3.450366    3.626452
      4          1           0        0.712055   -3.687797    1.950692
      5          6           0       -0.987790   -2.684485    2.590664
      6          1           0       -1.176105   -1.889762    3.308384
      7          6           0       -1.005125   -2.165228    1.131604
      8          6           0       -1.879355   -3.900716    2.849388
      9          1           0       -1.771560   -4.214079    3.895557
     10          1           0       -1.543332   -4.732246    2.218625
     11          8           0       -0.468043   -2.876882    0.288618
     12          6           0       -3.368298   -3.652614    2.532129
     13          1           0       -3.949588   -4.540980    2.788645
     14          1           0       -3.493940   -3.495108    1.452246
     15          6           0       -3.965260   -2.438057    3.218912
     16          8           0       -3.411250   -1.355636    3.325775
     17          8           0       -5.200948   -2.671354    3.671978
     18          7           0       -1.518824   -0.921108    0.936680
     19          1           0       -1.969915   -0.532518    1.760011
     20          6           0       -0.776051    0.049163    0.122217
     21          1           0       -1.337065    0.987249    0.180630
     22          6           0        0.599517    0.272692    0.823847
     23          6           0       -0.680240   -0.352815   -1.377843
     24          1           0       -0.142423   -1.298923   -1.458668
     25          1           0       -1.710200   -0.543022   -1.702826
     26          8           0        1.055530   -0.550454    1.637879
     27          6           0       -0.024595    0.710643   -2.227660
     28          6           0       -0.673229    1.925437   -2.505993
     29          1           0       -1.699527    2.077995   -2.175189
     30          6           0        1.276582    0.534768   -2.716588
     31          1           0        1.789697   -0.409088   -2.544278
     32          6           0       -0.028663    2.949057   -3.194922
     33          1           0       -0.525045    3.893657   -3.394174
     34          6           0        1.931432    1.546031   -3.414609
     35          1           0        2.939575    1.392257   -3.789266
     36          8           0        1.917218    3.822557   -4.221057
     37          6           0        1.297823    2.781766   -3.626337
     38          7           0        1.252135    1.415186    0.556422
     39          1           0        0.901549    2.020129   -0.177355
     40          6           0        2.572537    1.684695    1.132432
     41          1           0        3.286155    0.941928    0.760298
     42          6           0        2.572045    1.528939    2.655463
     43          6           0        3.084793    3.103833    0.802784
     44          1           0        2.434370    3.840812    1.290297
     45          1           0        4.064891    3.183454    1.289302
     46          8           0        3.490079    1.058033    3.283108
     47          6           0        3.230705    3.441223   -0.691581
     48          1           0        2.247557    3.642933   -1.134472
     49          1           0        3.638490    2.580099   -1.233921
     50          6           0        4.138894    4.667644   -0.892109
     51          1           0        3.844536    5.456399   -0.186638
     52          1           0        5.170350    4.395413   -0.622739
     53          6           0        4.127361    5.295920   -2.289688
     54          1           0        3.125650    5.678409   -2.517135
     55          1           0        4.809907    6.157566   -2.279035
     56          7           0        4.476613    4.336942   -3.366660
     57          1           0        2.899285    3.783415   -4.033904
     58          1           0        5.273162    3.764807   -3.085586
     59          1           0        4.789242    4.857066   -4.186887
     60          8           0        1.476802    2.078462    3.230709
     61          1           0       -5.543413   -1.839700    4.055490
     62          1           0        1.616288    2.015177    4.194777
 ---------------------------------------------------------------------

 SCF Done:  E(RB3LYP) =  -1526.22143280     A.U. after    1 cycles

 Alpha  occ. eigenvalues --  -19.31667 -19.28837 -19.26492 -19.25543 -19.24978
 Alpha  occ. eigenvalues --  -19.22931 -19.21945 -14.59109 -14.48117 -14.47999
 Alpha  occ. eigenvalues --  -14.42084 -10.44806 -10.42620 -10.41300 -10.41280
 Alpha  occ. eigenvalues --  -10.39305 -10.35697 -10.34361 -10.34152 -10.33137
 Alpha  occ. eigenvalues --  -10.31846 -10.29513 -10.28995 -10.28802 -10.27584
 Alpha  occ. eigenvalues --  -10.27323 -10.27245 -10.27126 -10.26994 -10.26073
 Alpha  occ. eigenvalues --  -10.25963  -1.22857  -1.19753  -1.18244  -1.15898
 Alpha  occ. eigenvalues --   -1.13767  -1.13117  -1.10694  -1.10687  -1.05232
 Alpha  occ. eigenvalues --   -1.04252  -0.97757  -0.94631  -0.93311  -0.90539
 Alpha  occ. eigenvalues --   -0.88527  -0.86406  -0.85120  -0.82365  -0.81812
 Alpha  occ. eigenvalues --   -0.79227  -0.78616  -0.75303  -0.73910  -0.72989
 Alpha  occ. eigenvalues --   -0.72581  -0.71829  -0.70134  -0.69455  -0.69086
 Alpha  occ. eigenvalues --   -0.68663  -0.67039  -0.66343  -0.65396  -0.63853
 Alpha  occ. eigenvalues --   -0.63015  -0.61449  -0.61209  -0.60741  -0.59874
 Alpha  occ. eigenvalues --   -0.58835  -0.58398  -0.58312  -0.57844  -0.56483
 Alpha  occ. eigenvalues --   -0.56077  -0.55844  -0.55509  -0.55019  -0.54361
 Alpha  occ. eigenvalues --   -0.53991  -0.53715  -0.53397  -0.53099  -0.52022
 Alpha  occ. eigenvalues --   -0.51761  -0.51141  -0.50429  -0.50193  -0.50044
 Alpha  occ. eigenvalues --   -0.49654  -0.49293  -0.48703  -0.48518  -0.48124
 Alpha  occ. eigenvalues --   -0.47535  -0.47027  -0.46379  -0.45065  -0.44638
 Alpha  occ. eigenvalues --   -0.43906  -0.43162  -0.42995  -0.42288  -0.41934
 Alpha  occ. eigenvalues --   -0.41191  -0.40786  -0.40107  -0.39841  -0.39151
 Alpha  occ. eigenvalues --   -0.38736  -0.38339  -0.37279  -0.35978  -0.34295
 Alpha  occ. eigenvalues --   -0.32988  -0.28956
 Alpha virt. eigenvalues --   -0.13481  -0.11856  -0.10208  -0.08771  -0.08320
 Alpha virt. eigenvalues --   -0.08040  -0.06948  -0.03687  -0.02839  -0.02536
 Alpha virt. eigenvalues --   -0.02246  -0.01719  -0.01283  -0.00224   0.00643

 Mulliken charges:
               1
     1  N   -0.753007
     2  H    0.455836
     3  H    0.405323
     4  H    0.415400
     5  C   -0.103377
     6  H    0.223980
     7  C    0.610040
     8  C   -0.286949
     9  H    0.177656
    10  H    0.188305
    11  O   -0.507069
    12  C   -0.378307
    13  H    0.214000
    14  H    0.218484
    15  C    0.604210
    16  O   -0.485855
    17  O   -0.532822
    18  N   -0.579245
    19  H    0.370419
    20  C   -0.104851
    21  H    0.184597
    22  C    0.669472
    23  C   -0.352929
    24  H    0.196441
    25  H    0.176747
    26  O   -0.592030
    27  C    0.131055
    28  C   -0.212435
    29  H    0.131844
    30  C   -0.192625
    31  H    0.133114
    32  C   -0.166702
    33  H    0.152667
    34  C   -0.189363
    35  H    0.139360
    36  O   -0.686479
    37  C    0.361867
    38  N   -0.610945
    39  H    0.370996
    40  C    0.003292
    41  H    0.187744
    42  C    0.586908
    43  C   -0.322985
    44  H    0.170273
    45  H    0.178504
    46  O   -0.458251
    47  C   -0.272565
    48  H    0.154208
    49  H    0.151088
    50  C   -0.285948
    51  H    0.156923
    52  H    0.145360
    53  C   -0.136571
    54  H    0.169121
    55  H    0.151942
    56  N   -0.774089
    57  H    0.460211
    58  H    0.320278
    59  H    0.336180
    60  O   -0.568755
    61  H    0.432224
    62  H    0.418086
 Sum of Mulliken charges =   1.00000

 Dipole moment (field-independent basis, Debye):
    X=              0.9997    Y=             -3.5344    Z=              9.4471  Tot=             10.1360
 Quadrupole moment (field-independent basis, Debye-Ang):
   XX=           -124.8477   YY=           -112.6289   ZZ=           -139.9778
   XY=             35.8708   XZ=            -35.3613   YZ=            -41.5194

 Normal termination of Gaussian 16 at Tue May 24 03:23:57 2022.
