 Gaussian 16, Revision C.01,
 Gaussian 16:  ES64L-G16RevC.01  3-Jul-2019

 -------------------------------------------------------------------
 # B3LYP/6-31G* guess=read geom=check nosymm integral(ultrafinegrid)
 -------------------------------------------------------------------

 ------------------------------------------------------
 Candidate Structure: Conf:981 Charge calc in gas phase
 ------------------------------------------------------
 Structure from the checkpoint file:  "conf-981.chk"
 Charge =  1 Multiplicity = 1

                          Input orientation:
 ---------------------------------------------------------------------
 Center     Atomic      Atomic             Coordinates (Angstroms)
 Number     Number       Type             X           Y           Z
 ---------------------------------------------------------------------
      1          7           0       -1.189630   -3.846780    2.518174
      2          1           0       -0.384343   -4.039082    1.873674
      3          1           0       -1.022046   -4.101688    3.501440
      4          1           0       -1.988716   -4.383688    2.166130
      5          6           0       -1.397763   -2.356093    2.389600
      6          1           0       -0.727597   -1.906817    3.129519
      7          6           0       -0.770904   -2.016557    1.007904
      8          6           0       -2.852094   -1.949999    2.657907
      9          1           0       -3.485365   -2.225300    1.805899
     10          1           0       -2.884290   -0.858049    2.735652
     11          8           0       -0.083634   -2.892439    0.483015
     12          6           0       -3.476294   -2.546115    3.945967
     13          1           0       -3.661228   -3.620113    3.826858
     14          1           0       -4.442492   -2.066324    4.115569
     15          6           0       -2.637736   -2.329764    5.192738
     16          8           0       -2.787900   -1.470416    6.017048
     17          8           0       -1.620148   -3.257748    5.272827
     18          7           0       -1.033806   -0.787274    0.515685
     19          1           0       -1.554697   -0.187363    1.145457
     20          6           0       -0.047160   -0.027658   -0.278688
     21          1           0       -0.565949    0.884257   -0.591090
     22          6           0        1.090435    0.355089    0.710795
     23          6           0        0.430165   -0.763749   -1.558738
     24          1           0        0.935691   -1.688058   -1.275789
     25          1           0       -0.470017   -1.044544   -2.119289
     26          8           0        1.320859   -0.343093    1.698334
     27          6           0        1.344545    0.109940   -2.387372
     28          6           0        0.846015    1.192437   -3.129819
     29          1           0       -0.229010    1.355643   -3.191660
     30          6           0        2.730159   -0.094100   -2.372664
     31          1           0        3.140402   -0.941595   -1.827602
     32          6           0        1.700459    2.074228   -3.786296
     33          1           0        1.314965    2.921068   -4.345506
     34          6           0        3.596843    0.773975   -3.030889
     35          1           0        4.669298    0.601170   -3.010243
     36          8           0        3.892305    2.810458   -4.295624
     37          6           0        3.091540    1.893349   -3.712503
     38          7           0        1.752441    1.504338    0.453192
     39          1           0        1.568016    2.009585   -0.403237
     40          6           0        2.778431    1.987153    1.365712
     41          1           0        3.554131    1.220865    1.475004
     42          6           0        2.160644    2.220557    2.750921
     43          6           0        3.425191    3.306358    0.888408
     44          1           0        2.674855    4.107506    0.934569
     45          1           0        4.189624    3.556930    1.632933
     46          8           0        0.994855    2.444421    2.977955
     47          6           0        4.060648    3.279314   -0.512351
     48          1           0        3.281322    3.287177   -1.283921
     49          1           0        4.618938    2.346632   -0.655282
     50          6           0        4.988377    4.490962   -0.714864
     51          1           0        4.490012    5.395432   -0.340145
     52          1           0        5.884784    4.363926   -0.089591
     53          6           0        5.411541    4.786150   -2.157844
     54          1           0        4.530663    5.042535   -2.757921
     55          1           0        6.064937    5.670246   -2.145420
     56          7           0        6.066146    3.633750   -2.824833
     57          1           0        6.630621    3.975104   -3.603122
     58          1           0        4.761549    2.860260   -3.804414
     59          1           0        6.722343    3.182334   -2.187407
     60          8           0        3.120672    2.207166    3.700533
     61          1           0       -1.128679   -3.073714    6.098247
     62          1           0        2.684923    2.425895    4.546063
 ---------------------------------------------------------------------

 SCF Done:  E(RB3LYP) =  -1526.20933413     A.U. after    1 cycles

 Alpha  occ. eigenvalues --  -19.33819 -19.27858 -19.27485 -19.26710 -19.22074
 Alpha  occ. eigenvalues --  -19.21827 -19.21421 -14.59921 -14.49642 -14.45904
 Alpha  occ. eigenvalues --  -14.41572 -10.45689 -10.43921 -10.40946 -10.40241
 Alpha  occ. eigenvalues --  -10.38792 -10.36233 -10.34910 -10.34882 -10.32875
 Alpha  occ. eigenvalues --  -10.31229 -10.28997 -10.28385 -10.28154 -10.26836
 Alpha  occ. eigenvalues --  -10.26723 -10.26601 -10.26490 -10.26309 -10.25429
 Alpha  occ. eigenvalues --  -10.25337  -1.23840  -1.19309  -1.18753  -1.15297
 Alpha  occ. eigenvalues --   -1.14191  -1.13536  -1.10147  -1.09756  -1.06231
 Alpha  occ. eigenvalues --   -1.02328  -0.97238  -0.96042  -0.92784  -0.89987
 Alpha  occ. eigenvalues --   -0.88874  -0.86841  -0.84275  -0.81719  -0.81332
 Alpha  occ. eigenvalues --   -0.80255  -0.78000  -0.75337  -0.75082  -0.74015
 Alpha  occ. eigenvalues --   -0.72576  -0.71738  -0.70971  -0.69137  -0.68372
 Alpha  occ. eigenvalues --   -0.67546  -0.66409  -0.66266  -0.65442  -0.64610
 Alpha  occ. eigenvalues --   -0.62044  -0.61546  -0.61184  -0.60601  -0.59809
 Alpha  occ. eigenvalues --   -0.59566  -0.59092  -0.57904  -0.57606  -0.56780
 Alpha  occ. eigenvalues --   -0.56042  -0.55504  -0.55125  -0.54472  -0.54025
 Alpha  occ. eigenvalues --   -0.53737  -0.53561  -0.53103  -0.52749  -0.52373
 Alpha  occ. eigenvalues --   -0.51975  -0.51200  -0.51099  -0.50564  -0.49831
 Alpha  occ. eigenvalues --   -0.49445  -0.49019  -0.48727  -0.47702  -0.46985
 Alpha  occ. eigenvalues --   -0.46884  -0.46427  -0.45769  -0.45581  -0.44113
 Alpha  occ. eigenvalues --   -0.43927  -0.42495  -0.42295  -0.41611  -0.41221
 Alpha  occ. eigenvalues --   -0.41097  -0.40773  -0.40151  -0.39827  -0.39558
 Alpha  occ. eigenvalues --   -0.38128  -0.36393  -0.35509  -0.34883  -0.33765
 Alpha  occ. eigenvalues --   -0.32287  -0.28333
 Alpha virt. eigenvalues --   -0.13710  -0.12282  -0.10465  -0.07936  -0.07610
 Alpha virt. eigenvalues --   -0.07026  -0.06563  -0.06241  -0.05434  -0.02955
 Alpha virt. eigenvalues --   -0.02391  -0.01107  -0.01032  -0.00888  -0.00423

 Mulliken charges:
               1
     1  N   -0.756636
     2  H    0.434070
     3  H    0.431255
     4  H    0.406606
     5  C   -0.136105
     6  H    0.252664
     7  C    0.678904
     8  C   -0.319653
     9  H    0.197008
    10  H    0.206308
    11  O   -0.523140
    12  C   -0.363937
    13  H    0.175104
    14  H    0.229497
    15  C    0.584247
    16  O   -0.396454
    17  O   -0.607395
    18  N   -0.585687
    19  H    0.351337
    20  C   -0.099102
    21  H    0.176139
    22  C    0.651162
    23  C   -0.356068
    24  H    0.197314
    25  H    0.167797
    26  O   -0.544887
    27  C    0.136623
    28  C   -0.211044
    29  H    0.128228
    30  C   -0.186132
    31  H    0.133734
    32  C   -0.168025
    33  H    0.149973
    34  C   -0.189785
    35  H    0.137038
    36  O   -0.687917
    37  C    0.360563
    38  N   -0.607455
    39  H    0.358188
    40  C   -0.006733
    41  H    0.187923
    42  C    0.599340
    43  C   -0.319070
    44  H    0.161920
    45  H    0.177319
    46  O   -0.472294
    47  C   -0.265868
    48  H    0.153016
    49  H    0.149807
    50  C   -0.285796
    51  H    0.155343
    52  H    0.143599
    53  C   -0.136136
    54  H    0.168325
    55  H    0.149778
    56  N   -0.773121
    57  H    0.334614
    58  H    0.460037
    59  H    0.319649
    60  O   -0.565562
    61  H    0.440335
    62  H    0.419236
 Sum of Mulliken charges =   1.00000

 Dipole moment (field-independent basis, Debye):
    X=              0.2921    Y=             -6.3302    Z=              9.6771  Tot=             11.5673
 Quadrupole moment (field-independent basis, Debye-Ang):
   XX=           -108.2972   YY=           -108.0626   ZZ=           -146.9963
   XY=             56.5915   XZ=            -20.6177   YZ=            -46.8604

 Normal termination of Gaussian 16 at Tue May 24 03:23:05 2022.
