 Gaussian 16, Revision C.01,
 Gaussian 16:  ES64L-G16RevC.01  3-Jul-2019

 -------------------------------------------------------------------
 # B3LYP/6-31G* guess=read geom=check nosymm integral(ultrafinegrid)
 -------------------------------------------------------------------

 ------------------------------------------------------
 Candidate Structure: Conf:102 Charge calc in gas phase
 ------------------------------------------------------
 Structure from the checkpoint file:  "conf-102.chk"
 Charge =  1 Multiplicity = 1

                          Input orientation:
 ---------------------------------------------------------------------
 Center     Atomic      Atomic             Coordinates (Angstroms)
 Number     Number       Type             X           Y           Z
 ---------------------------------------------------------------------
      1          7           0        0.296776   -2.463862    2.149940
      2          1           0        0.969481   -1.750950    1.784992
      3          1           0        0.642680   -2.918474    2.999539
      4          1           0        0.178518   -3.153972    1.393685
      5          6           0       -1.025088   -1.738210    2.332814
      6          1           0       -0.843796   -0.944899    3.053626
      7          6           0       -1.229863   -1.177288    0.904631
      8          6           0       -2.116363   -2.697285    2.813058
      9          1           0       -1.875118   -3.037818    3.827797
     10          1           0       -2.126442   -3.580039    2.162840
     11          8           0       -1.127984   -1.971984   -0.025951
     12          6           0       -3.534618   -2.094990    2.788749
     13          1           0       -4.246641   -2.814966    3.198293
     14          1           0       -3.839819   -1.914521    1.748610
     15          6           0       -3.676729   -0.770783    3.514377
     16          8           0       -2.835133    0.112814    3.520695
     17          8           0       -4.859424   -0.655467    4.125932
     18          7           0       -1.379847    0.171629    0.800156
     19          1           0       -1.514561    0.640940    1.690540
     20          6           0       -0.583770    0.913884   -0.182654
     21          1           0       -0.766837    1.973997    0.021284
     22          6           0        0.925261    0.672173    0.161339
     23          6           0       -1.019964    0.625372   -1.665193
     24          1           0       -1.336175   -0.416295   -1.710683
     25          1           0       -1.901429    1.245125   -1.858918
     26          8           0        1.307705   -0.243816    0.908325
     27          6           0        0.064867    0.856292   -2.694499
     28          6           0        0.864789   -0.226455   -3.094092
     29          1           0        0.628022   -1.223429   -2.730022
     30          6           0        0.374579    2.122461   -3.210712
     31          1           0       -0.258838    2.975367   -2.970319
     32          6           0        1.967557   -0.049348   -3.918037
     33          1           0        2.589176   -0.887806   -4.215737
     34          6           0        1.489498    2.318396   -4.034640
     35          1           0        1.709993    3.305786   -4.431399
     36          8           0        3.436369    1.336464   -5.112441
     37          6           0        2.320316    1.234733   -4.365331
     38          7           0        1.767707    1.583943   -0.341862
     39          1           0        1.405503    2.192341   -1.067050
     40          6           0        3.225436    1.466500   -0.272320
     41          1           0        3.530831    0.550199   -0.788413
     42          6           0        3.736771    1.334585    1.158711
     43          6           0        3.885464    2.702320   -0.954624
     44          1           0        3.114076    3.230356   -1.529546
     45          1           0        4.223280    3.413161   -0.191720
     46          8           0        4.659769    0.624979    1.479354
     47          6           0        5.013768    2.348856   -1.927924
     48          1           0        4.621576    1.635464   -2.662769
     49          1           0        5.829113    1.840772   -1.397785
     50          6           0        5.563433    3.580635   -2.675396
     51          1           0        4.745538    4.295870   -2.850302
     52          1           0        6.290235    4.101895   -2.042361
     53          6           0        6.205618    3.239448   -4.036834
     54          1           0        7.112199    3.844693   -4.184539
     55          1           0        6.518453    2.190253   -4.069591
     56          7           0        5.229091    3.453047   -5.125857
     57          1           0        5.666784    3.237003   -6.021431
     58          1           0        4.983181    4.440913   -5.171101
     59          1           0        3.846762    2.239885   -5.084377
     60          8           0        3.105460    2.172769    2.013878
     61          1           0       -4.905197    0.234244    4.527737
     62          1           0        3.557189    2.073179    2.873191
 ---------------------------------------------------------------------

 SCF Done:  E(RB3LYP) =  -1526.21277196     A.U. after    1 cycles

 Alpha  occ. eigenvalues --  -19.31505 -19.28481 -19.26327 -19.25599 -19.25063
 Alpha  occ. eigenvalues --  -19.22675 -19.22318 -14.58836 -14.48216 -14.47446
 Alpha  occ. eigenvalues --  -14.41870 -10.44653 -10.42653 -10.41167 -10.40974
 Alpha  occ. eigenvalues --  -10.39213 -10.35777 -10.34193 -10.33725 -10.33013
 Alpha  occ. eigenvalues --  -10.32285 -10.29381 -10.28915 -10.28718 -10.27547
 Alpha  occ. eigenvalues --  -10.27465 -10.26937 -10.26768 -10.26762 -10.26731
 Alpha  occ. eigenvalues --  -10.26030  -1.22721  -1.19410  -1.18157  -1.15818
 Alpha  occ. eigenvalues --   -1.13629  -1.13003  -1.11111  -1.10384  -1.05235
 Alpha  occ. eigenvalues --   -1.04300  -0.97669  -0.94485  -0.93440  -0.90276
 Alpha  occ. eigenvalues --   -0.88326  -0.86311  -0.84616  -0.82607  -0.81992
 Alpha  occ. eigenvalues --   -0.79109  -0.78240  -0.75372  -0.73804  -0.73241
 Alpha  occ. eigenvalues --   -0.72416  -0.70956  -0.69969  -0.69843  -0.68922
 Alpha  occ. eigenvalues --   -0.68458  -0.66925  -0.66392  -0.65606  -0.63744
 Alpha  occ. eigenvalues --   -0.62758  -0.61603  -0.61233  -0.60314  -0.59945
 Alpha  occ. eigenvalues --   -0.58678  -0.58426  -0.57747  -0.57475  -0.56260
 Alpha  occ. eigenvalues --   -0.56116  -0.55669  -0.55481  -0.55262  -0.54535
 Alpha  occ. eigenvalues --   -0.54192  -0.53672  -0.52993  -0.52017  -0.51936
 Alpha  occ. eigenvalues --   -0.51665  -0.51429  -0.50589  -0.50333  -0.49980
 Alpha  occ. eigenvalues --   -0.49848  -0.49092  -0.48590  -0.48269  -0.47758
 Alpha  occ. eigenvalues --   -0.47294  -0.46997  -0.45871  -0.45108  -0.44316
 Alpha  occ. eigenvalues --   -0.43816  -0.43464  -0.42416  -0.42231  -0.41470
 Alpha  occ. eigenvalues --   -0.40992  -0.40537  -0.40224  -0.39842  -0.39305
 Alpha  occ. eigenvalues --   -0.38785  -0.38016  -0.37239  -0.35718  -0.34197
 Alpha  occ. eigenvalues --   -0.33318  -0.29159
 Alpha virt. eigenvalues --   -0.13533  -0.11632  -0.10349  -0.08797  -0.08631
 Alpha virt. eigenvalues --   -0.07858  -0.07154  -0.03744  -0.02960  -0.02561
 Alpha virt. eigenvalues --   -0.02100  -0.01286  -0.00992  -0.00046   0.00446

 Mulliken charges:
               1
     1  N   -0.755159
     2  H    0.457891
     3  H    0.405340
     4  H    0.413329
     5  C   -0.100207
     6  H    0.224445
     7  C    0.601677
     8  C   -0.283801
     9  H    0.178073
    10  H    0.185681
    11  O   -0.507596
    12  C   -0.379835
    13  H    0.213943
    14  H    0.218997
    15  C    0.604700
    16  O   -0.486971
    17  O   -0.533620
    18  N   -0.575355
    19  H    0.369674
    20  C   -0.099856
    21  H    0.186196
    22  C    0.665725
    23  C   -0.358438
    24  H    0.209585
    25  H    0.169729
    26  O   -0.595556
    27  C    0.138262
    28  C   -0.187664
    29  H    0.141593
    30  C   -0.245312
    31  H    0.134969
    32  C   -0.162074
    33  H    0.153136
    34  C   -0.189361
    35  H    0.139744
    36  O   -0.683062
    37  C    0.364989
    38  N   -0.612788
    39  H    0.365366
    40  C    0.017042
    41  H    0.195928
    42  C    0.579069
    43  C   -0.328381
    44  H    0.151367
    45  H    0.175581
    46  O   -0.453109
    47  C   -0.287777
    48  H    0.167664
    49  H    0.165728
    50  C   -0.266696
    51  H    0.134904
    52  H    0.157467
    53  C   -0.147477
    54  H    0.149394
    55  H    0.170729
    56  N   -0.763307
    57  H    0.333774
    58  H    0.321141
    59  H    0.455010
    60  O   -0.565209
    61  H    0.432161
    62  H    0.418611
 Sum of Mulliken charges =   1.00000

 Dipole moment (field-independent basis, Debye):
    X=              1.7231    Y=              0.8409    Z=              5.8847  Tot=              6.1892
 Quadrupole moment (field-independent basis, Debye-Ang):
   XX=           -126.2596   YY=           -124.4889   ZZ=           -125.9826
   XY=             32.7696   XZ=            -44.7021   YZ=            -44.4798

 Normal termination of Gaussian 16 at Tue May 24 03:23:13 2022.
