 Gaussian 16, Revision C.01,
 Gaussian 16:  ES64L-G16RevC.01  3-Jul-2019

 -------------------------------------------------------------------
 # B3LYP/6-31G* guess=read geom=check nosymm integral(ultrafinegrid)
 -------------------------------------------------------------------

 ------------------------------------------------------
 Candidate Structure: Conf:474 Charge calc in gas phase
 ------------------------------------------------------
 Structure from the checkpoint file:  "conf-474.chk"
 Charge =  1 Multiplicity = 1

                          Input orientation:
 ---------------------------------------------------------------------
 Center     Atomic      Atomic             Coordinates (Angstroms)
 Number     Number       Type             X           Y           Z
 ---------------------------------------------------------------------
      1          7           0       -0.137313   -2.345446    2.972565
      2          1           0        0.381018   -1.567113    2.494132
      3          1           0        0.085235   -2.404063    3.978083
      4          1           0        0.127375   -3.210767    2.487548
      5          6           0       -1.624654   -2.094572    2.772628
      6          1           0       -1.849040   -1.216338    3.383489
      7          6           0       -1.669468   -1.804041    1.250969
      8          6           0       -2.478536   -3.299760    3.176537
      9          1           0       -2.401343   -4.053546    2.385944
     10          1           0       -3.519312   -2.957541    3.189508
     11          8           0       -1.358022   -2.720005    0.504939
     12          6           0       -2.144370   -3.970940    4.531361
     13          1           0       -1.201933   -4.526408    4.466111
     14          1           0       -2.933096   -4.690899    4.759697
     15          6           0       -2.062171   -3.002610    5.693992
     16          8           0       -2.930767   -2.732723    6.477675
     17          8           0       -0.819076   -2.402369    5.743133
     18          7           0       -1.925976   -0.512612    0.892307
     19          1           0       -2.119739    0.107846    1.669544
     20          6           0       -1.175451    0.145864   -0.187842
     21          1           0       -1.592881    1.155054   -0.265640
     22          6           0        0.294717    0.305279    0.313351
     23          6           0       -1.361178   -0.545067   -1.568089
     24          1           0       -1.072306   -1.592435   -1.481829
     25          1           0       -2.439846   -0.526848   -1.769210
     26          8           0        0.735061   -0.367017    1.263988
     27          6           0       -0.572742    0.120602   -2.672176
     28          6           0       -0.801513    1.451035   -3.055112
     29          1           0       -1.641050    2.003463   -2.634233
     30          6           0        0.472644   -0.572602   -3.300286
     31          1           0        0.655037   -1.612200   -3.037506
     32          6           0        0.028486    2.088996   -3.978147
     33          1           0       -0.160911    3.119185   -4.266733
     34          6           0        1.297173    0.044029   -4.233387
     35          1           0        2.117608   -0.491130   -4.700912
     36          8           0        1.995735    1.986590   -5.379918
     37          6           0        1.114589    1.399167   -4.549473
     38          7           0        1.037483    1.263603   -0.260478
     39          1           0        0.687473    1.711144   -1.101736
     40          6           0        2.412740    1.542382    0.164137
     41          1           0        3.063664    0.706473   -0.112700
     42          6           0        2.522356    1.673229    1.685372
     43          6           0        2.944328    2.857142   -0.452185
     44          1           0        2.290321    3.678495   -0.132164
     45          1           0        3.921074    3.037923    0.013682
     46          8           0        3.451913    1.257550    2.333173
     47          6           0        3.112883    2.877035   -1.980184
     48          1           0        2.140698    2.793456   -2.476514
     49          1           0        3.701736    2.007644   -2.301676
     50          6           0        3.815347    4.168307   -2.433338
     51          1           0        3.251556    5.041775   -2.070584
     52          1           0        4.797243    4.226272   -1.945316
     53          6           0        4.047838    4.319257   -3.941279
     54          1           0        4.741867    5.157276   -4.097841
     55          1           0        4.530617    3.419712   -4.340122
     56          7           0        2.789733    4.516272   -4.702779
     57          1           0        3.021060    4.838680   -5.643259
     58          1           0        2.247416    5.271396   -4.281793
     59          1           0        2.085612    2.963126   -5.157512
     60          8           0        1.519204    2.417111    2.214508
     61          1           0       -0.814331   -1.809380    6.520397
     62          1           0        1.743519    2.534785    3.157155
 ---------------------------------------------------------------------

 SCF Done:  E(RB3LYP) =  -1526.21681440     A.U. after    1 cycles

 Alpha  occ. eigenvalues --  -19.33333 -19.29280 -19.26925 -19.26026 -19.25546
 Alpha  occ. eigenvalues --  -19.23326 -19.22001 -14.58424 -14.49734 -14.48309
 Alpha  occ. eigenvalues --  -14.42699 -10.45050 -10.43376 -10.41869 -10.41709
 Alpha  occ. eigenvalues --  -10.40392 -10.36438 -10.34491 -10.34307 -10.33735
 Alpha  occ. eigenvalues --  -10.32177 -10.30045 -10.29291 -10.29238 -10.27726
 Alpha  occ. eigenvalues --  -10.27688 -10.27650 -10.27647 -10.27108 -10.26765
 Alpha  occ. eigenvalues --  -10.26002  -1.23306  -1.20169  -1.18615  -1.16462
 Alpha  occ. eigenvalues --   -1.14730  -1.13018  -1.11095  -1.10844  -1.06305
 Alpha  occ. eigenvalues --   -1.04677  -0.98346  -0.94833  -0.93737  -0.90977
 Alpha  occ. eigenvalues --   -0.89296  -0.87085  -0.85516  -0.82739  -0.82226
 Alpha  occ. eigenvalues --   -0.79276  -0.78815  -0.75956  -0.74182  -0.73509
 Alpha  occ. eigenvalues --   -0.72972  -0.72051  -0.71025  -0.69957  -0.69618
 Alpha  occ. eigenvalues --   -0.69093  -0.67492  -0.66626  -0.65838  -0.64064
 Alpha  occ. eigenvalues --   -0.63325  -0.61719  -0.61201  -0.61011  -0.60662
 Alpha  occ. eigenvalues --   -0.59441  -0.59019  -0.58408  -0.57568  -0.57460
 Alpha  occ. eigenvalues --   -0.56760  -0.56408  -0.55809  -0.55372  -0.55067
 Alpha  occ. eigenvalues --   -0.54607  -0.54109  -0.53838  -0.53657  -0.53292
 Alpha  occ. eigenvalues --   -0.52656  -0.51850  -0.51001  -0.50369  -0.50334
 Alpha  occ. eigenvalues --   -0.50039  -0.49941  -0.49184  -0.49123  -0.48467
 Alpha  occ. eigenvalues --   -0.47585  -0.47260  -0.47021  -0.45574  -0.45169
 Alpha  occ. eigenvalues --   -0.44650  -0.43599  -0.43275  -0.42744  -0.42545
 Alpha  occ. eigenvalues --   -0.41288  -0.41185  -0.40738  -0.40167  -0.39484
 Alpha  occ. eigenvalues --   -0.39039  -0.38642  -0.38163  -0.36443  -0.34808
 Alpha  occ. eigenvalues --   -0.33427  -0.29178
 Alpha virt. eigenvalues --   -0.13979  -0.12351  -0.10769  -0.08946  -0.08365
 Alpha virt. eigenvalues --   -0.08195  -0.07334  -0.06330  -0.04921  -0.02289
 Alpha virt. eigenvalues --   -0.01719  -0.01452  -0.00684  -0.00115   0.00515

 Mulliken charges:
               1
     1  N   -0.776228
     2  H    0.454700
     3  H    0.428478
     4  H    0.410959
     5  C   -0.106842
     6  H    0.192100
     7  C    0.613133
     8  C   -0.297910
     9  H    0.212851
    10  H    0.206722
    11  O   -0.485623
    12  C   -0.372053
    13  H    0.177931
    14  H    0.227376
    15  C    0.580582
    16  O   -0.401085
    17  O   -0.607622
    18  N   -0.567608
    19  H    0.341668
    20  C   -0.105168
    21  H    0.184374
    22  C    0.667549
    23  C   -0.355030
    24  H    0.205090
    25  H    0.178459
    26  O   -0.589386
    27  C    0.147332
    28  C   -0.237073
    29  H    0.131051
    30  C   -0.192750
    31  H    0.139300
    32  C   -0.199080
    33  H    0.139276
    34  C   -0.159400
    35  H    0.153567
    36  O   -0.688299
    37  C    0.367933
    38  N   -0.620527
    39  H    0.376069
    40  C    0.009523
    41  H    0.194226
    42  C    0.586095
    43  C   -0.321152
    44  H    0.163923
    45  H    0.178892
    46  O   -0.454496
    47  C   -0.280085
    48  H    0.157365
    49  H    0.157396
    50  C   -0.274185
    51  H    0.136724
    52  H    0.158517
    53  C   -0.137363
    54  H    0.152955
    55  H    0.170333
    56  N   -0.774847
    57  H    0.338356
    58  H    0.320234
    59  H    0.465235
    60  O   -0.575216
    61  H    0.436516
    62  H    0.416238
 Sum of Mulliken charges =   1.00000

 Dipole moment (field-independent basis, Debye):
    X=              0.2070    Y=              1.6059    Z=              7.5131  Tot=              7.6856
 Quadrupole moment (field-independent basis, Debye-Ang):
   XX=           -165.0514   YY=           -112.8445   ZZ=           -125.6619
   XY=             24.5925   XZ=            -21.7595   YZ=            -51.8851

 Normal termination of Gaussian 16 at Tue May 24 03:23:55 2022.
