 Gaussian 16, Revision C.01,
 Gaussian 16:  ES64L-G16RevC.01  3-Jul-2019

 -------------------------------------------------------------------
 # B3LYP/6-31G* guess=read geom=check nosymm integral(ultrafinegrid)
 -------------------------------------------------------------------

 ------------------------------------------------------
 Candidate Structure: Conf:876 Charge calc in gas phase
 ------------------------------------------------------
 Structure from the checkpoint file:  "conf-876.chk"
 Charge =  1 Multiplicity = 1

                          Input orientation:
 ---------------------------------------------------------------------
 Center     Atomic      Atomic             Coordinates (Angstroms)
 Number     Number       Type             X           Y           Z
 ---------------------------------------------------------------------
      1          7           0       -0.565512   -2.474471    2.654671
      2          1           0        0.197620   -1.806470    2.357059
      3          1           0       -0.371896   -2.891041    3.569512
      4          1           0       -0.597758   -3.211785    1.938544
      5          6           0       -1.882742   -1.703720    2.597776
      6          1           0       -1.830103   -0.968471    3.406029
      7          6           0       -1.746397   -1.070818    1.191201
      8          6           0       -3.090568   -2.623794    2.745470
      9          1           0       -3.099330   -3.338837    1.916313
     10          1           0       -3.979753   -1.993674    2.620629
     11          8           0       -1.689120   -1.836744    0.240027
     12          6           0       -3.170023   -3.351520    4.101163
     13          1           0       -3.172037   -2.644002    4.934886
     14          1           0       -2.321498   -4.038022    4.229734
     15          6           0       -4.440075   -4.182842    4.220596
     16          8           0       -5.300598   -4.016303    5.048043
     17          8           0       -4.480818   -5.137543    3.262485
     18          7           0       -1.551638    0.276399    1.157366
     19          1           0       -1.562781    0.731199    2.062640
     20          6           0       -0.580982    0.869266    0.228187
     21          1           0       -0.585093    1.941613    0.449465
     22          6           0        0.833065    0.350239    0.638896
     23          6           0       -0.980718    0.697812   -1.263199
     24          1           0       -1.014274   -0.365487   -1.504660
     25          1           0       -2.009883    1.071495   -1.338526
     26          8           0        0.987766   -0.573289    1.459590
     27          6           0       -0.063631    1.425329   -2.223163
     28          6           0        0.119356    2.815543   -2.161520
     29          1           0       -0.464387    3.412329   -1.461646
     30          6           0        0.657999    0.713777   -3.193672
     31          1           0        0.520375   -0.361891   -3.276986
     32          6           0        1.028684    3.464697   -2.997398
     33          1           0        1.132759    4.545248   -2.956437
     34          6           0        1.557688    1.348552   -4.043172
     35          1           0        2.120196    0.789976   -4.784673
     36          8           0        2.702866    3.298461   -4.737329
     37          6           0        1.779661    2.731179   -3.935534
     38          7           0        1.881975    1.000825    0.115994
     39          1           0        1.710001    1.735490   -0.562145
     40          6           0        3.244573    0.781872    0.584785
     41          1           0        3.443043   -0.295123    0.572916
     42          6           0        3.371097    1.239966    2.044219
     43          6           0        4.280209    1.476768   -0.328330
     44          1           0        5.259795    1.062572   -0.068323
     45          1           0        4.068262    1.168217   -1.359262
     46          8           0        2.541613    1.860853    2.666233
     47          6           0        4.348844    3.010802   -0.212612
     48          1           0        4.550910    3.279372    0.831456
     49          1           0        3.373536    3.460794   -0.452277
     50          6           0        5.452939    3.626679   -1.099411
     51          1           0        5.704289    4.627597   -0.724573
     52          1           0        6.365230    3.024147   -0.992985
     53          6           0        5.095047    3.734214   -2.590530
     54          1           0        5.997151    3.926379   -3.179354
     55          1           0        4.691193    2.782772   -2.955884
     56          7           0        4.117411    4.794813   -2.928127
     57          1           0        3.137016    4.060589   -4.254194
     58          1           0        4.587290    5.692298   -3.032417
     59          1           0        3.446078    4.910826   -2.170015
     60          8           0        4.562455    0.859648    2.549894
     61          1           0       -5.314795   -5.631837    3.383403
     62          1           0        4.607781    1.194995    3.465823
 ---------------------------------------------------------------------

 SCF Done:  E(RB3LYP) =  -1526.21084233     A.U. after    1 cycles

 Alpha  occ. eigenvalues --  -19.29894 -19.29655 -19.26248 -19.25750 -19.24305
 Alpha  occ. eigenvalues --  -19.23983 -19.22258 -14.59708 -14.49880 -14.48305
 Alpha  occ. eigenvalues --  -14.42476 -10.43552 -10.42508 -10.42355 -10.42115
 Alpha  occ. eigenvalues --  -10.40786 -10.36527 -10.35010 -10.33881 -10.32970
 Alpha  occ. eigenvalues --  -10.32523 -10.29969 -10.29720 -10.29538 -10.28711
 Alpha  occ. eigenvalues --  -10.28063 -10.28010 -10.27626 -10.27460 -10.27121
 Alpha  occ. eigenvalues --  -10.26354  -1.20870  -1.20493  -1.18991  -1.16642
 Alpha  occ. eigenvalues --   -1.13891  -1.11942  -1.11698  -1.11094  -1.06538
 Alpha  occ. eigenvalues --   -1.04979  -0.98295  -0.94803  -0.93971  -0.91356
 Alpha  occ. eigenvalues --   -0.89404  -0.86952  -0.85578  -0.83024  -0.82364
 Alpha  occ. eigenvalues --   -0.79077  -0.78179  -0.76107  -0.74672  -0.74596
 Alpha  occ. eigenvalues --   -0.73119  -0.72119  -0.71232  -0.70233  -0.69951
 Alpha  occ. eigenvalues --   -0.69506  -0.67518  -0.66723  -0.66251  -0.63605
 Alpha  occ. eigenvalues --   -0.63045  -0.61383  -0.61257  -0.60759  -0.59999
 Alpha  occ. eigenvalues --   -0.59709  -0.58875  -0.58040  -0.57851  -0.56925
 Alpha  occ. eigenvalues --   -0.56795  -0.56183  -0.55626  -0.55103  -0.54806
 Alpha  occ. eigenvalues --   -0.54511  -0.54309  -0.53722  -0.53473  -0.53096
 Alpha  occ. eigenvalues --   -0.52262  -0.51568  -0.51141  -0.50447  -0.50188
 Alpha  occ. eigenvalues --   -0.49553  -0.49512  -0.49311  -0.48899  -0.48589
 Alpha  occ. eigenvalues --   -0.47641  -0.47379  -0.47155  -0.46911  -0.45113
 Alpha  occ. eigenvalues --   -0.44152  -0.43783  -0.42801  -0.42351  -0.42011
 Alpha  occ. eigenvalues --   -0.41801  -0.41551  -0.40866  -0.39899  -0.39291
 Alpha  occ. eigenvalues --   -0.38847  -0.38417  -0.37406  -0.37293  -0.34626
 Alpha  occ. eigenvalues --   -0.33708  -0.29607
 Alpha virt. eigenvalues --   -0.14196  -0.11108  -0.10663  -0.09267  -0.09107
 Alpha virt. eigenvalues --   -0.08449  -0.07683  -0.06357  -0.04244  -0.02829
 Alpha virt. eigenvalues --   -0.02230  -0.02189  -0.02071  -0.00625   0.00109

 Mulliken charges:
               1
     1  N   -0.760164
     2  H    0.458725
     3  H    0.407711
     4  H    0.417062
     5  C   -0.114320
     6  H    0.196212
     7  C    0.615196
     8  C   -0.287756
     9  H    0.212179
    10  H    0.204861
    11  O   -0.489847
    12  C   -0.364867
    13  H    0.194129
    14  H    0.160289
    15  C    0.575778
    16  O   -0.420862
    17  O   -0.559466
    18  N   -0.567616
    19  H    0.347626
    20  C   -0.112900
    21  H    0.192026
    22  C    0.674510
    23  C   -0.347304
    24  H    0.200018
    25  H    0.181578
    26  O   -0.596855
    27  C    0.133315
    28  C   -0.229308
    29  H    0.132637
    30  C   -0.189904
    31  H    0.140434
    32  C   -0.202638
    33  H    0.142300
    34  C   -0.164056
    35  H    0.156723
    36  O   -0.673552
    37  C    0.363866
    38  N   -0.602838
    39  H    0.376498
    40  C   -0.032456
    41  H    0.198797
    42  C    0.598990
    43  C   -0.309356
    44  H    0.183123
    45  H    0.175549
    46  O   -0.466356
    47  C   -0.287067
    48  H    0.161694
    49  H    0.129264
    50  C   -0.276038
    51  H    0.149194
    52  H    0.154399
    53  C   -0.148305
    54  H    0.171170
    55  H    0.164325
    56  N   -0.772898
    57  H    0.458484
    58  H    0.332518
    59  H    0.320307
    60  O   -0.561462
    61  H    0.431668
    62  H    0.425036
 Sum of Mulliken charges =   1.00000

 Dipole moment (field-independent basis, Debye):
    X=              3.9426    Y=             -1.3500    Z=              9.1976  Tot=             10.0976
 Quadrupole moment (field-independent basis, Debye-Ang):
   XX=           -130.8020   YY=           -116.7796   ZZ=           -162.5258
   XY=             38.4968   XZ=             -7.4566   YZ=            -28.2919

 Normal termination of Gaussian 16 at Tue May 24 03:23:55 2022.
