 Gaussian 16, Revision C.01,
 Gaussian 16:  ES64L-G16RevC.01  3-Jul-2019

 -------------------------------------------------------------------
 # B3LYP/6-31G* guess=read geom=check nosymm integral(ultrafinegrid)
 -------------------------------------------------------------------

 ------------------------------------------------------
 Candidate Structure: Conf:879 Charge calc in gas phase
 ------------------------------------------------------
 Structure from the checkpoint file:  "conf-879.chk"
 Charge =  1 Multiplicity = 1

                          Input orientation:
 ---------------------------------------------------------------------
 Center     Atomic      Atomic             Coordinates (Angstroms)
 Number     Number       Type             X           Y           Z
 ---------------------------------------------------------------------
      1          7           0       -0.166582   -2.217691    3.596593
      2          1           0        0.778607   -1.839165    3.650356
      3          1           0       -0.563008   -2.220028    4.536499
      4          1           0       -0.101672   -3.170618    3.245283
      5          6           0       -1.004164   -1.413970    2.691817
      6          1           0       -1.179054   -0.437648    3.144422
      7          6           0       -0.276558   -1.237362    1.361258
      8          6           0       -2.358823   -2.076278    2.438505
      9          1           0       -2.193097   -2.986661    1.850600
     10          1           0       -2.962403   -1.408854    1.814657
     11          8           0        0.517144   -2.070095    0.960396
     12          6           0       -3.134916   -2.456818    3.701095
     13          1           0       -2.689509   -3.345746    4.155882
     14          1           0       -4.171452   -2.679699    3.448730
     15          6           0       -3.057151   -1.340880    4.690722
     16          8           0       -2.204196   -1.274865    5.542521
     17          8           0       -3.973551   -0.368477    4.492036
     18          7           0       -0.583921   -0.096576    0.679899
     19          1           0       -1.337004    0.472988    1.022601
     20          6           0       -0.264686    0.073900   -0.731789
     21          1           0       -0.771346    1.000048   -1.017999
     22          6           0        1.229137    0.293870   -1.005346
     23          6           0       -0.815333   -1.055953   -1.630475
     24          1           0       -0.650728   -0.751966   -2.665084
     25          1           0       -0.235412   -1.959776   -1.461826
     26          8           0        1.715865    0.037194   -2.095905
     27          6           0       -2.254011   -1.311284   -1.359164
     28          6           0       -2.668429   -2.537604   -0.824536
     29          1           0       -1.919088   -3.308148   -0.651200
     30          6           0       -3.218738   -0.312051   -1.577124
     31          1           0       -2.901588    0.628458   -2.014780
     32          6           0       -3.972772   -2.783262   -0.492274
     33          1           0       -4.290868   -3.725443   -0.060615
     34          6           0       -4.541889   -0.501450   -1.258168
     35          1           0       -5.284055    0.269806   -1.415775
     36          8           0       -6.168015   -1.938235   -0.344685
     37          6           0       -4.989145   -1.753854   -0.664464
     38          7           0        1.934752    0.870055   -0.004715
     39          1           0        1.511493    1.010563    0.894965
     40          6           0        3.330558    1.175613   -0.189458
     41          1           0        3.652961    0.658024   -1.096091
     42          6           0        4.199305    0.664954    0.942908
     43          6           0        3.585158    2.676604   -0.382298
     44          1           0        3.247439    3.219483    0.503445
     45          1           0        4.664890    2.818663   -0.458653
     46          8           0        5.378676    0.451181    0.842595
     47          6           0        2.901875    3.216519   -1.630621
     48          1           0        1.818767    3.139483   -1.516651
     49          1           0        3.167199    2.580922   -2.480285
     50          6           0        3.256617    4.663549   -1.933831
     51          1           0        4.341941    4.770816   -2.039373
     52          1           0        2.814005    4.951039   -2.891807
     53          6           0        2.771087    5.627935   -0.872231
     54          1           0        1.699377    5.480355   -0.715108
     55          1           0        3.269206    5.414453    0.076053
     56          7           0        3.034089    7.042379   -1.240043
     57          1           0        2.712009    7.694998   -0.525255
     58          1           0        2.564897    7.284108   -2.111489
     59          1           0        4.031094    7.203105   -1.375757
     60          8           0        3.519983    0.516960    2.102565
     61          1           0       -3.806182    0.313142    5.155554
     62          1           0        4.158619    0.216248    2.762659
 ---------------------------------------------------------------------

 SCF Done:  E(RB3LYP) =  -1526.06015970     A.U. after    1 cycles

 Alpha  occ. eigenvalues --  -19.31038 -19.30885 -19.26591 -19.24333 -19.24215
 Alpha  occ. eigenvalues --  -19.20013 -19.05435 -14.64817 -14.61011 -14.47612
 Alpha  occ. eigenvalues --  -14.45680 -10.44088 -10.42536 -10.41913 -10.41495
 Alpha  occ. eigenvalues --  -10.39368 -10.37418 -10.34877 -10.34140 -10.31833
 Alpha  occ. eigenvalues --  -10.31707 -10.31625 -10.31393 -10.31377 -10.22692
 Alpha  occ. eigenvalues --  -10.21433 -10.19204 -10.19002 -10.18311 -10.16776
 Alpha  occ. eigenvalues --  -10.16364  -1.22748  -1.21839  -1.20044  -1.18076
 Alpha  occ. eigenvalues --   -1.15222  -1.14041  -1.12675  -1.12540  -1.04360
 Alpha  occ. eigenvalues --   -1.02736  -0.96874  -0.96332  -0.94484  -0.90786
 Alpha  occ. eigenvalues --   -0.88398  -0.85962  -0.85388  -0.82369  -0.80443
 Alpha  occ. eigenvalues --   -0.78227  -0.78190  -0.77188  -0.75541  -0.74988
 Alpha  occ. eigenvalues --   -0.74436  -0.73809  -0.72690  -0.71962  -0.71450
 Alpha  occ. eigenvalues --   -0.70770  -0.68745  -0.68574  -0.66467  -0.65245
 Alpha  occ. eigenvalues --   -0.63546  -0.63176  -0.62942  -0.61077  -0.60393
 Alpha  occ. eigenvalues --   -0.59856  -0.59119  -0.58691  -0.58572  -0.57473
 Alpha  occ. eigenvalues --   -0.57458  -0.56798  -0.56319  -0.56171  -0.54700
 Alpha  occ. eigenvalues --   -0.54311  -0.53787  -0.53214  -0.52952  -0.51875
 Alpha  occ. eigenvalues --   -0.51262  -0.50333  -0.49722  -0.49384  -0.48953
 Alpha  occ. eigenvalues --   -0.48733  -0.47767  -0.47540  -0.47312  -0.46712
 Alpha  occ. eigenvalues --   -0.46363  -0.45907  -0.45201  -0.44430  -0.43965
 Alpha  occ. eigenvalues --   -0.42527  -0.42084  -0.41291  -0.40017  -0.38981
 Alpha  occ. eigenvalues --   -0.38418  -0.37767  -0.37395  -0.36989  -0.34706
 Alpha  occ. eigenvalues --   -0.34426  -0.34041  -0.33458  -0.30051  -0.25533
 Alpha  occ. eigenvalues --   -0.19249  -0.16413
 Alpha virt. eigenvalues --   -0.15480  -0.11910  -0.10835  -0.09679  -0.09400
 Alpha virt. eigenvalues --   -0.08890  -0.08878  -0.07106  -0.06222  -0.05538
 Alpha virt. eigenvalues --   -0.04438  -0.03227  -0.02725  -0.02493  -0.02051

 Mulliken charges:
               1
     1  N   -0.717644
     2  H    0.416681
     3  H    0.429507
     4  H    0.426265
     5  C   -0.172785
     6  H    0.199200
     7  C    0.645911
     8  C   -0.294283
     9  H    0.210674
    10  H    0.249926
    11  O   -0.504693
    12  C   -0.364557
    13  H    0.167902
    14  H    0.249927
    15  C    0.578139
    16  O   -0.484374
    17  O   -0.528171
    18  N   -0.623330
    19  H    0.346067
    20  C   -0.076624
    21  H    0.170499
    22  C    0.654671
    23  C   -0.360152
    24  H    0.168809
    25  H    0.169889
    26  O   -0.515705
    27  C    0.132887
    28  C   -0.208407
    29  H    0.080039
    30  C   -0.206394
    31  H    0.068801
    32  C   -0.244963
    33  H    0.083860
    34  C   -0.221750
    35  H    0.097422
    36  O   -0.613964
    37  C    0.405836
    38  N   -0.614953
    39  H    0.327505
    40  C   -0.057396
    41  H    0.231605
    42  C    0.591032
    43  C   -0.284697
    44  H    0.127470
    45  H    0.175516
    46  O   -0.437799
    47  C   -0.271922
    48  H    0.158735
    49  H    0.206518
    50  C   -0.291324
    51  H    0.170127
    52  H    0.172245
    53  C   -0.220561
    54  H    0.219486
    55  H    0.220157
    56  N   -0.670412
    57  H    0.392917
    58  H    0.392979
    59  H    0.392011
    60  O   -0.589929
    61  H    0.425545
    62  H    0.420030
 Sum of Mulliken charges =   1.00000

 Dipole moment (field-independent basis, Debye):
    X=             20.9138    Y=             27.8008    Z=             13.1675  Tot=             37.1975
 Quadrupole moment (field-independent basis, Debye-Ang):
   XX=           -223.6568   YY=             21.6909   ZZ=           -125.7453
   XY=             60.4856   XZ=            -32.7092   YZ=            -64.4562

 Normal termination of Gaussian 16 at Tue May 24 03:23:06 2022.
