 Gaussian 16, Revision C.01,
 Gaussian 16:  ES64L-G16RevC.01  3-Jul-2019

 -------------------------------------------------------------------
 # B3LYP/6-31G* guess=read geom=check nosymm integral(ultrafinegrid)
 -------------------------------------------------------------------

 ------------------------------------------------------
 Candidate Structure: Conf:123 Charge calc in gas phase
 ------------------------------------------------------
 Structure from the checkpoint file:  "conf-123.chk"
 Charge =  1 Multiplicity = 1

                          Input orientation:
 ---------------------------------------------------------------------
 Center     Atomic      Atomic             Coordinates (Angstroms)
 Number     Number       Type             X           Y           Z
 ---------------------------------------------------------------------
      1          7           0       -2.834461   -0.831582    2.118270
      2          1           0       -2.764469   -1.352503    1.168145
      3          1           0       -3.466282   -1.372014    2.716487
      4          1           0       -3.295245    0.060132    1.900481
      5          6           0       -1.456043   -0.651667    2.691410
      6          1           0       -0.975352   -1.630102    2.593575
      7          6           0       -0.760453    0.386653    1.782232
      8          6           0       -1.474352   -0.260842    4.177204
      9          1           0       -0.437620   -0.125814    4.503035
     10          1           0       -1.849638   -1.119964    4.748180
     11          8           0       -1.206243    1.520977    1.697331
     12          6           0       -2.278344    0.992744    4.543625
     13          1           0       -3.359175    0.847580    4.432876
     14          1           0       -2.012802    1.833140    3.892723
     15          6           0       -1.997480    1.408172    5.976397
     16          8           0       -1.050423    1.039632    6.635065
     17          8           0       -2.930485    2.270968    6.426392
     18          7           0        0.357442   -0.051440    1.107412
     19          1           0        0.435954   -1.061834    1.043284
     20          6           0        0.770462    0.649971   -0.113920
     21          1           0        0.180443    1.571212   -0.146956
     22          6           0        2.233863    1.066684   -0.100569
     23          6           0        0.413375   -0.194910   -1.395198
     24          1           0        0.677138    0.424914   -2.258948
     25          1           0        1.066829   -1.077957   -1.424144
     26          8           0        2.719010    1.641960   -1.102875
     27          6           0       -1.034435   -0.592440   -1.365354
     28          6           0       -1.436632   -1.834473   -0.867873
     29          1           0       -0.694880   -2.628129   -0.748399
     30          6           0       -2.053452    0.367767   -1.609946
     31          1           0       -1.774360    1.323579   -2.056708
     32          6           0       -2.763760   -2.081849   -0.485174
     33          1           0       -3.077779   -3.074632   -0.166779
     34          6           0       -3.370622    0.150549   -1.275388
     35          1           0       -4.127415    0.908615   -1.459269
     36          8           0       -4.872686   -1.126767    0.072853
     37          6           0       -3.789180   -1.046414   -0.564685
     38          7           0        2.954775    0.782378    0.989265
     39          1           0        2.498895    0.330929    1.778933
     40          6           0        4.382638    1.034940    1.130955
     41          1           0        4.926677    0.421657    0.399487
     42          6           0        4.771749    0.503390    2.510120
     43          6           0        4.784313    2.527297    0.914443
     44          1           0        3.859057    3.104431    0.818516
     45          1           0        5.289454    2.914253    1.804764
     46          8           0        3.994916   -0.007893    3.285551
     47          6           0        5.700862    2.719912   -0.310011
     48          1           0        5.394399    2.026727   -1.102996
     49          1           0        6.718341    2.429063   -0.029034
     50          6           0        5.718580    4.158564   -0.874697
     51          1           0        5.471487    4.892720   -0.095293
     52          1           0        6.728388    4.418731   -1.211570
     53          6           0        4.824213    4.370459   -2.095933
     54          1           0        4.904755    5.389942   -2.481603
     55          1           0        5.079896    3.673145   -2.897838
     56          7           0        3.356245    4.130245   -1.799440
     57          1           0        2.783553    4.288410   -2.635305
     58          1           0        3.017118    4.773178   -1.076682
     59          1           0        3.154418    3.131945   -1.473500
     60          8           0        6.083612    0.661602    2.737917
     61          1           0       -2.677365    2.515013    7.337445
     62          1           0        6.279857    0.293501    3.621622
 ---------------------------------------------------------------------

 SCF Done:  E(RB3LYP) =  -1526.15383861     A.U. after    2 cycles

 Alpha  occ. eigenvalues --  -19.32231 -19.27717 -19.26893 -19.25873 -19.24771
 Alpha  occ. eigenvalues --  -19.22253 -19.11577 -14.59705 -14.54012 -14.49584
 Alpha  occ. eigenvalues --  -14.48637 -10.44979 -10.42540 -10.41897 -10.40638
 Alpha  occ. eigenvalues --  -10.39870 -10.37596 -10.37434 -10.34703 -10.33924
 Alpha  occ. eigenvalues --  -10.32748 -10.32092 -10.31104 -10.29794 -10.28673
 Alpha  occ. eigenvalues --  -10.27667 -10.25141 -10.24393 -10.23901 -10.22031
 Alpha  occ. eigenvalues --  -10.22004  -1.23367  -1.18732  -1.17324  -1.16698
 Alpha  occ. eigenvalues --   -1.14630  -1.14264  -1.09831  -1.09158  -1.06565
 Alpha  occ. eigenvalues --   -1.04608  -1.01379  -0.94924  -0.92033  -0.91263
 Alpha  occ. eigenvalues --   -0.90088  -0.87249  -0.85274  -0.84052  -0.79772
 Alpha  occ. eigenvalues --   -0.79303  -0.78858  -0.76269  -0.74723  -0.74557
 Alpha  occ. eigenvalues --   -0.73036  -0.71822  -0.71482  -0.70954  -0.70533
 Alpha  occ. eigenvalues --   -0.69505  -0.67307  -0.66474  -0.66022  -0.64754
 Alpha  occ. eigenvalues --   -0.64412  -0.62925  -0.62088  -0.61653  -0.60571
 Alpha  occ. eigenvalues --   -0.60280  -0.59637  -0.59011  -0.58639  -0.58184
 Alpha  occ. eigenvalues --   -0.57832  -0.57109  -0.56580  -0.55956  -0.55820
 Alpha  occ. eigenvalues --   -0.55271  -0.54364  -0.53357  -0.52844  -0.52515
 Alpha  occ. eigenvalues --   -0.52487  -0.51880  -0.50914  -0.50654  -0.50388
 Alpha  occ. eigenvalues --   -0.49947  -0.49144  -0.48494  -0.47786  -0.47637
 Alpha  occ. eigenvalues --   -0.47370  -0.46811  -0.46631  -0.46445  -0.46049
 Alpha  occ. eigenvalues --   -0.45365  -0.44368  -0.43935  -0.41966  -0.41185
 Alpha  occ. eigenvalues --   -0.40396  -0.39988  -0.39770  -0.39564  -0.39192
 Alpha  occ. eigenvalues --   -0.38456  -0.37563  -0.35919  -0.35410  -0.30589
 Alpha  occ. eigenvalues --   -0.25324  -0.22938
 Alpha virt. eigenvalues --   -0.12527  -0.11813  -0.11537  -0.11060  -0.07241
 Alpha virt. eigenvalues --   -0.06475  -0.06109  -0.05515  -0.04155  -0.03828
 Alpha virt. eigenvalues --   -0.03462  -0.02964  -0.02016  -0.01149  -0.00901

 Mulliken charges:
               1
     1  N   -0.746348
     2  H    0.396751
     3  H    0.404523
     4  H    0.423072
     5  C   -0.099776
     6  H    0.183260
     7  C    0.630559
     8  C   -0.289316
     9  H    0.203164
    10  H    0.177308
    11  O   -0.487057
    12  C   -0.383275
    13  H    0.177831
    14  H    0.226979
    15  C    0.588272
    16  O   -0.453012
    17  O   -0.557499
    18  N   -0.623212
    19  H    0.344987
    20  C   -0.064273
    21  H    0.211293
    22  C    0.650676
    23  C   -0.375752
    24  H    0.165383
    25  H    0.146622
    26  O   -0.617550
    27  C    0.144410
    28  C   -0.182695
    29  H    0.105647
    30  C   -0.171630
    31  H    0.100815
    32  C   -0.353192
    33  H    0.134057
    34  C   -0.201686
    35  H    0.128587
    36  O   -0.635518
    37  C    0.381296
    38  N   -0.622382
    39  H    0.379652
    40  C   -0.001301
    41  H    0.211144
    42  C    0.573113
    43  C   -0.283332
    44  H    0.132120
    45  H    0.191937
    46  O   -0.449401
    47  C   -0.299158
    48  H    0.167544
    49  H    0.188688
    50  C   -0.293443
    51  H    0.168939
    52  H    0.201321
    53  C   -0.200176
    54  H    0.212598
    55  H    0.221112
    56  N   -0.773414
    57  H    0.412457
    58  H    0.399830
    59  H    0.472606
    60  O   -0.557150
    61  H    0.423349
    62  H    0.439643
 Sum of Mulliken charges =   1.00000

 Dipole moment (field-independent basis, Debye):
    X=             19.9803    Y=             14.4195    Z=              3.8137  Tot=             24.9335
 Quadrupole moment (field-independent basis, Debye-Ang):
   XX=           -113.3724   YY=           -106.4066   ZZ=           -139.9270
   XY=             53.6509   XZ=            -34.2566   YZ=            -28.9204

 Normal termination of Gaussian 16 at Tue May 24 03:23:38 2022.
