 Gaussian 16, Revision C.01,
 Gaussian 16:  ES64L-G16RevC.01  3-Jul-2019

 ----------------------------------------------------------------------
 # B3LYP/6-31G* empiricaldispersion=gd3 guess=read geom=check nosymm in
 tegral(ultrafinegrid)
 ----------------------------------------------------------------------

 ------------------------------------------------------
 Candidate Structure: Conf:156 Charge calc in gas phase
 ------------------------------------------------------
 Structure from the checkpoint file:  "conf-156.chk"
 Charge =  1 Multiplicity = 1

                          Input orientation:
 ---------------------------------------------------------------------
 Center     Atomic      Atomic             Coordinates (Angstroms)
 Number     Number       Type             X           Y           Z
 ---------------------------------------------------------------------
      1          7           0       -6.486430   -9.227890  -10.256801
      2          1           0       -7.105594   -9.509520  -11.023081
      3          1           0       -5.774205   -8.533255  -10.636694
      4          1           0       -6.030474  -10.063163   -9.879266
      5          6           0       -7.188662   -8.394068   -9.207326
      6          1           0       -8.263420   -8.574813   -9.253539
      7          6           0       -6.806008   -6.939668   -9.623489
      8          6           0       -6.657164   -8.745159   -7.802184
      9          1           0       -6.936695   -9.773536   -7.548262
     10          1           0       -5.570555   -8.630626   -7.753712
     11          8           0       -5.830791   -6.817322  -10.378720
     12          6           0       -7.350479   -7.778188   -6.841088
     13          8           0       -8.561756   -7.673114   -6.834346
     14          8           0       -6.490179   -7.017533   -6.180942
     15          7           0       -7.537781   -5.952178   -9.109899
     16          1           0       -8.267291   -6.178816   -8.437092
     17          6           0       -7.117736   -4.545622   -9.100472
     18          1           0       -6.254721   -4.451876   -9.762020
     19          6           0       -6.756548   -4.177943   -7.651286
     20          6           0       -8.272730   -3.622690   -9.584593
     21          1           0       -9.176414   -3.893520   -9.025960
     22          1           0       -8.458057   -3.841537  -10.642317
     23          8           0       -7.461847   -4.607198   -6.718240
     24          6           0       -7.935255   -2.165621   -9.360336
     25          6           0       -8.348911   -1.511578   -8.190139
     26          1           0       -9.007425   -2.025850   -7.494298
     27          6           0       -7.080327   -1.483417  -10.233276
     28          1           0       -6.749633   -1.963149  -11.152260
     29          6           0       -7.898371   -0.232565   -7.879533
     30          1           0       -8.202351    0.267714   -6.966067
     31          6           0       -6.621219   -0.202157   -9.935901
     32          1           0       -5.935963    0.302744  -10.612504
     33          8           0       -6.553594    1.645245   -8.362270
     34          1           0       -5.919512    1.972665   -9.019269
     35          6           0       -7.010627    0.416781   -8.743838
     36          7           0       -5.735130   -3.338036   -7.497774
     37          1           0       -5.274165   -2.909358   -8.301721
     38          6           0       -5.548788   -2.574024   -6.271688
     39          1           0       -6.540876   -2.363031   -5.860482
     40          6           0       -4.881686   -1.260675   -6.711841
     41          6           0       -4.715358   -3.328271   -5.195703
     42          1           0       -3.649203   -3.193130   -5.401220
     43          1           0       -4.941706   -4.394737   -5.310488
     44          8           0       -4.381153   -1.156612   -7.832073
     45          6           0       -5.058254   -2.877887   -3.791343
     46          6           0       -4.166443   -2.121439   -3.015467
     47          1           0       -3.205317   -1.839217   -3.432223
     48          6           0       -6.309959   -3.195241   -3.246101
     49          1           0       -7.018245   -3.775052   -3.835503
     50          6           0       -4.510254   -1.699426   -1.734316
     51          1           0       -3.831728   -1.096603   -1.141215
     52          6           0       -6.665641   -2.776943   -1.965334
     53          1           0       -7.642206   -3.031366   -1.557005
     54          8           0       -6.053907   -1.567734    0.049969
     55          1           0       -6.930144   -1.889208    0.313298
     56          6           0       -5.761690   -2.026225   -1.204852
     57          7           0       -4.936393   -0.261751   -5.804178
     58          1           0       -5.183369   -0.513706   -4.852023
     59          6           0       -4.100469    0.915508   -5.947873
     60          1           0       -4.010794    1.103957   -7.021850
     61          6           0       -2.678927    0.577419   -5.424102
     62          6           0       -4.789157    2.137295   -5.289657
     63          1           0       -4.169725    3.028589   -5.439509
     64          1           0       -5.714045    2.305066   -5.851427
     65          8           0       -2.347402   -0.580743   -5.179167
     66          6           0       -5.089375    1.948625   -3.817194
     67          6           0       -6.294940    1.352943   -3.416436
     68          1           0       -7.026399    1.071900   -4.171515
     69          6           0       -4.166306    2.327577   -2.831621
     70          1           0       -3.238684    2.816303   -3.116768
     71          6           0       -6.565426    1.121927   -2.067775
     72          1           0       -7.497186    0.645219   -1.776852
     73          6           0       -4.440980    2.100333   -1.481866
     74          1           0       -3.716939    2.400904   -0.730872
     75          6           0       -5.636417    1.492357   -1.095025
     76          1           0       -5.836836    1.290045   -0.047786
     77          7           0       -1.830589    1.626089   -5.312306
     78          1           0       -2.175309    2.579164   -5.344524
     79          6           0       -0.538933    1.502273   -4.655928
     80          1           0       -0.573863    0.612862   -4.017687
     81          6           0       -0.370544    2.755815   -3.778974
     82          6           0        0.609628    1.352756   -5.666904
     83          1           0        1.575442    1.247655   -5.161232
     84          1           0        0.436750    0.461476   -6.276610
     85          1           0        0.656638    2.227099   -6.324532
     86          8           0       -1.116753    3.731820   -3.915081
     87          7           0        0.626757    2.691618   -2.877243
     88          1           0        1.283815    1.917484   -2.886173
     89          6           0        1.017880    3.797433   -2.019079
     90          1           0        0.635863    4.722010   -2.460497
     91          6           0        2.551762    3.804967   -1.964402
     92          6           0        0.485700    3.622617   -0.574053
     93          1           0        0.908448    2.688744   -0.180122
     94          1           0        0.886923    4.429508    0.054138
     95          8           0        3.194426    2.789717   -2.218858
     96          6           0       -1.045945    3.576155   -0.436645
     97          1           0       -1.416318    2.781209   -1.099587
     98          6           0       -1.409451    3.201651    1.008530
     99          1           0       -1.035574    3.958175    1.710365
    100          1           0       -2.496104    3.139699    1.141971
    101          1           0       -0.977678    2.235449    1.295275
    102          6           0       -1.714811    4.895071   -0.846979
    103          1           0       -1.339524    5.726819   -0.236053
    104          1           0       -2.799828    4.838170   -0.699542
    105          1           0       -1.541858    5.121683   -1.902456
    106          7           0        3.116161    4.980272   -1.559060
    107          1           0        2.477877    5.662756   -1.161903
    108          6           0        4.414380    4.970877   -0.882599
    109          1           0        4.971359    4.119177   -1.279358
    110          6           0        4.124794    4.788239    0.619945
    111          6           0        5.170052    6.279500   -1.126780
    112          1           0        6.143132    6.257495   -0.625181
    113          1           0        4.601139    7.126852   -0.728254
    114          1           0        5.327246    6.431547   -2.198531
    115          8           0        3.163888    5.363632    1.137779
    116          7           0        4.969132    3.991859    1.308995
    117          1           0        5.677759    3.437513    0.841691
    118          6           0        4.693358    3.621754    2.682862
    119          1           0        4.412872    4.526950    3.232875
    120          6           0        5.962666    3.006407    3.272813
    121          6           0        3.502002    2.614868    2.766330
    122          1           0        2.632140    3.135373    2.355901
    123          1           0        3.288370    2.410887    3.823173
    124          8           0        6.892680    2.620860    2.567554
    125          6           0        3.732592    1.347121    2.012536
    126          6           0        3.402419    0.967431    0.728414
    127          1           0        2.884225    1.547418   -0.022875
    128          7           0        4.425389    0.269143    2.532366
    129          1           0        4.924723    0.230796    3.423101
    130          6           0        4.475839   -0.681759    1.557526
    131          1           0        4.962823   -1.634886    1.713058
    132          7           0        3.862550   -0.300766    0.453304
    133          7           0        5.944999    2.847099    4.619597
    134          1           0        5.245470    3.304714    5.191215
    135          6           0        7.038330    2.220298    5.331948
    136          1           0        7.954605    2.817414    5.210322
    137          6           0        7.269095    0.788984    4.813604
    138          6           0        6.657553    2.138830    6.834075
    139          1           0        5.865482    1.388144    6.921942
    140          8           0        6.318043    0.019603    4.645045
    141          6           0        7.846350    1.762103    7.712716
    142          1           0        8.287361    0.807485    7.409963
    143          1           0        8.633362    2.525552    7.645028
    144          1           0        7.526099    1.688672    8.755571
    145          8           0        6.045236    3.356837    7.263074
    146          1           0        6.738478    4.035328    7.323227
    147          7           0        8.554580    0.436823    4.658989
    148          1           0        9.302204    1.085143    4.880027
    149          6           0        9.006081   -0.910735    4.341891
    150          1           0        8.182645   -1.596414    4.564968
    151          6           0       10.208349   -1.169152    5.263275
    152          6           0        9.394815   -1.049728    2.842041
    153          1           0       10.231860   -0.357031    2.670991
    154          8           0       10.959797   -0.235863    5.580020
    155          6           0        9.860368   -2.476480    2.511939
    156          1           0        9.067389   -3.205085    2.725966
    157          1           0       10.747106   -2.779765    3.075812
    158          1           0       10.096943   -2.555269    1.445418
    159          6           0        8.222868   -0.640796    1.938909
    160          1           0        7.360003   -1.294405    2.108699
    161          1           0        8.509710   -0.733292    0.885322
    162          1           0        7.902438    0.389343    2.113100
    163          7           0       10.383050   -2.433908    5.676236
    164          1           0        9.850112   -3.216000    5.295838
    165          6           0       11.593043   -2.865068    6.354880
    166          1           0       12.444545   -2.398486    5.841757
    167          6           0       11.723560   -4.407196    6.131419
    168          6           0       11.617247   -2.419601    7.849784
    169          1           0       10.661219   -1.931470    8.057010
    170          1           0       11.666002   -3.299263    8.504599
    171          8           0       12.794890   -4.932878    6.614988
    172          6           0       12.752307   -1.434808    8.196610
    173          1           0       12.473556   -0.837545    9.074101
    174          1           0       12.870774   -0.734986    7.361430
    175          6           0       14.091189   -2.116730    8.530676
    176          1           0       14.020483   -2.622875    9.499746
    177          1           0       14.890965   -1.373177    8.625371
    178          7           0       14.444676   -3.142582    7.551054
    179          1           0       13.719550   -3.915948    7.386399
    180          7           0       16.324083   -2.172545    6.505483
    181          1           0       16.668742   -1.878587    5.602692
    182          1           0       16.416500   -1.497044    7.248934
    183          7           0       15.125101   -3.891771    5.495361
    184          1           0       15.931196   -4.171043    4.954515
    185          1           0       14.333115   -4.546242    5.579048
    186          6           0       15.287597   -3.051799    6.539545
    187          8           0       10.832952   -4.975724    5.493929
    188          1           0       -6.955331   -6.181344   -5.911779
 ---------------------------------------------------------------------

 SCF Done:  E(RB3LYP) =  -4648.74471710     A.U. after    1 cycles

 Alpha  occ. eigenvalues --  -19.29552 -19.27216 -19.25004 -19.24527 -19.22562
 Alpha  occ. eigenvalues --  -19.21421 -19.20515 -19.18096 -19.16761 -19.16443
 Alpha  occ. eigenvalues --  -19.16432 -19.16373 -19.15855 -19.15439 -19.14699
 Alpha  occ. eigenvalues --  -19.12116 -19.11198 -14.60839 -14.49748 -14.44555
 Alpha  occ. eigenvalues --  -14.44430 -14.42182 -14.41664 -14.41406 -14.40634
 Alpha  occ. eigenvalues --  -14.40589 -14.40283 -14.40042 -14.40013 -14.39900
 Alpha  occ. eigenvalues --  -14.38584 -14.38000 -14.31542 -10.44024 -10.43922
 Alpha  occ. eigenvalues --  -10.41624 -10.39446 -10.38284 -10.34966 -10.34920
 Alpha  occ. eigenvalues --  -10.34108 -10.33666 -10.33446 -10.33283 -10.33168
 Alpha  occ. eigenvalues --  -10.33162 -10.32440 -10.31579 -10.31484 -10.30010
 Alpha  occ. eigenvalues --  -10.29580 -10.29510 -10.29462 -10.28637 -10.28614
 Alpha  occ. eigenvalues --  -10.28603 -10.28144 -10.27949 -10.27559 -10.27530
 Alpha  occ. eigenvalues --  -10.27290 -10.26366 -10.26228 -10.26167 -10.25909
 Alpha  occ. eigenvalues --  -10.25648 -10.25179 -10.25103 -10.24753 -10.24513
 Alpha  occ. eigenvalues --  -10.24175 -10.24070 -10.23957 -10.23906 -10.23849
 Alpha  occ. eigenvalues --  -10.23180 -10.23060 -10.23058 -10.23053 -10.22941
 Alpha  occ. eigenvalues --  -10.22802 -10.22738 -10.22679 -10.22668 -10.22649
 Alpha  occ. eigenvalues --  -10.22569 -10.22471 -10.22359 -10.22273 -10.22254
 Alpha  occ. eigenvalues --  -10.22236 -10.22118 -10.20485 -10.20219 -10.19917
 Alpha  occ. eigenvalues --  -10.19770 -10.18786  -1.21346  -1.19675  -1.14576
 Alpha  occ. eigenvalues --   -1.13106  -1.12540  -1.12474  -1.10522  -1.10105
 Alpha  occ. eigenvalues --   -1.08982  -1.08908  -1.08327  -1.08144  -1.07827
 Alpha  occ. eigenvalues --   -1.07713  -1.07513  -1.07048  -1.06312  -1.06305
 Alpha  occ. eigenvalues --   -1.04743  -1.01380  -1.01157  -0.98523  -0.97914
 Alpha  occ. eigenvalues --   -0.97352  -0.97139  -0.96979  -0.96810  -0.96600
 Alpha  occ. eigenvalues --   -0.96406  -0.96326  -0.95990  -0.94513  -0.94469
 Alpha  occ. eigenvalues --   -0.92645  -0.90237  -0.89565  -0.88517  -0.87139
 Alpha  occ. eigenvalues --   -0.85337  -0.84905  -0.84349  -0.83777  -0.83612
 Alpha  occ. eigenvalues --   -0.83455  -0.82868  -0.81961  -0.81612  -0.81452
 Alpha  occ. eigenvalues --   -0.81007  -0.80526  -0.79333  -0.78911  -0.78289
 Alpha  occ. eigenvalues --   -0.78021  -0.77804  -0.76946  -0.76749  -0.75405
 Alpha  occ. eigenvalues --   -0.75054  -0.74603  -0.74360  -0.73382  -0.72845
 Alpha  occ. eigenvalues --   -0.71573  -0.71422  -0.71173  -0.70985  -0.70586
 Alpha  occ. eigenvalues --   -0.70333  -0.70173  -0.69843  -0.69281  -0.69102
 Alpha  occ. eigenvalues --   -0.68989  -0.67829  -0.67045  -0.66918  -0.66803
 Alpha  occ. eigenvalues --   -0.66551  -0.65999  -0.65132  -0.64975  -0.64758
 Alpha  occ. eigenvalues --   -0.64569  -0.64197  -0.63908  -0.63600  -0.63255
 Alpha  occ. eigenvalues --   -0.62968  -0.62651  -0.62316  -0.62150  -0.61965
 Alpha  occ. eigenvalues --   -0.61745  -0.61152  -0.61124  -0.61009  -0.60683
 Alpha  occ. eigenvalues --   -0.60502  -0.60216  -0.60024  -0.59808  -0.59594
 Alpha  occ. eigenvalues --   -0.58953  -0.58849  -0.58624  -0.58558  -0.58260
 Alpha  occ. eigenvalues --   -0.57810  -0.57036  -0.56489  -0.56073  -0.55915
 Alpha  occ. eigenvalues --   -0.55835  -0.55511  -0.55308  -0.55152  -0.54739
 Alpha  occ. eigenvalues --   -0.54660  -0.54156  -0.54083  -0.53947  -0.53559
 Alpha  occ. eigenvalues --   -0.53228  -0.52982  -0.52707  -0.52563  -0.52312
 Alpha  occ. eigenvalues --   -0.51925  -0.51710  -0.51502  -0.51304  -0.51265
 Alpha  occ. eigenvalues --   -0.51171  -0.51043  -0.50577  -0.50533  -0.50452
 Alpha  occ. eigenvalues --   -0.50343  -0.50128  -0.49922  -0.49763  -0.49413
 Alpha  occ. eigenvalues --   -0.49373  -0.49197  -0.49185  -0.48974  -0.48885
 Alpha  occ. eigenvalues --   -0.48807  -0.48447  -0.48396  -0.48302  -0.48083
 Alpha  occ. eigenvalues --   -0.47855  -0.47709  -0.47512  -0.47460  -0.47302
 Alpha  occ. eigenvalues --   -0.46952  -0.46947  -0.46826  -0.46776  -0.46742
 Alpha  occ. eigenvalues --   -0.46357  -0.46316  -0.46118  -0.45935  -0.45716
 Alpha  occ. eigenvalues --   -0.45613  -0.45519  -0.45115  -0.45002  -0.44851
 Alpha  occ. eigenvalues --   -0.44624  -0.44602  -0.44353  -0.44125  -0.44013
 Alpha  occ. eigenvalues --   -0.43674  -0.43664  -0.43463  -0.43362  -0.43196
 Alpha  occ. eigenvalues --   -0.42946  -0.42712  -0.42625  -0.42512  -0.42425
 Alpha  occ. eigenvalues --   -0.42234  -0.42199  -0.42068  -0.42034  -0.41990
 Alpha  occ. eigenvalues --   -0.41898  -0.41728  -0.41597  -0.41493  -0.41475
 Alpha  occ. eigenvalues --   -0.41392  -0.41251  -0.41192  -0.40956  -0.40761
 Alpha  occ. eigenvalues --   -0.40695  -0.40562  -0.40530  -0.40248  -0.40198
 Alpha  occ. eigenvalues --   -0.40135  -0.40004  -0.39806  -0.39718  -0.39232
 Alpha  occ. eigenvalues --   -0.39095  -0.38955  -0.38800  -0.38754  -0.38653
 Alpha  occ. eigenvalues --   -0.38330  -0.38145  -0.37798  -0.37733  -0.37451
 Alpha  occ. eigenvalues --   -0.37401  -0.37371  -0.36186  -0.36110  -0.35842
 Alpha  occ. eigenvalues --   -0.35751  -0.35597  -0.35544  -0.35287  -0.35182
 Alpha  occ. eigenvalues --   -0.34661  -0.33549  -0.32709  -0.32217  -0.31988
 Alpha  occ. eigenvalues --   -0.31613  -0.31438  -0.30967  -0.30887  -0.30766
 Alpha  occ. eigenvalues --   -0.30465  -0.30327  -0.30260  -0.29760  -0.29661
 Alpha  occ. eigenvalues --   -0.29518  -0.29398  -0.29273  -0.28904  -0.28521
 Alpha  occ. eigenvalues --   -0.28515  -0.28473  -0.28304  -0.28253  -0.27977
 Alpha  occ. eigenvalues --   -0.27508  -0.27091  -0.26388  -0.26365  -0.25302
 Alpha  occ. eigenvalues --   -0.23085
 Alpha virt. eigenvalues --   -0.13051  -0.11910  -0.11235  -0.08230  -0.07034
 Alpha virt. eigenvalues --   -0.06199  -0.06045  -0.05316  -0.04667  -0.04600
 Alpha virt. eigenvalues --   -0.04367  -0.03811  -0.03190  -0.02968  -0.02807

 Mulliken charges:
               1
     1  N   -0.756722
     2  H    0.421435
     3  H    0.435550
     4  H    0.418384
     5  C   -0.122084
     6  H    0.240979
     7  C    0.637098
     8  C   -0.363116
     9  H    0.211874
    10  H    0.210802
    11  O   -0.533059
    12  C    0.583917
    13  O   -0.454233
    14  O   -0.554419
    15  N   -0.586510
    16  H    0.386828
    17  C   -0.083051
    18  H    0.198220
    19  C    0.640327
    20  C   -0.357903
    21  H    0.168239
    22  H    0.168974
    23  O   -0.601787
    24  C    0.142722
    25  C   -0.190887
    26  H    0.145932
    27  C   -0.201239
    28  H    0.132286
    29  C   -0.166702
    30  H    0.155734
    31  C   -0.159380
    32  H    0.137959
    33  O   -0.642173
    34  H    0.417491
    35  C    0.369729
    36  N   -0.582121
    37  H    0.372976
    38  C   -0.062860
    39  H    0.185932
    40  C    0.648201
    41  C   -0.353823
    42  H    0.190768
    43  H    0.152942
    44  O   -0.553615
    45  C    0.115172
    46  C   -0.215212
    47  H    0.186175
    48  C   -0.194750
    49  H    0.132315
    50  C   -0.146647
    51  H    0.151652
    52  C   -0.195256
    53  H    0.122128
    54  O   -0.644281
    55  H    0.409034
    56  C    0.361919
    57  N   -0.599146
    58  H    0.364754
    59  C   -0.075433
    60  H    0.186710
    61  C    0.631300
    62  C   -0.394654
    63  H    0.159717
    64  H    0.183475
    65  O   -0.531553
    66  C    0.148016
    67  C   -0.197768
    68  H    0.125195
    69  C   -0.204941
    70  H    0.167336
    71  C   -0.119577
    72  H    0.123689
    73  C   -0.149261
    74  H    0.151784
    75  C   -0.121919
    76  H    0.141993
    77  N   -0.608709
    78  H    0.355310
    79  C   -0.057954
    80  H    0.189165
    81  C    0.626491
    82  C   -0.445251
    83  H    0.164651
    84  H    0.177260
    85  H    0.158994
    86  O   -0.546652
    87  N   -0.596229
    88  H    0.360553
    89  C   -0.084111
    90  H    0.183131
    91  C    0.614406
    92  C   -0.284226
    93  H    0.155762
    94  H    0.165842
    95  O   -0.517541
    96  C   -0.071973
    97  H    0.132326
    98  C   -0.454683
    99  H    0.147763
   100  H    0.144628
   101  H    0.148598
   102  C   -0.468993
   103  H    0.135105
   104  H    0.143386
   105  H    0.177254
   106  N   -0.574177
   107  H    0.341319
   108  C   -0.082100
   109  H    0.187943
   110  C    0.634264
   111  C   -0.450662
   112  H    0.162298
   113  H    0.163882
   114  H    0.170187
   115  O   -0.552854
   116  N   -0.601618
   117  H    0.360360
   118  C   -0.045393
   119  H    0.174814
   120  C    0.632644
   121  C   -0.374739
   122  H    0.191397
   123  H    0.151620
   124  O   -0.532046
   125  C    0.310769
   126  C   -0.104027
   127  H    0.134964
   128  N   -0.626837
   129  H    0.389868
   130  C    0.198808
   131  H    0.148379
   132  N   -0.438095
   133  N   -0.627327
   134  H    0.350689
   135  C   -0.031900
   136  H    0.142215
   137  C    0.659405
   138  C    0.102464
   139  H    0.176888
   140  O   -0.569137
   141  C   -0.480093
   142  H    0.176394
   143  H    0.140834
   144  H    0.174863
   145  O   -0.623284
   146  H    0.394518
   147  N   -0.590434
   148  H    0.348597
   149  C   -0.058372
   150  H    0.173791
   151  C    0.615500
   152  C   -0.069932
   153  H    0.131588
   154  O   -0.571994
   155  C   -0.464250
   156  H    0.150725
   157  H    0.158244
   158  H    0.149560
   159  C   -0.471199
   160  H    0.143893
   161  H    0.142232
   162  H    0.193890
   163  N   -0.612785
   164  H    0.360449
   165  C   -0.047383
   166  H    0.147684
   167  C    0.596347
   168  C   -0.286850
   169  H    0.162801
   170  H    0.158162
   171  O   -0.642021
   172  C   -0.271873
   173  H    0.144426
   174  H    0.175862
   175  C   -0.166492
   176  H    0.180102
   177  H    0.136092
   178  N   -0.600351
   179  H    0.423060
   180  N   -0.755442
   181  H    0.362044
   182  H    0.364326
   183  N   -0.778398
   184  H    0.349182
   185  H    0.408411
   186  C    0.749787
   187  O   -0.530781
   188  H    0.468415
 Sum of Mulliken charges =   1.00000

 Dipole moment (field-independent basis, Debye):
    X=             -7.9166    Y=            -23.5913    Z=            -28.7680  Tot=             38.0371
 Quadrupole moment (field-independent basis, Debye-Ang):
   XX=              3.0965   YY=           -281.1623   ZZ=            -90.8839
   XY=            254.6842   XZ=            409.2758   YZ=            339.3094

 Normal termination of Gaussian 16 at Wed Aug 10 12:54:09 2022.
