 Gaussian 16, Revision C.01,
 Gaussian 16:  ES64L-G16RevC.01  3-Jul-2019

 ----------------------------------------------------------------------
 # B3LYP/6-31G* empiricaldispersion=gd3 guess=read geom=check nosymm in
 tegral(ultrafinegrid)
 ----------------------------------------------------------------------

 ------------------------------------------------------
 Candidate Structure: Conf:535 Charge calc in gas phase
 ------------------------------------------------------
 Structure from the checkpoint file:  "conf-535.chk"
 Charge =  1 Multiplicity = 1

                          Input orientation:
 ---------------------------------------------------------------------
 Center     Atomic      Atomic             Coordinates (Angstroms)
 Number     Number       Type             X           Y           Z
 ---------------------------------------------------------------------
      1          7           0       -7.513582   -6.627221    1.486659
      2          1           0       -7.951768   -7.053559    2.306664
      3          1           0       -8.256163   -6.378561    0.749360
      4          1           0       -6.841470   -7.289957    1.091557
      5          6           0       -6.916420   -5.262490    1.760784
      6          1           0       -7.065033   -5.017514    2.814024
      7          6           0       -7.777769   -4.342242    0.843875
      8          6           0       -5.416995   -5.220151    1.410111
      9          1           0       -4.922816   -6.170142    1.649004
     10          1           0       -5.275747   -5.016711    0.342537
     11          8           0       -8.620993   -4.894337    0.121651
     12          6           0       -4.720470   -4.124121    2.205489
     13          8           0       -5.323911   -3.373645    2.950323
     14          8           0       -3.413944   -4.101731    1.973054
     15          7           0       -7.526429   -3.032829    0.860525
     16          1           0       -6.770078   -2.704973    1.458056
     17          6           0       -7.827331   -2.234489   -0.327337
     18          1           0       -8.907398   -2.248147   -0.504020
     19          6           0       -7.106792   -2.882117   -1.539744
     20          6           0       -7.350103   -0.758188   -0.130733
     21          1           0       -8.052019   -0.265049    0.549379
     22          1           0       -7.419522   -0.247443   -1.097491
     23          8           0       -6.211900   -3.710087   -1.391071
     24          6           0       -5.943917   -0.682997    0.425716
     25          6           0       -5.734244   -0.408284    1.784120
     26          1           0       -6.571510   -0.100513    2.405841
     27          6           0       -4.833978   -1.036212   -0.356902
     28          1           0       -4.944051   -1.211229   -1.419905
     29          6           0       -4.482046   -0.577775    2.371229
     30          1           0       -4.331911   -0.425804    3.434186
     31          6           0       -3.580958   -1.227806    0.218179
     32          1           0       -2.747555   -1.570156   -0.388789
     33          8           0       -2.290192   -1.463256    2.268707
     34          1           0       -1.528695   -1.474764    1.662694
     35          6           0       -3.425383   -1.049119    1.595717
     36          7           0       -7.505217   -2.410286   -2.752622
     37          1           0       -8.134453   -1.612410   -2.748360
     38          6           0       -6.546089   -2.346369   -3.854923
     39          1           0       -5.782091   -3.101488   -3.660693
     40          6           0       -5.943608   -0.930709   -3.838974
     41          6           0       -7.189249   -2.604288   -5.241563
     42          1           0       -8.054864   -1.941612   -5.354476
     43          1           0       -7.554407   -3.636895   -5.265174
     44          8           0       -6.664019    0.048896   -3.630784
     45          6           0       -6.165531   -2.332582   -6.324166
     46          6           0       -6.102334   -1.079577   -6.951305
     47          1           0       -6.887475   -0.350594   -6.766644
     48          6           0       -5.135032   -3.246563   -6.575090
     49          1           0       -5.161013   -4.229123   -6.108309
     50          6           0       -5.028523   -0.729887   -7.765715
     51          1           0       -4.972845    0.244377   -8.240462
     52          6           0       -4.052424   -2.911614   -7.387350
     53          1           0       -3.249143   -3.626706   -7.549789
     54          8           0       -2.925142   -1.221731   -8.721748
     55          1           0       -2.293035   -1.950707   -8.821495
     56          6           0       -3.985590   -1.640104   -7.966205
     57          7           0       -4.619884   -0.855737   -4.078764
     58          1           0       -4.099603   -1.685223   -4.351465
     59          6           0       -3.979669    0.393111   -4.451403
     60          1           0       -4.667557    0.960512   -5.087901
     61          6           0       -2.730409    0.003419   -5.253396
     62          6           0       -3.640263    1.262107   -3.204853
     63          1           0       -4.586651    1.410184   -2.674371
     64          1           0       -2.977593    0.688119   -2.547669
     65          8           0       -2.247334   -1.133737   -5.140769
     66          6           0       -3.012055    2.578665   -3.597011
     67          6           0       -1.645279    2.810558   -3.403473
     68          1           0       -1.052024    2.076630   -2.867668
     69          6           0       -3.765596    3.538955   -4.289874
     70          1           0       -4.832435    3.380564   -4.434634
     71          6           0       -1.030904    3.953222   -3.916859
     72          1           0        0.036904    4.096133   -3.785233
     73          6           0       -3.155934    4.686803   -4.801478
     74          1           0       -3.751125    5.420426   -5.338216
     75          6           0       -1.784355    4.891034   -4.625494
     76          1           0       -1.307699    5.776697   -5.035102
     77          7           0       -2.203392    0.952544   -6.047980
     78          1           0       -2.571965    1.894830   -5.985766
     79          6           0       -0.923787    0.781303   -6.751212
     80          1           0       -0.903720   -0.257034   -7.095276
     81          6           0        0.230310    1.008922   -5.745873
     82          6           0       -0.849432    1.737509   -7.932431
     83          1           0        0.105656    1.619400   -8.450169
     84          1           0       -1.664601    1.525931   -8.629923
     85          1           0       -0.907475    2.775968   -7.590925
     86          8           0        0.957569    2.002664   -5.787955
     87          7           0        0.329458    0.054394   -4.786780
     88          1           0       -0.338818   -0.712083   -4.806197
     89          6           0        1.088482    0.286783   -3.559472
     90          1           0        1.086158    1.370479   -3.403624
     91          6           0        2.559466   -0.141038   -3.719286
     92          6           0        0.414894   -0.411375   -2.374574
     93          1           0       -0.637190   -0.090563   -2.359277
     94          1           0        0.420082   -1.493197   -2.556048
     95          8           0        3.021781   -1.134381   -3.150941
     96          6           0        1.064465   -0.135096   -1.002739
     97          1           0        2.024822   -0.653231   -0.975543
     98          6           0        1.336101    1.352923   -0.744310
     99          1           0        0.418580    1.953762   -0.815928
    100          1           0        1.760724    1.488141    0.255228
    101          1           0        2.066402    1.757011   -1.453225
    102          6           0        0.178937   -0.712553    0.112120
    103          1           0       -0.767448   -0.153549    0.167774
    104          1           0        0.685014   -0.635856    1.081803
    105          1           0       -0.044205   -1.772628   -0.077102
    106          7           0        3.303979    0.691906   -4.480501
    107          1           0        2.832621    1.461679   -4.951187
    108          6           0        4.744494    0.500695   -4.669034
    109          1           0        4.923591   -0.580373   -4.637315
    110          6           0        5.522997    1.141631   -3.490679
    111          6           0        5.193246    1.082282   -6.004196
    112          1           0        6.267935    0.937982   -6.133547
    113          1           0        5.004244    2.159900   -6.041493
    114          1           0        4.660944    0.594538   -6.826414
    115          8           0        6.392327    1.992455   -3.661285
    116          7           0        5.152624    0.702170   -2.257715
    117          1           0        4.460015   -0.036919   -2.159088
    118          6           0        5.702102    1.286076   -1.054204
    119          1           0        6.797702    1.274942   -1.113323
    120          6           0        5.218511    0.492311    0.153764
    121          6           0        5.235976    2.773234   -0.874634
    122          1           0        4.145404    2.775651   -0.784328
    123          1           0        5.497411    3.291656   -1.802492
    124          8           0        4.107112   -0.057773    0.162228
    125          6           0        5.825974    3.458494    0.312132
    126          6           0        5.298009    3.854767    1.519461
    127          1           0        4.267866    3.777841    1.842230
    128          7           0        7.174578    3.767342    0.411435
    129          1           0        7.863337    3.650833   -0.319334
    130          6           0        7.382858    4.329755    1.640533
    131          1           0        8.359872    4.655217    1.970193
    132          7           0        6.268262    4.399526    2.335845
    133          7           0        6.029173    0.525743    1.224319
    134          1           0        6.930043    0.993604    1.169633
    135          6           0        5.550470    0.383587    2.598767
    136          1           0        4.522675    0.764293    2.649561
    137          6           0        6.486716    1.276780    3.421454
    138          6           0        5.507486   -1.095462    3.066184
    139          1           0        6.466359   -1.548372    2.763647
    140          8           0        7.655058    1.458742    3.067275
    141          6           0        5.333409   -1.245568    4.574505
    142          1           0        6.169567   -0.821884    5.139308
    143          1           0        4.402010   -0.761618    4.896700
    144          1           0        5.242383   -2.310066    4.810222
    145          8           0        4.412965   -1.759880    2.452893
    146          1           0        4.264022   -1.374770    1.566272
    147          7           0        5.948118    1.865730    4.504171
    148          1           0        5.029953    1.588173    4.816258
    149          6           0        6.762765    2.725797    5.347784
    150          1           0        7.171914    3.499477    4.689425
    151          6           0        7.916581    1.892745    5.933535
    152          6           0        5.911958    3.423974    6.433131
    153          1           0        6.623728    4.045333    6.993386
    154          8           0        7.737132    0.760584    6.388092
    155          6           0        4.873004    4.354140    5.784925
    156          1           0        4.085620    3.778227    5.282035
    157          1           0        5.329362    5.003982    5.031600
    158          1           0        4.388398    4.974452    6.547068
    159          6           0        5.256563    2.448109    7.423068
    160          1           0        4.490899    1.828799    6.936043
    161          1           0        4.753335    3.006981    8.219698
    162          1           0        5.988002    1.771209    7.870306
    163          7           0        9.118941    2.508694    5.923014
    164          1           0        9.260239    3.339142    5.357571
    165          6           0       10.343609    1.777131    6.218219
    166          1           0       10.218471    1.288558    7.184781
    167          6           0       11.475994    2.813240    6.270864
    168          6           0       10.653067    0.715399    5.103217
    169          1           0        9.983504    0.942746    4.269014
    170          1           0       11.673025    0.860492    4.721603
    171          8           0       12.470242    2.583731    7.120760
    172          6           0       10.461572   -0.754692    5.528631
    173          1           0       10.103606   -1.339073    4.670760
    174          1           0        9.674097   -0.809409    6.287327
    175          6           0       11.750276   -1.421316    6.034195
    176          1           0       12.483578   -1.484059    5.222751
    177          1           0       11.553748   -2.457387    6.336452
    178          7           0       12.421527   -0.709717    7.128114
    179          1           0       12.932412    0.113898    6.829509
    180          7           0       11.210774   -1.579142    8.934807
    181          1           0       10.456345   -1.392706    9.578452
    182          1           0       11.127754   -2.438195    8.412271
    183          7           0       11.943969    0.675267    8.903028
    184          1           0       11.636965    0.703988    9.872540
    185          1           0       12.237215    1.909217    7.858528
    186          6           0       11.831744   -0.497701    8.355128
    187          8           0       11.475967    3.754404    5.499195
    188          1           0       -3.004313   -3.305900    2.394170
 ---------------------------------------------------------------------

 SCF Done:  E(RB3LYP) =  -4648.75241419     A.U. after    3 cycles

 Alpha  occ. eigenvalues --  -19.30221 -19.27609 -19.26946 -19.25770 -19.25254
 Alpha  occ. eigenvalues --  -19.22479 -19.20747 -19.20381 -19.18868 -19.18658
 Alpha  occ. eigenvalues --  -19.18311 -19.17301 -19.16838 -19.16402 -19.16109
 Alpha  occ. eigenvalues --  -19.14785 -19.14623 -14.59661 -14.48645 -14.45665
 Alpha  occ. eigenvalues --  -14.44593 -14.44261 -14.43398 -14.42337 -14.41442
 Alpha  occ. eigenvalues --  -14.41251 -14.40879 -14.40417 -14.40030 -14.39256
 Alpha  occ. eigenvalues --  -14.38786 -14.35517 -14.34423 -10.44362 -10.43336
 Alpha  occ. eigenvalues --  -10.40640 -10.39220 -10.37508 -10.37113 -10.35490
 Alpha  occ. eigenvalues --  -10.34884 -10.34850 -10.34299 -10.34162 -10.34064
 Alpha  occ. eigenvalues --  -10.33866 -10.33698 -10.33126 -10.33075 -10.32226
 Alpha  occ. eigenvalues --  -10.32206 -10.31782 -10.31694 -10.30665 -10.29723
 Alpha  occ. eigenvalues --  -10.29377 -10.29193 -10.28606 -10.28215 -10.28203
 Alpha  occ. eigenvalues --  -10.28134 -10.28114 -10.28095 -10.28056 -10.27806
 Alpha  occ. eigenvalues --  -10.27677 -10.27488 -10.27004 -10.26725 -10.26685
 Alpha  occ. eigenvalues --  -10.26653 -10.26651 -10.26600 -10.26377 -10.26362
 Alpha  occ. eigenvalues --  -10.26325 -10.26046 -10.25842 -10.25820 -10.25769
 Alpha  occ. eigenvalues --  -10.25558 -10.25503 -10.25433 -10.25108 -10.24986
 Alpha  occ. eigenvalues --  -10.24642 -10.24392 -10.24374 -10.23928 -10.23862
 Alpha  occ. eigenvalues --  -10.22872 -10.22554 -10.22149 -10.21950 -10.21282
 Alpha  occ. eigenvalues --  -10.21054 -10.20862  -1.21824  -1.19429  -1.15064
 Alpha  occ. eigenvalues --   -1.14385  -1.13445  -1.13205  -1.13157  -1.12816
 Alpha  occ. eigenvalues --   -1.11915  -1.10441  -1.10207  -1.10133  -1.09130
 Alpha  occ. eigenvalues --   -1.08781  -1.07763  -1.06400  -1.05827  -1.05430
 Alpha  occ. eigenvalues --   -1.04251  -1.03169  -1.02437  -1.02105  -1.01247
 Alpha  occ. eigenvalues --   -1.00936  -0.99083  -0.98135  -0.97817  -0.97426
 Alpha  occ. eigenvalues --   -0.96658  -0.95451  -0.94908  -0.93855  -0.93585
 Alpha  occ. eigenvalues --   -0.93012  -0.92547  -0.91209  -0.89774  -0.89392
 Alpha  occ. eigenvalues --   -0.87795  -0.87318  -0.86244  -0.85157  -0.84522
 Alpha  occ. eigenvalues --   -0.84220  -0.84145  -0.83887  -0.82582  -0.82360
 Alpha  occ. eigenvalues --   -0.82338  -0.82138  -0.81543  -0.81198  -0.81050
 Alpha  occ. eigenvalues --   -0.80044  -0.79447  -0.78062  -0.77743  -0.75780
 Alpha  occ. eigenvalues --   -0.75624  -0.74751  -0.74673  -0.74450  -0.73915
 Alpha  occ. eigenvalues --   -0.73798  -0.73528  -0.72852  -0.72125  -0.72053
 Alpha  occ. eigenvalues --   -0.71665  -0.71182  -0.70779  -0.70477  -0.69993
 Alpha  occ. eigenvalues --   -0.69622  -0.68891  -0.68131  -0.68055  -0.67548
 Alpha  occ. eigenvalues --   -0.67486  -0.66438  -0.66248  -0.66237  -0.65772
 Alpha  occ. eigenvalues --   -0.65688  -0.65454  -0.65126  -0.64912  -0.64593
 Alpha  occ. eigenvalues --   -0.64052  -0.63694  -0.63489  -0.63292  -0.63202
 Alpha  occ. eigenvalues --   -0.63011  -0.62757  -0.62492  -0.62041  -0.61954
 Alpha  occ. eigenvalues --   -0.61717  -0.61678  -0.61096  -0.61000  -0.60485
 Alpha  occ. eigenvalues --   -0.59961  -0.59567  -0.59267  -0.58985  -0.58682
 Alpha  occ. eigenvalues --   -0.58507  -0.58186  -0.57817  -0.57684  -0.57271
 Alpha  occ. eigenvalues --   -0.57148  -0.56882  -0.56337  -0.56268  -0.56073
 Alpha  occ. eigenvalues --   -0.55907  -0.55722  -0.55634  -0.55166  -0.54772
 Alpha  occ. eigenvalues --   -0.54405  -0.54243  -0.54151  -0.53985  -0.53584
 Alpha  occ. eigenvalues --   -0.53513  -0.53489  -0.53327  -0.53057  -0.52749
 Alpha  occ. eigenvalues --   -0.52609  -0.52399  -0.52332  -0.52280  -0.52091
 Alpha  occ. eigenvalues --   -0.51726  -0.51673  -0.51524  -0.51227  -0.51219
 Alpha  occ. eigenvalues --   -0.51058  -0.50717  -0.50685  -0.50509  -0.50213
 Alpha  occ. eigenvalues --   -0.49887  -0.49781  -0.49599  -0.49349  -0.49259
 Alpha  occ. eigenvalues --   -0.49227  -0.48985  -0.48750  -0.48624  -0.48478
 Alpha  occ. eigenvalues --   -0.48243  -0.48143  -0.48026  -0.47936  -0.47884
 Alpha  occ. eigenvalues --   -0.47721  -0.47671  -0.47518  -0.47397  -0.47063
 Alpha  occ. eigenvalues --   -0.46872  -0.46669  -0.46526  -0.46462  -0.46103
 Alpha  occ. eigenvalues --   -0.46057  -0.45863  -0.45785  -0.45672  -0.45452
 Alpha  occ. eigenvalues --   -0.45389  -0.45149  -0.44969  -0.44923  -0.44846
 Alpha  occ. eigenvalues --   -0.44713  -0.44320  -0.44299  -0.44252  -0.44168
 Alpha  occ. eigenvalues --   -0.44021  -0.43965  -0.43782  -0.43641  -0.43534
 Alpha  occ. eigenvalues --   -0.43409  -0.43246  -0.43105  -0.43044  -0.43020
 Alpha  occ. eigenvalues --   -0.42712  -0.42653  -0.42454  -0.42235  -0.42162
 Alpha  occ. eigenvalues --   -0.42119  -0.41978  -0.41866  -0.41560  -0.41515
 Alpha  occ. eigenvalues --   -0.41408  -0.41134  -0.41045  -0.40870  -0.40841
 Alpha  occ. eigenvalues --   -0.40645  -0.40439  -0.40037  -0.39964  -0.39657
 Alpha  occ. eigenvalues --   -0.39652  -0.39509  -0.39288  -0.39049  -0.38788
 Alpha  occ. eigenvalues --   -0.38582  -0.38009  -0.37911  -0.37786  -0.37429
 Alpha  occ. eigenvalues --   -0.37285  -0.37191  -0.36673  -0.36537  -0.36155
 Alpha  occ. eigenvalues --   -0.36057  -0.34777  -0.34314  -0.33995  -0.33820
 Alpha  occ. eigenvalues --   -0.33555  -0.32707  -0.32615  -0.32427  -0.32394
 Alpha  occ. eigenvalues --   -0.32290  -0.32032  -0.31936  -0.31850  -0.31598
 Alpha  occ. eigenvalues --   -0.31390  -0.31190  -0.31087  -0.30957  -0.30802
 Alpha  occ. eigenvalues --   -0.30554  -0.30168  -0.29876  -0.29554  -0.29047
 Alpha  occ. eigenvalues --   -0.28970  -0.28594  -0.28010  -0.27833  -0.27349
 Alpha  occ. eigenvalues --   -0.26207
 Alpha virt. eigenvalues --   -0.12312  -0.11133  -0.10539  -0.09875  -0.08983
 Alpha virt. eigenvalues --   -0.08601  -0.08143  -0.07509  -0.07117  -0.06789
 Alpha virt. eigenvalues --   -0.06514  -0.06318  -0.06223  -0.05006  -0.04768

 Mulliken charges:
               1
     1  N   -0.768937
     2  H    0.416317
     3  H    0.438583
     4  H    0.413675
     5  C   -0.102199
     6  H    0.241773
     7  C    0.648239
     8  C   -0.414625
     9  H    0.196881
    10  H    0.269945
    11  O   -0.537117
    12  C    0.623568
    13  O   -0.466701
    14  O   -0.576304
    15  N   -0.600119
    16  H    0.398467
    17  C   -0.070805
    18  H    0.198469
    19  C    0.644701
    20  C   -0.401585
    21  H    0.178609
    22  H    0.204004
    23  O   -0.543462
    24  C    0.113043
    25  C   -0.204335
    26  H    0.148098
    27  C   -0.172353
    28  H    0.157250
    29  C   -0.115503
    30  H    0.163792
    31  C   -0.188722
    32  H    0.151840
    33  O   -0.677577
    34  H    0.452216
    35  C    0.288957
    36  N   -0.581483
    37  H    0.347723
    38  C   -0.074721
    39  H    0.182204
    40  C    0.614159
    41  C   -0.352712
    42  H    0.164456
    43  H    0.169350
    44  O   -0.555433
    45  C    0.141367
    46  C   -0.187340
    47  H    0.147978
    48  C   -0.205893
    49  H    0.134451
    50  C   -0.168934
    51  H    0.151063
    52  C   -0.168866
    53  H    0.135662
    54  O   -0.645028
    55  H    0.416169
    56  C    0.360877
    57  N   -0.598353
    58  H    0.367785
    59  C   -0.037419
    60  H    0.181136
    61  C    0.640178
    62  C   -0.361732
    63  H    0.189925
    64  H    0.159075
    65  O   -0.582754
    66  C    0.136164
    67  C   -0.192433
    68  H    0.143740
    69  C   -0.212473
    70  H    0.144910
    71  C   -0.119575
    72  H    0.153140
    73  C   -0.130289
    74  H    0.147846
    75  C   -0.136641
    76  H    0.150626
    77  N   -0.590492
    78  H    0.357933
    79  C   -0.057761
    80  H    0.175722
    81  C    0.631531
    82  C   -0.468245
    83  H    0.175215
    84  H    0.172028
    85  H    0.171257
    86  O   -0.541084
    87  N   -0.626163
    88  H    0.375880
    89  C   -0.066384
    90  H    0.175500
    91  C    0.638715
    92  C   -0.295789
    93  H    0.128997
    94  H    0.156492
    95  O   -0.545885
    96  C   -0.089040
    97  H    0.207034
    98  C   -0.465962
    99  H    0.133083
   100  H    0.159138
   101  H    0.151554
   102  C   -0.501714
   103  H    0.131767
   104  H    0.171690
   105  H    0.138799
   106  N   -0.611189
   107  H    0.370318
   108  C   -0.063482
   109  H    0.188585
   110  C    0.625183
   111  C   -0.455177
   112  H    0.178833
   113  H    0.165436
   114  H    0.150822
   115  O   -0.532550
   116  N   -0.652783
   117  H    0.389854
   118  C   -0.001866
   119  H    0.161719
   120  C    0.606060
   121  C   -0.377567
   122  H    0.172931
   123  H    0.197896
   124  O   -0.559923
   125  C    0.313271
   126  C   -0.085102
   127  H    0.127734
   128  N   -0.610525
   129  H    0.345832
   130  C    0.229900
   131  H    0.173016
   132  N   -0.434370
   133  N   -0.598376
   134  H    0.363299
   135  C   -0.093532
   136  H    0.158784
   137  C    0.651922
   138  C    0.187950
   139  H    0.124868
   140  O   -0.561831
   141  C   -0.490926
   142  H    0.195870
   143  H    0.126046
   144  H    0.161157
   145  O   -0.668143
   146  H    0.421638
   147  N   -0.599178
   148  H    0.338490
   149  C   -0.033006
   150  H    0.182023
   151  C    0.652676
   152  C   -0.123183
   153  H    0.150194
   154  O   -0.556037
   155  C   -0.446934
   156  H    0.124521
   157  H    0.184265
   158  H    0.146612
   159  C   -0.455420
   160  H    0.123524
   161  H    0.148221
   162  H    0.180560
   163  N   -0.615183
   164  H    0.349883
   165  C   -0.039926
   166  H    0.173954
   167  C    0.573758
   168  C   -0.306271
   169  H    0.194933
   170  H    0.146515
   171  O   -0.614204
   172  C   -0.268441
   173  H    0.141184
   174  H    0.175315
   175  C   -0.173171
   176  H    0.164046
   177  H    0.141244
   178  N   -0.578360
   179  H    0.340208
   180  N   -0.753002
   181  H    0.343729
   182  H    0.345043
   183  N   -0.746522
   184  H    0.293956
   185  H    0.463545
   186  C    0.685910
   187  O   -0.482571
   188  H    0.455719
 Sum of Mulliken charges =   1.00000

 Dipole moment (field-independent basis, Debye):
    X=            -28.3226    Y=            -22.1687    Z=             -0.6968  Tot=             35.9736
 Quadrupole moment (field-independent basis, Debye-Ang):
   XX=           -395.9526   YY=           -431.3889   ZZ=           -454.1743
   XY=             88.2724   XZ=             -9.1790   YZ=            -63.2901

 Normal termination of Gaussian 16 at Wed Aug 10 12:57:34 2022.
