 Gaussian 16, Revision C.01,
 Gaussian 16:  ES64L-G16RevC.01  3-Jul-2019

 ----------------------------------------------------------------------
 # B3LYP/6-31G* empiricaldispersion=gd3 guess=read geom=check nosymm in
 tegral(ultrafinegrid)
 ----------------------------------------------------------------------

 ------------------------------------------------------
 Candidate Structure: Conf:617 Charge calc in gas phase
 ------------------------------------------------------
 Structure from the checkpoint file:  "conf-617.chk"
 Charge =  1 Multiplicity = 1

                          Input orientation:
 ---------------------------------------------------------------------
 Center     Atomic      Atomic             Coordinates (Angstroms)
 Number     Number       Type             X           Y           Z
 ---------------------------------------------------------------------
      1          7           0      -12.147400   -1.685282   -1.197610
      2          1           0      -12.481160   -0.728060   -1.058653
      3          1           0      -12.324688   -1.994934   -2.218837
      4          1           0      -12.639205   -2.300515   -0.544380
      5          6           0      -10.640257   -1.807690   -1.138286
      6          1           0      -10.215106   -0.837287   -0.875997
      7          6           0      -10.287522   -2.180466   -2.613024
      8          6           0      -10.204488   -2.861404   -0.110897
      9          1           0      -10.762837   -2.746595    0.827681
     10          1           0      -10.383021   -3.880604   -0.470828
     11          8           0      -11.248924   -2.383426   -3.382032
     12          6           0       -8.728476   -2.693862    0.232062
     13          8           0       -8.051512   -1.764913   -0.154152
     14          8           0       -8.303696   -3.682222    1.019631
     15          7           0       -9.011845   -2.276183   -2.928363
     16          1           0       -8.265342   -2.108365   -2.247914
     17          6           0       -8.540433   -2.682886   -4.251264
     18          1           0       -9.160532   -3.514707   -4.600021
     19          6           0       -7.085636   -3.136680   -4.024411
     20          6           0       -8.633865   -1.511706   -5.276414
     21          1           0       -7.830376   -0.799351   -5.065205
     22          1           0       -9.590724   -1.009744   -5.093906
     23          8           0       -6.549474   -2.972778   -2.928558
     24          6           0       -8.573063   -1.978907   -6.714933
     25          6           0       -7.442887   -1.744512   -7.515939
     26          1           0       -6.589891   -1.225138   -7.089546
     27          6           0       -9.650644   -2.679914   -7.273558
     28          1           0      -10.540731   -2.862185   -6.674008
     29          6           0       -7.389262   -2.201518   -8.830301
     30          1           0       -6.520380   -2.018920   -9.454615
     31          6           0       -9.609090   -3.140640   -8.587777
     32          1           0      -10.456897   -3.679392   -9.005962
     33          8           0       -8.359201   -3.323418  -10.662719
     34          1           0       -9.173323   -3.775053  -10.935151
     35          6           0       -8.473501   -2.901856   -9.373398
     36          7           0       -6.457267   -3.674541   -5.093484
     37          1           0       -6.919917   -3.577578   -5.991096
     38          6           0       -4.998435   -3.688042   -5.123953
     39          1           0       -4.636253   -4.348082   -4.329518
     40          6           0       -4.457613   -2.259350   -4.894813
     41          6           0       -4.520552   -4.217785   -6.501974
     42          1           0       -5.018052   -3.630612   -7.283835
     43          1           0       -4.864124   -5.254212   -6.603048
     44          8           0       -5.048641   -1.269331   -5.332141
     45          6           0       -3.020706   -4.116700   -6.653976
     46          6           0       -2.441742   -3.010184   -7.291743
     47          1           0       -3.084550   -2.268348   -7.759756
     48          6           0       -2.171207   -5.049479   -6.049492
     49          1           0       -2.592781   -5.921120   -5.553213
     50          6           0       -1.063630   -2.821882   -7.306233
     51          1           0       -0.615623   -1.959727   -7.789014
     52          6           0       -0.788213   -4.873613   -6.051917
     53          1           0       -0.143954   -5.598983   -5.560174
     54          8           0        1.110480   -3.491666   -6.675468
     55          1           0        1.576903   -4.201682   -6.206934
     56          6           0       -0.232839   -3.748672   -6.668488
     57          7           0       -3.275058   -2.195839   -4.254945
     58          1           0       -2.777228   -3.039098   -3.987509
     59          6           0       -2.469022   -0.989640   -4.254839
     60          1           0       -2.648763   -0.458577   -5.195338
     61          6           0       -1.003057   -1.438041   -4.178585
     62          6           0       -2.854005   -0.047019   -3.079289
     63          1           0       -3.914775    0.189753   -3.216621
     64          1           0       -2.754994   -0.608587   -2.143894
     65          8           0       -0.703034   -2.518728   -3.653839
     66          6           0       -1.999358    1.198012   -3.052967
     67          6           0       -0.993038    1.351352   -2.092840
     68          1           0       -0.895734    0.609405   -1.306156
     69          6           0       -2.115862    2.161844   -4.066566
     70          1           0       -2.903166    2.064400   -4.812055
     71          6           0       -0.100096    2.422535   -2.147645
     72          1           0        0.694604    2.512439   -1.413202
     73          6           0       -1.226608    3.237964   -4.126409
     74          1           0       -1.325581    3.976438   -4.917766
     75          6           0       -0.213001    3.364250   -3.172497
     76          1           0        0.488610    4.191662   -3.225858
     77          7           0       -0.099101   -0.593063   -4.715985
     78          1           0       -0.404407    0.345478   -4.949557
     79          6           0        1.351321   -0.815465   -4.627792
     80          1           0        1.501864   -1.890057   -4.757397
     81          6           0        1.829173   -0.380762   -3.226498
     82          6           0        2.061673   -0.045762   -5.731914
     83          1           0        3.139469   -0.219163   -5.673580
     84          1           0        1.703126   -0.378334   -6.710190
     85          1           0        1.897591    1.030176   -5.616746
     86          8           0        2.383697    0.701508   -3.033996
     87          7           0        1.528638   -1.259715   -2.237427
     88          1           0        0.958943   -2.064477   -2.483899
     89          6           0        1.586938   -0.860044   -0.830565
     90          1           0        1.308425    0.196972   -0.797180
     91          6           0        3.021717   -0.959776   -0.262891
     92          6           0        0.609942   -1.685684    0.006797
     93          1           0       -0.364504   -1.691793   -0.504418
     94          1           0        0.974666   -2.719277    0.033511
     95          8           0        3.402767   -1.884679    0.442430
     96          6           0        0.432260   -1.180355    1.453236
     97          1           0        1.422895   -1.162309    1.920169
     98          6           0       -0.151944    0.239148    1.522597
     99          1           0       -1.146357    0.283425    1.057621
    100          1           0       -0.262652    0.556582    2.566045
    101          1           0        0.484247    0.978769    1.026060
    102          6           0       -0.451472   -2.161452    2.235722
    103          1           0       -1.455940   -2.223312    1.793891
    104          1           0       -0.565725   -1.843248    3.278489
    105          1           0       -0.021526   -3.169761    2.236625
    106          7           0        3.800418    0.115628   -0.576991
    107          1           0        3.394974    0.816334   -1.192146
    108          6           0        4.922395    0.485939    0.249226
    109          1           0        5.608700   -0.364335    0.338024
    110          6           0        4.407635    0.840655    1.669582
    111          6           0        5.623881    1.699646   -0.383606
    112          1           0        6.534390    1.979151    0.154349
    113          1           0        4.945176    2.560448   -0.387082
    114          1           0        5.900159    1.464448   -1.415414
    115          8           0        3.200747    0.816300    1.949989
    116          7           0        5.338060    1.246647    2.562401
    117          1           0        6.296168    1.342003    2.250580
    118          6           0        4.991307    1.936179    3.818458
    119          1           0        4.202487    1.359898    4.309550
    120          6           0        4.471656    3.340276    3.431751
    121          6           0        6.231339    2.017964    4.721029
    122          1           0        6.989695    2.619676    4.202445
    123          1           0        6.628999    1.003870    4.836296
    124          8           0        5.202684    4.335092    3.454335
    125          6           0        5.968492    2.578000    6.081687
    126          6           0        5.948001    1.974125    7.320574
    127          1           0        6.112062    0.926772    7.542471
    128          7           0        5.725532    3.914087    6.340404
    129          1           0        5.606155    4.659744    5.663671
    130          6           0        5.571891    4.042720    7.686905
    131          1           0        5.369865    5.002213    8.141130
    132          7           0        5.701623    2.890210    8.316716
    133          7           0        3.190413    3.373036    3.001130
    134          1           0        2.703321    2.484462    2.963284
    135          6           0        2.638969    4.500193    2.241915
    136          1           0        3.488676    5.014657    1.778247
    137          6           0        1.936418    5.466507    3.228029
    138          6           0        1.688971    3.989182    1.134517
    139          1           0        0.796279    3.568194    1.619425
    140          8           0        0.728584    5.694518    3.187154
    141          6           0        1.271673    5.116240    0.199030
    142          1           0        0.785341    5.916614    0.758704
    143          1           0        2.151881    5.511306   -0.321444
    144          1           0        0.573102    4.734256   -0.550328
    145          8           0        2.325759    2.994042    0.321546
    146          1           0        2.451205    2.174710    0.836903
    147          7           0        2.778737    5.990086    4.149336
    148          1           0        3.760353    5.719726    4.139246
    149          6           0        2.318674    6.722277    5.318854
    150          1           0        1.718759    7.578520    4.985068
    151          6           0        3.575324    7.216528    6.046130
    152          6           0        1.413648    5.846144    6.245382
    153          1           0        0.599064    5.521848    5.589482
    154          8           0        4.646115    6.599832    5.986555
    155          6           0        2.142743    4.604630    6.770354
    156          1           0        2.944077    4.867724    7.467279
    157          1           0        2.590236    4.026466    5.955588
    158          1           0        1.441548    3.951668    7.301710
    159          6           0        0.795677    6.662240    7.388399
    160          1           0        1.546738    6.973000    8.122743
    161          1           0        0.048855    6.059772    7.916819
    162          1           0        0.289442    7.562980    7.017846
    163          7           0        3.427272    8.334982    6.781271
    164          1           0        2.551039    8.844713    6.803098
    165          6           0        4.482785    8.870771    7.625203
    166          1           0        4.992000    8.047389    8.132740
    167          6           0        3.844427    9.791088    8.658676
    168          6           0        5.526128    9.662064    6.779872
    169          1           0        6.071606    8.917175    6.193346
    170          1           0        4.968435   10.282175    6.065575
    171          8           0        4.601202    9.899859    9.737976
    172          6           0        6.494367   10.545873    7.593549
    173          1           0        7.449135   10.627345    7.058444
    174          1           0        6.706489   10.082811    8.561174
    175          6           0        5.930015   11.965929    7.819172
    176          1           0        4.870589   11.945474    8.076403
    177          1           0        6.006522   12.532627    6.881824
    178          7           0        6.604860   12.727174    8.863539
    179          1           0        7.601357   12.861596    8.755829
    180          7           0        5.027699   12.345891   10.550369
    181          1           0        4.723254   12.712855   11.448688
    182          1           0        4.556367   10.851668   10.139898
    183          7           0        6.930555   13.741703   10.900012
    184          1           0        6.578168   13.957906   11.823054
    185          1           0        7.306146   14.554326   10.425118
    186          6           0        6.119123   12.910561   10.131210
    187          8           0        2.814492   10.405190    8.430064
    188          1           0       -7.355799   -3.534297    1.210190
 ---------------------------------------------------------------------

 SCF Done:  E(RB3LYP) =  -4648.75159651     A.U. after    2 cycles

 Alpha  occ. eigenvalues --  -19.32598 -19.27512 -19.27426 -19.24737 -19.24041
 Alpha  occ. eigenvalues --  -19.21255 -19.18811 -19.18608 -19.18465 -19.18406
 Alpha  occ. eigenvalues --  -19.18309 -19.16980 -19.16593 -19.15654 -19.15604
 Alpha  occ. eigenvalues --  -19.14821 -19.14584 -14.60473 -14.49274 -14.44332
 Alpha  occ. eigenvalues --  -14.42753 -14.42649 -14.42260 -14.40752 -14.40294
 Alpha  occ. eigenvalues --  -14.39935 -14.39801 -14.39658 -14.39002 -14.38581
 Alpha  occ. eigenvalues --  -14.38196 -14.34426 -14.31790 -10.46127 -10.43933
 Alpha  occ. eigenvalues --  -10.41826 -10.38066 -10.36547 -10.35530 -10.35349
 Alpha  occ. eigenvalues --  -10.34989 -10.34096 -10.33979 -10.33757 -10.33586
 Alpha  occ. eigenvalues --  -10.33224 -10.32563 -10.32267 -10.31734 -10.31710
 Alpha  occ. eigenvalues --  -10.31088 -10.30970 -10.29820 -10.28828 -10.28556
 Alpha  occ. eigenvalues --  -10.28539 -10.28219 -10.27826 -10.26927 -10.26918
 Alpha  occ. eigenvalues --  -10.26850 -10.26798 -10.26788 -10.26434 -10.26393
 Alpha  occ. eigenvalues --  -10.26389 -10.25917 -10.25598 -10.25562 -10.25495
 Alpha  occ. eigenvalues --  -10.25404 -10.25184 -10.25094 -10.25056 -10.24719
 Alpha  occ. eigenvalues --  -10.24578 -10.24277 -10.24096 -10.23973 -10.23901
 Alpha  occ. eigenvalues --  -10.23615 -10.23345 -10.23332 -10.23233 -10.22966
 Alpha  occ. eigenvalues --  -10.22835 -10.22384 -10.22382 -10.22126 -10.21938
 Alpha  occ. eigenvalues --  -10.21934 -10.21029 -10.20915 -10.20737 -10.20376
 Alpha  occ. eigenvalues --  -10.20223 -10.19342  -1.23923  -1.19904  -1.15191
 Alpha  occ. eigenvalues --   -1.14321  -1.13303  -1.12898  -1.11953  -1.10856
 Alpha  occ. eigenvalues --   -1.10764  -1.10441  -1.09867  -1.08676  -1.08229
 Alpha  occ. eigenvalues --   -1.07451  -1.06508  -1.06269  -1.06122  -1.05335
 Alpha  occ. eigenvalues --   -1.02966  -1.02434  -1.01754  -1.01292  -0.99172
 Alpha  occ. eigenvalues --   -0.99001  -0.98886  -0.97186  -0.96875  -0.96172
 Alpha  occ. eigenvalues --   -0.95977  -0.95262  -0.94991  -0.93626  -0.92971
 Alpha  occ. eigenvalues --   -0.91793  -0.90516  -0.89484  -0.88717  -0.87480
 Alpha  occ. eigenvalues --   -0.86233  -0.85158  -0.84903  -0.84485  -0.84348
 Alpha  occ. eigenvalues --   -0.83681  -0.82485  -0.82252  -0.82074  -0.81753
 Alpha  occ. eigenvalues --   -0.81305  -0.81038  -0.80944  -0.79750  -0.79074
 Alpha  occ. eigenvalues --   -0.78088  -0.77820  -0.77805  -0.76366  -0.76249
 Alpha  occ. eigenvalues --   -0.75478  -0.74969  -0.74662  -0.72969  -0.72785
 Alpha  occ. eigenvalues --   -0.72210  -0.71937  -0.71665  -0.70992  -0.70910
 Alpha  occ. eigenvalues --   -0.70705  -0.70660  -0.69983  -0.69540  -0.69044
 Alpha  occ. eigenvalues --   -0.68511  -0.68327  -0.67529  -0.66720  -0.66264
 Alpha  occ. eigenvalues --   -0.65792  -0.65551  -0.65499  -0.65149  -0.64850
 Alpha  occ. eigenvalues --   -0.64700  -0.64499  -0.64411  -0.63629  -0.63447
 Alpha  occ. eigenvalues --   -0.63398  -0.62659  -0.62620  -0.62331  -0.62028
 Alpha  occ. eigenvalues --   -0.61585  -0.61518  -0.61166  -0.61087  -0.60845
 Alpha  occ. eigenvalues --   -0.60543  -0.60523  -0.60396  -0.60061  -0.59583
 Alpha  occ. eigenvalues --   -0.59143  -0.59066  -0.58817  -0.58057  -0.57940
 Alpha  occ. eigenvalues --   -0.57587  -0.57365  -0.57275  -0.57065  -0.56537
 Alpha  occ. eigenvalues --   -0.56154  -0.55944  -0.55809  -0.55089  -0.55048
 Alpha  occ. eigenvalues --   -0.54806  -0.54727  -0.54573  -0.54198  -0.54076
 Alpha  occ. eigenvalues --   -0.53734  -0.53581  -0.53292  -0.53187  -0.53067
 Alpha  occ. eigenvalues --   -0.52720  -0.52499  -0.52261  -0.52189  -0.52011
 Alpha  occ. eigenvalues --   -0.51792  -0.51340  -0.51234  -0.51071  -0.50987
 Alpha  occ. eigenvalues --   -0.50926  -0.50874  -0.50322  -0.50083  -0.50022
 Alpha  occ. eigenvalues --   -0.49801  -0.49634  -0.49506  -0.49362  -0.49323
 Alpha  occ. eigenvalues --   -0.49263  -0.49123  -0.48605  -0.48353  -0.48298
 Alpha  occ. eigenvalues --   -0.48239  -0.47618  -0.47606  -0.47383  -0.47063
 Alpha  occ. eigenvalues --   -0.46950  -0.46894  -0.46712  -0.46598  -0.46564
 Alpha  occ. eigenvalues --   -0.46444  -0.46279  -0.46141  -0.45990  -0.45912
 Alpha  occ. eigenvalues --   -0.45451  -0.45271  -0.45163  -0.45090  -0.44962
 Alpha  occ. eigenvalues --   -0.44926  -0.44878  -0.44732  -0.44665  -0.44606
 Alpha  occ. eigenvalues --   -0.44284  -0.44204  -0.43901  -0.43857  -0.43623
 Alpha  occ. eigenvalues --   -0.43584  -0.43378  -0.43338  -0.43133  -0.42963
 Alpha  occ. eigenvalues --   -0.42873  -0.42689  -0.42648  -0.42497  -0.42361
 Alpha  occ. eigenvalues --   -0.42253  -0.42179  -0.41984  -0.41901  -0.41803
 Alpha  occ. eigenvalues --   -0.41450  -0.41411  -0.41259  -0.41157  -0.41071
 Alpha  occ. eigenvalues --   -0.40927  -0.40821  -0.40803  -0.40549  -0.40481
 Alpha  occ. eigenvalues --   -0.40344  -0.40311  -0.40148  -0.40131  -0.39964
 Alpha  occ. eigenvalues --   -0.39844  -0.39599  -0.39429  -0.39210  -0.38858
 Alpha  occ. eigenvalues --   -0.38822  -0.38739  -0.38535  -0.38338  -0.37686
 Alpha  occ. eigenvalues --   -0.37514  -0.36703  -0.36578  -0.36487  -0.36154
 Alpha  occ. eigenvalues --   -0.35961  -0.35901  -0.35742  -0.35667  -0.34885
 Alpha  occ. eigenvalues --   -0.34181  -0.33894  -0.32921  -0.32686  -0.32667
 Alpha  occ. eigenvalues --   -0.32572  -0.32204  -0.32197  -0.31762  -0.31719
 Alpha  occ. eigenvalues --   -0.31516  -0.31386  -0.31254  -0.30672  -0.30063
 Alpha  occ. eigenvalues --   -0.29851  -0.29750  -0.29485  -0.29406  -0.29115
 Alpha  occ. eigenvalues --   -0.28939  -0.28769  -0.28570  -0.28472  -0.27803
 Alpha  occ. eigenvalues --   -0.27631  -0.27568  -0.27439  -0.27349  -0.27101
 Alpha  occ. eigenvalues --   -0.23451
 Alpha virt. eigenvalues --   -0.13013  -0.12300  -0.11738  -0.08210  -0.07287
 Alpha virt. eigenvalues --   -0.07083  -0.06762  -0.06167  -0.05634  -0.05349
 Alpha virt. eigenvalues --   -0.05246  -0.05115  -0.04768  -0.04109  -0.03932

 Mulliken charges:
               1
     1  N   -0.771200
     2  H    0.419677
     3  H    0.440029
     4  H    0.412827
     5  C   -0.094471
     6  H    0.246409
     7  C    0.637831
     8  C   -0.397131
     9  H    0.214309
    10  H    0.228468
    11  O   -0.553234
    12  C    0.617415
    13  O   -0.442186
    14  O   -0.542569
    15  N   -0.615163
    16  H    0.415252
    17  C   -0.076224
    18  H    0.194599
    19  C    0.633506
    20  C   -0.356070
    21  H    0.195883
    22  H    0.168331
    23  O   -0.538913
    24  C    0.105323
    25  C   -0.225413
    26  H    0.194206
    27  C   -0.188037
    28  H    0.138531
    29  C   -0.163702
    30  H    0.156616
    31  C   -0.190907
    32  H    0.134041
    33  O   -0.629340
    34  H    0.415445
    35  C    0.356638
    36  N   -0.609381
    37  H    0.359506
    38  C   -0.038784
    39  H    0.171682
    40  C    0.641984
    41  C   -0.394892
    42  H    0.167751
    43  H    0.169255
    44  O   -0.561498
    45  C    0.154413
    46  C   -0.186137
    47  H    0.138950
    48  C   -0.203735
    49  H    0.132473
    50  C   -0.166076
    51  H    0.149654
    52  C   -0.166896
    53  H    0.134634
    54  O   -0.644809
    55  H    0.416110
    56  C    0.364796
    57  N   -0.594743
    58  H    0.361682
    59  C   -0.039190
    60  H    0.174269
    61  C    0.639023
    62  C   -0.344830
    63  H    0.177587
    64  H    0.157161
    65  O   -0.575983
    66  C    0.142911
    67  C   -0.205425
    68  H    0.143757
    69  C   -0.220682
    70  H    0.133724
    71  C   -0.132243
    72  H    0.192863
    73  C   -0.131929
    74  H    0.137541
    75  C   -0.141638
    76  H    0.145288
    77  N   -0.592868
    78  H    0.352981
    79  C   -0.063745
    80  H    0.178958
    81  C    0.636952
    82  C   -0.463897
    83  H    0.170647
    84  H    0.161584
    85  H    0.171340
    86  O   -0.539012
    87  N   -0.626484
    88  H    0.368428
    89  C   -0.062462
    90  H    0.169671
    91  C    0.650863
    92  C   -0.293973
    93  H    0.125152
    94  H    0.160778
    95  O   -0.530199
    96  C   -0.083343
    97  H    0.178402
    98  C   -0.462052
    99  H    0.130798
   100  H    0.145233
   101  H    0.147237
   102  C   -0.444760
   103  H    0.122108
   104  H    0.143142
   105  H    0.148741
   106  N   -0.620531
   107  H    0.377068
   108  C   -0.047058
   109  H    0.189206
   110  C    0.655704
   111  C   -0.493369
   112  H    0.150032
   113  H    0.189183
   114  H    0.182927
   115  O   -0.563559
   116  N   -0.596525
   117  H    0.344898
   118  C   -0.045890
   119  H    0.188995
   120  C    0.623897
   121  C   -0.377314
   122  H    0.168697
   123  H    0.168310
   124  O   -0.550731
   125  C    0.310522
   126  C   -0.086046
   127  H    0.123070
   128  N   -0.613428
   129  H    0.386452
   130  C    0.204447
   131  H    0.155567
   132  N   -0.435100
   133  N   -0.610880
   134  H    0.363690
   135  C   -0.073245
   136  H    0.181940
   137  C    0.642035
   138  C    0.113397
   139  H    0.143434
   140  O   -0.541340
   141  C   -0.473525
   142  H    0.184808
   143  H    0.146185
   144  H    0.156977
   145  O   -0.682894
   146  H    0.443059
   147  N   -0.650703
   148  H    0.386242
   149  C   -0.017123
   150  H    0.158609
   151  C    0.623789
   152  C   -0.089322
   153  H    0.171691
   154  O   -0.567045
   155  C   -0.458037
   156  H    0.160531
   157  H    0.143616
   158  H    0.143917
   159  C   -0.464867
   160  H    0.153795
   161  H    0.151828
   162  H    0.142064
   163  N   -0.617236
   164  H    0.353761
   165  C   -0.008209
   166  H    0.184313
   167  C    0.574693
   168  C   -0.283151
   169  H    0.177574
   170  H    0.145768
   171  O   -0.607948
   172  C   -0.279267
   173  H    0.134128
   174  H    0.177165
   175  C   -0.157458
   176  H    0.203605
   177  H    0.150074
   178  N   -0.601442
   179  H    0.329267
   180  N   -0.739531
   181  H    0.294218
   182  H    0.463128
   183  N   -0.759333
   184  H    0.334482
   185  H    0.334860
   186  C    0.689104
   187  O   -0.500253
   188  H    0.446506
 Sum of Mulliken charges =   1.00000

 Dipole moment (field-independent basis, Debye):
    X=            -39.8940    Y=             -2.4085    Z=             -9.4702  Tot=             41.0733
 Quadrupole moment (field-independent basis, Debye-Ang):
   XX=             40.3406   YY=           -346.9230   ZZ=           -470.5688
   XY=            212.5166   XZ=            106.2426   YZ=            143.9608

 Normal termination of Gaussian 16 at Wed Aug 10 12:55:51 2022.
