 Gaussian 16, Revision C.01,
 Gaussian 16:  ES64L-G16RevC.01  3-Jul-2019

 ----------------------------------------------------------------------
 # B3LYP/6-31G* empiricaldispersion=gd3 guess=read geom=check nosymm in
 tegral(ultrafinegrid)
 ----------------------------------------------------------------------

 ----------------------------------------------------
 Candidate Structure: Conf:2 Charge calc in gas phase
 ----------------------------------------------------
 Structure from the checkpoint file:  "conf-2.chk"
 Charge =  1 Multiplicity = 1

                          Input orientation:
 ---------------------------------------------------------------------
 Center     Atomic      Atomic             Coordinates (Angstroms)
 Number     Number       Type             X           Y           Z
 ---------------------------------------------------------------------
      1          7           0      -12.887127   -3.668248   -6.519472
      2          1           0      -13.267770   -2.760703   -6.238572
      3          1           0      -12.204380   -3.537602   -7.346330
      4          1           0      -13.663801   -4.280015   -6.783413
      5          6           0      -11.954371   -4.267742   -5.489323
      6          1           0      -11.972615   -3.649922   -4.589933
      7          6           0      -10.570714   -4.161593   -6.204586
      8          6           0      -12.360780   -5.706606   -5.142462
      9          1           0      -13.444067   -5.778227   -4.977474
     10          1           0      -12.109916   -6.406474   -5.947217
     11          8           0      -10.586051   -3.786691   -7.394245
     12          6           0      -11.688573   -6.154561   -3.850025
     13          8           0      -11.032397   -5.418815   -3.143879
     14          8           0      -11.940404   -7.439841   -3.599616
     15          7           0       -9.497812   -4.493027   -5.514010
     16          1           0       -9.549704   -4.812949   -4.542876
     17          6           0       -8.152195   -4.490840   -6.086537
     18          1           0       -8.200016   -4.944016   -7.081945
     19          6           0       -7.314522   -5.364600   -5.134088
     20          6           0       -7.586573   -3.043419   -6.212835
     21          1           0       -7.302031   -2.693118   -5.216508
     22          1           0       -8.408422   -2.415258   -6.574131
     23          8           0       -7.802368   -5.794962   -4.090750
     24          6           0       -6.418730   -2.944347   -7.171602
     25          6           0       -5.116696   -2.667793   -6.722036
     26          1           0       -4.940406   -2.530565   -5.660147
     27          6           0       -6.617829   -3.137019   -8.545994
     28          1           0       -7.620563   -3.335996   -8.919746
     29          6           0       -4.049618   -2.591392   -7.612973
     30          1           0       -3.045279   -2.364405   -7.271353
     31          6           0       -5.558299   -3.065578   -9.447671
     32          1           0       -5.733925   -3.214528  -10.511007
     33          8           0       -3.181217   -2.707974   -9.799767
     34          1           0       -3.451867   -2.835317  -10.722605
     35          6           0       -4.265279   -2.791503   -8.982080
     36          7           0       -6.037040   -5.596091   -5.519679
     37          1           0       -5.684509   -5.023718   -6.280213
     38          6           0       -5.054489   -5.988026   -4.519452
     39          1           0       -5.377189   -6.930029   -4.066495
     40          6           0       -4.981971   -4.902324   -3.417222
     41          6           0       -3.681958   -6.190952   -5.214892
     42          1           0       -3.393069   -5.247378   -5.695397
     43          1           0       -3.833193   -6.926130   -6.014743
     44          8           0       -5.378703   -3.749196   -3.627605
     45          6           0       -2.604823   -6.643164   -4.257263
     46          6           0       -1.634211   -5.748294   -3.784178
     47          1           0       -1.610368   -4.733313   -4.171938
     48          6           0       -2.622543   -7.938126   -3.724301
     49          1           0       -3.359308   -8.657366   -4.076556
     50          6           0       -0.722336   -6.116066   -2.802385
     51          1           0        0.001347   -5.410322   -2.411861
     52          6           0       -1.712694   -8.326012   -2.739491
     53          1           0       -1.739139   -9.337666   -2.339854
     54          8           0        0.151176   -7.714329   -1.307179
     55          1           0        0.047078   -8.638838   -1.032756
     56          6           0       -0.759592   -7.411842   -2.271736
     57          7           0       -4.443496   -5.294836   -2.244511
     58          1           0       -3.995370   -6.202967   -2.200918
     59          6           0       -4.158950   -4.361647   -1.146634
     60          1           0       -4.994047   -3.655345   -1.113074
     61          6           0       -2.858476   -3.581555   -1.454596
     62          6           0       -4.059534   -5.120452    0.183312
     63          1           0       -4.912867   -5.807515    0.235607
     64          1           0       -3.142135   -5.718558    0.173945
     65          8           0       -1.796550   -3.807817   -0.870573
     66          6           0       -4.072173   -4.188170    1.377894
     67          6           0       -2.890084   -3.840723    2.042437
     68          1           0       -1.945885   -4.241864    1.688612
     69          6           0       -5.283101   -3.639194    1.821075
     70          1           0       -6.209461   -3.907254    1.315412
     71          6           0       -2.920539   -2.969910    3.132672
     72          1           0       -1.996960   -2.705544    3.638416
     73          6           0       -5.315266   -2.762258    2.905631
     74          1           0       -6.262703   -2.347175    3.239042
     75          6           0       -4.131472   -2.426918    3.566248
     76          1           0       -4.150745   -1.748167    4.414007
     77          7           0       -2.980466   -2.666781   -2.443192
     78          1           0       -3.886535   -2.570382   -2.892866
     79          6           0       -1.834697   -1.947617   -3.003366
     80          1           0       -0.969157   -2.615171   -2.912655
     81          6           0       -1.533359   -0.676423   -2.175868
     82          6           0       -2.096024   -1.609337   -4.466522
     83          1           0       -1.233735   -1.094795   -4.896113
     84          1           0       -2.288337   -2.525445   -5.035459
     85          1           0       -2.954872   -0.937605   -4.561414
     86          8           0       -1.631213    0.452188   -2.660957
     87          7           0       -1.175782   -0.917645   -0.893758
     88          1           0       -1.093178   -1.879916   -0.574895
     89          6           0       -0.954561    0.180660    0.045287
     90          1           0       -1.653779    0.971129   -0.239976
     91          6           0        0.476789    0.722157   -0.117077
     92          6           0       -1.224794   -0.250291    1.486587
     93          1           0       -2.240540   -0.664216    1.530011
     94          1           0       -0.531757   -1.061460    1.744172
     95          8           0        1.415291    0.321491    0.575872
     96          6           0       -1.078187    0.885475    2.521879
     97          1           0       -0.029513    1.199055    2.531955
     98          6           0       -1.921033    2.120885    2.171114
     99          1           0       -2.970350    1.850746    1.986802
    100          1           0       -1.899933    2.840311    2.997061
    101          1           0       -1.525848    2.640452    1.292278
    102          6           0       -1.426239    0.359793    3.920442
    103          1           0       -2.488369    0.089422    3.984115
    104          1           0       -1.217453    1.116501    4.683717
    105          1           0       -0.836535   -0.529274    4.174904
    106          7           0        0.622655    1.674702   -1.065040
    107          1           0       -0.183208    1.918611   -1.628406
    108          6           0        1.819974    2.490755   -1.109438
    109          1           0        2.683725    1.847500   -1.318476
    110          6           0        2.011064    3.163419    0.272240
    111          6           0        1.686883    3.567496   -2.189718
    112          1           0        2.596403    4.174104   -2.236421
    113          1           0        0.845066    4.228932   -1.957766
    114          1           0        1.522746    3.112060   -3.172075
    115          8           0        1.059619    3.547388    0.939627
    116          7           0        3.311627    3.280626    0.656759
    117          1           0        4.046138    3.118429   -0.023499
    118          6           0        3.728054    4.044688    1.817704
    119          1           0        2.831123    4.483181    2.263087
    120          6           0        4.720633    5.119504    1.361138
    121          6           0        4.451624    3.143808    2.861998
    122          1           0        4.910561    3.778806    3.629005
    123          1           0        5.281117    2.645938    2.338453
    124          8           0        5.394835    4.972751    0.348830
    125          6           0        3.569769    2.152825    3.545309
    126          6           0        3.301623    1.962318    4.883457
    127          1           0        3.689022    2.536766    5.715574
    128          7           0        2.861449    1.155189    2.901566
    129          1           0        2.716419    1.031715    1.904248
    130          6           0        2.207889    0.441795    3.862138
    131          1           0        1.571900   -0.394992    3.609837
    132          7           0        2.453440    0.893975    5.076089
    133          7           0        4.825395    6.200028    2.203845
    134          1           0        4.411689    6.067304    3.124215
    135          6           0        6.088472    6.936218    2.294295
    136          1           0        6.624034    6.780418    1.354666
    137          6           0        6.856684    6.362624    3.496700
    138          6           0        5.791969    8.446344    2.458669
    139          1           0        5.285063    8.578660    3.431417
    140          8           0        6.238826    5.923678    4.471462
    141          6           0        7.049800    9.304765    2.421167
    142          1           0        7.725949    9.074328    3.249308
    143          1           0        7.584144    9.149281    1.477040
    144          1           0        6.768491   10.360167    2.479412
    145          8           0        4.957158    8.879503    1.397189
    146          1           0        4.252870    8.213258    1.314471
    147          7           0        8.199394    6.378037    3.396677
    148          1           0        8.659094    6.842300    2.619721
    149          6           0        9.094072    6.001000    4.482572
    150          1           0        8.515446    6.027593    5.411917
    151          6           0       10.205670    7.065748    4.486635
    152          6           0        9.667366    4.568122    4.286226
    153          1           0       10.288173    4.597936    3.379153
    154          8           0       10.556866    7.597923    3.427066
    155          6           0       10.548952    4.149235    5.472332
    156          1           0        9.973720    4.159295    6.407736
    157          1           0       11.414669    4.804218    5.603054
    158          1           0       10.919254    3.128873    5.325780
    159          6           0        8.533696    3.554064    4.071655
    160          1           0        7.849449    3.544884    4.927462
    161          1           0        8.946476    2.546258    3.950330
    162          1           0        7.947336    3.787182    3.177849
    163          7           0       10.750387    7.350709    5.681070
    164          1           0       10.437467    6.914989    6.544368
    165          6           0       11.875343    8.259712    5.864501
    166          1           0       12.608844    8.088238    5.071531
    167          6           0       12.491467    7.925288    7.246294
    168          6           0       11.359033    9.724534    5.773002
    169          1           0       10.727112    9.750861    4.880439
    170          1           0       10.701775    9.905556    6.634561
    171          8           0       13.728147    8.226342    7.402010
    172          6           0       12.411607   10.851803    5.644243
    173          1           0       12.060331   11.587865    4.911451
    174          1           0       13.351743   10.452879    5.241827
    175          6           0       12.712825   11.636615    6.932554
    176          1           0       11.773682   12.005218    7.363847
    177          1           0       13.341563   12.505818    6.701146
    178          7           0       13.398025   10.774746    7.897804
    179          1           0       13.787335    9.895391    7.491966
    180          7           0       12.371109   11.567557    9.844724
    181          1           0       12.255985   11.480624   10.843932
    182          1           0       12.382927   12.513098    9.491487
    183          7           0       13.477576    9.497837    9.801566
    184          1           0       13.095351    9.277617   10.710333
    185          1           0       13.665525    8.700265    9.155268
    186          6           0       13.076885   10.615920    9.180054
    187          8           0       11.730479    7.465083    8.114892
    188          1           0      -11.492798   -7.681445   -2.764278
 ---------------------------------------------------------------------

 SCF Done:  E(RB3LYP) =  -4648.72839363     A.U. after    2 cycles

 Alpha  occ. eigenvalues --  -19.33120 -19.27962 -19.27960 -19.25248 -19.23973
 Alpha  occ. eigenvalues --  -19.21864 -19.20465 -19.18388 -19.16434 -19.16003
 Alpha  occ. eigenvalues --  -19.15641 -19.15389 -19.14419 -19.14227 -19.13139
 Alpha  occ. eigenvalues --  -19.11081 -19.10551 -14.60949 -14.49782 -14.44956
 Alpha  occ. eigenvalues --  -14.44379 -14.43921 -14.42206 -14.40724 -14.40600
 Alpha  occ. eigenvalues --  -14.40031 -14.39160 -14.39137 -14.39043 -14.38417
 Alpha  occ. eigenvalues --  -14.37923 -14.37046 -14.30819 -10.46650 -10.44404
 Alpha  occ. eigenvalues --  -10.42309 -10.38721 -10.38411 -10.37229 -10.37032
 Alpha  occ. eigenvalues --  -10.35176 -10.34512 -10.33270 -10.32841 -10.32239
 Alpha  occ. eigenvalues --  -10.32232 -10.31946 -10.31618 -10.31614 -10.31278
 Alpha  occ. eigenvalues --  -10.30396 -10.30210 -10.29270 -10.28729 -10.28589
 Alpha  occ. eigenvalues --  -10.27941 -10.27675 -10.27465 -10.27402 -10.27083
 Alpha  occ. eigenvalues --  -10.26958 -10.26742 -10.26406 -10.26376 -10.26347
 Alpha  occ. eigenvalues --  -10.26321 -10.26272 -10.26199 -10.25959 -10.25814
 Alpha  occ. eigenvalues --  -10.25551 -10.25184 -10.24983 -10.24909 -10.24285
 Alpha  occ. eigenvalues --  -10.24204 -10.23594 -10.23359 -10.23358 -10.23205
 Alpha  occ. eigenvalues --  -10.22895 -10.22774 -10.22765 -10.22700 -10.22536
 Alpha  occ. eigenvalues --  -10.22167 -10.21885 -10.21352 -10.21188 -10.21069
 Alpha  occ. eigenvalues --  -10.20337 -10.19713 -10.19424 -10.18983 -10.18893
 Alpha  occ. eigenvalues --  -10.18700 -10.18678  -1.24447  -1.20368  -1.15712
 Alpha  occ. eigenvalues --   -1.14813  -1.13980  -1.13430  -1.12169  -1.12009
 Alpha  occ. eigenvalues --   -1.10090  -1.08137  -1.07684  -1.07261  -1.07224
 Alpha  occ. eigenvalues --   -1.06603  -1.06167  -1.05888  -1.04970  -1.04013
 Alpha  occ. eigenvalues --   -1.03868  -1.02072  -1.00803  -1.00644  -0.98796
 Alpha  occ. eigenvalues --   -0.96967  -0.96584  -0.95792  -0.95759  -0.95631
 Alpha  occ. eigenvalues --   -0.95539  -0.95307  -0.94938  -0.94891  -0.93592
 Alpha  occ. eigenvalues --   -0.93344  -0.92563  -0.89980  -0.89301  -0.86895
 Alpha  occ. eigenvalues --   -0.86332  -0.85433  -0.84938  -0.83878  -0.83038
 Alpha  occ. eigenvalues --   -0.82739  -0.82587  -0.82514  -0.82342  -0.82046
 Alpha  occ. eigenvalues --   -0.81630  -0.80392  -0.80225  -0.79338  -0.78447
 Alpha  occ. eigenvalues --   -0.78155  -0.77229  -0.77099  -0.76768  -0.76030
 Alpha  occ. eigenvalues --   -0.75115  -0.75069  -0.73885  -0.73593  -0.72542
 Alpha  occ. eigenvalues --   -0.72214  -0.71930  -0.71334  -0.70233  -0.70127
 Alpha  occ. eigenvalues --   -0.70035  -0.69953  -0.69646  -0.69517  -0.69223
 Alpha  occ. eigenvalues --   -0.69017  -0.68572  -0.67889  -0.67394  -0.66874
 Alpha  occ. eigenvalues --   -0.66659  -0.65771  -0.65653  -0.65216  -0.64896
 Alpha  occ. eigenvalues --   -0.64653  -0.64406  -0.63363  -0.63194  -0.62804
 Alpha  occ. eigenvalues --   -0.62426  -0.62285  -0.62202  -0.62097  -0.61569
 Alpha  occ. eigenvalues --   -0.61481  -0.61190  -0.61165  -0.61118  -0.60821
 Alpha  occ. eigenvalues --   -0.60660  -0.60523  -0.60355  -0.59781  -0.59638
 Alpha  occ. eigenvalues --   -0.59443  -0.58993  -0.58831  -0.58275  -0.57900
 Alpha  occ. eigenvalues --   -0.57859  -0.57725  -0.57133  -0.56718  -0.56324
 Alpha  occ. eigenvalues --   -0.56087  -0.55617  -0.55564  -0.55213  -0.55029
 Alpha  occ. eigenvalues --   -0.54696  -0.54527  -0.54453  -0.54054  -0.53846
 Alpha  occ. eigenvalues --   -0.53806  -0.53637  -0.53595  -0.53195  -0.52951
 Alpha  occ. eigenvalues --   -0.52793  -0.52616  -0.52407  -0.52133  -0.51784
 Alpha  occ. eigenvalues --   -0.51674  -0.51650  -0.51345  -0.51153  -0.50762
 Alpha  occ. eigenvalues --   -0.50536  -0.50471  -0.50178  -0.50095  -0.49932
 Alpha  occ. eigenvalues --   -0.49759  -0.49498  -0.49394  -0.49385  -0.48950
 Alpha  occ. eigenvalues --   -0.48629  -0.48303  -0.48220  -0.47929  -0.47834
 Alpha  occ. eigenvalues --   -0.47432  -0.47322  -0.47146  -0.47072  -0.46981
 Alpha  occ. eigenvalues --   -0.46783  -0.46679  -0.46607  -0.46496  -0.46383
 Alpha  occ. eigenvalues --   -0.46159  -0.46075  -0.45877  -0.45617  -0.45481
 Alpha  occ. eigenvalues --   -0.45315  -0.45250  -0.45110  -0.44869  -0.44696
 Alpha  occ. eigenvalues --   -0.44610  -0.44534  -0.44151  -0.44045  -0.43869
 Alpha  occ. eigenvalues --   -0.43697  -0.43581  -0.43516  -0.43471  -0.43125
 Alpha  occ. eigenvalues --   -0.43098  -0.42909  -0.42718  -0.42558  -0.42484
 Alpha  occ. eigenvalues --   -0.42388  -0.42175  -0.42091  -0.42066  -0.41797
 Alpha  occ. eigenvalues --   -0.41643  -0.41528  -0.41474  -0.41347  -0.41017
 Alpha  occ. eigenvalues --   -0.40936  -0.40819  -0.40629  -0.40542  -0.40476
 Alpha  occ. eigenvalues --   -0.40394  -0.40286  -0.40219  -0.40136  -0.39968
 Alpha  occ. eigenvalues --   -0.39724  -0.39626  -0.39449  -0.39378  -0.39373
 Alpha  occ. eigenvalues --   -0.39363  -0.39012  -0.38940  -0.38578  -0.38300
 Alpha  occ. eigenvalues --   -0.38171  -0.38006  -0.37943  -0.37792  -0.37316
 Alpha  occ. eigenvalues --   -0.36595  -0.36453  -0.35628  -0.35439  -0.35378
 Alpha  occ. eigenvalues --   -0.35336  -0.34986  -0.34790  -0.34627  -0.34302
 Alpha  occ. eigenvalues --   -0.34279  -0.34025  -0.33954  -0.33532  -0.33069
 Alpha  occ. eigenvalues --   -0.32144  -0.31532  -0.31257  -0.31009  -0.30708
 Alpha  occ. eigenvalues --   -0.29937  -0.29739  -0.29682  -0.29315  -0.29231
 Alpha  occ. eigenvalues --   -0.28991  -0.28601  -0.28590  -0.28523  -0.28284
 Alpha  occ. eigenvalues --   -0.27797  -0.27679  -0.27582  -0.27332  -0.27117
 Alpha  occ. eigenvalues --   -0.26884  -0.26475  -0.26408  -0.25076  -0.24674
 Alpha  occ. eigenvalues --   -0.22120
 Alpha virt. eigenvalues --   -0.13459  -0.12808  -0.12234  -0.08842  -0.07881
 Alpha virt. eigenvalues --   -0.07548  -0.07404  -0.07123  -0.06645  -0.05929
 Alpha virt. eigenvalues --   -0.05028  -0.04477  -0.04325  -0.04001  -0.03845

 Mulliken charges:
               1
     1  N   -0.770175
     2  H    0.420706
     3  H    0.440130
     4  H    0.413384
     5  C   -0.094757
     6  H    0.245641
     7  C    0.637984
     8  C   -0.397138
     9  H    0.214990
    10  H    0.229319
    11  O   -0.552035
    12  C    0.617433
    13  O   -0.442710
    14  O   -0.542290
    15  N   -0.616193
    16  H    0.415251
    17  C   -0.076649
    18  H    0.195704
    19  C    0.636583
    20  C   -0.354774
    21  H    0.196222
    22  H    0.170694
    23  O   -0.536534
    24  C    0.104280
    25  C   -0.221880
    26  H    0.174821
    27  C   -0.187883
    28  H    0.140581
    29  C   -0.167437
    30  H    0.164644
    31  C   -0.189416
    32  H    0.136339
    33  O   -0.627658
    34  H    0.416688
    35  C    0.358561
    36  N   -0.607706
    37  H    0.360561
    38  C   -0.057165
    39  H    0.184191
    40  C    0.650021
    41  C   -0.389298
    42  H    0.166015
    43  H    0.175470
    44  O   -0.567085
    45  C    0.136740
    46  C   -0.197103
    47  H    0.144864
    48  C   -0.210854
    49  H    0.134007
    50  C   -0.141945
    51  H    0.169704
    52  C   -0.193407
    53  H    0.135528
    54  O   -0.626130
    55  H    0.414723
    56  C    0.348085
    57  N   -0.595842
    58  H    0.356635
    59  C   -0.061156
    60  H    0.186615
    61  C    0.651114
    62  C   -0.373517
    63  H    0.153400
    64  H    0.173289
    65  O   -0.547179
    66  C    0.150132
    67  C   -0.175209
    68  H    0.154380
    69  C   -0.181291
    70  H    0.115535
    71  C   -0.132101
    72  H    0.149435
    73  C   -0.129952
    74  H    0.131554
    75  C   -0.132560
    76  H    0.145395
    77  N   -0.613119
    78  H    0.371781
    79  C   -0.066532
    80  H    0.180662
    81  C    0.633866
    82  C   -0.478449
    83  H    0.182444
    84  H    0.145079
    85  H    0.173413
    86  O   -0.543985
    87  N   -0.623715
    88  H    0.373116
    89  C   -0.056986
    90  H    0.172474
    91  C    0.660452
    92  C   -0.286762
    93  H    0.144949
    94  H    0.144229
    95  O   -0.560266
    96  C   -0.091354
    97  H    0.175192
    98  C   -0.456548
    99  H    0.121098
   100  H    0.149359
   101  H    0.163512
   102  C   -0.454556
   103  H    0.128442
   104  H    0.161253
   105  H    0.140785
   106  N   -0.596213
   107  H    0.360289
   108  C   -0.023560
   109  H    0.158354
   110  C    0.613223
   111  C   -0.485445
   112  H    0.174519
   113  H    0.174399
   114  H    0.166014
   115  O   -0.519515
   116  N   -0.599684
   117  H    0.343749
   118  C   -0.082888
   119  H    0.193315
   120  C    0.611225
   121  C   -0.381782
   122  H    0.193028
   123  H    0.159679
   124  O   -0.515286
   125  C    0.339278
   126  C   -0.090701
   127  H    0.127695
   128  N   -0.618842
   129  H    0.380093
   130  C    0.197630
   131  H    0.147291
   132  N   -0.439954
   133  N   -0.620227
   134  H    0.348800
   135  C   -0.106389
   136  H    0.186297
   137  C    0.629046
   138  C    0.156022
   139  H    0.121224
   140  O   -0.553036
   141  C   -0.468359
   142  H    0.157934
   143  H    0.157683
   144  H    0.164680
   145  O   -0.628703
   146  H    0.401710
   147  N   -0.601588
   148  H    0.354760
   149  C   -0.052394
   150  H    0.170518
   151  C    0.622918
   152  C   -0.069981
   153  H    0.137707
   154  O   -0.565253
   155  C   -0.464698
   156  H    0.145966
   157  H    0.165226
   158  H    0.149503
   159  C   -0.449269
   160  H    0.160856
   161  H    0.142578
   162  H    0.148050
   163  N   -0.610773
   164  H    0.352913
   165  C   -0.021689
   166  H    0.166366
   167  C    0.581620
   168  C   -0.277619
   169  H    0.176528
   170  H    0.138201
   171  O   -0.647527
   172  C   -0.301748
   173  H    0.155908
   174  H    0.171986
   175  C   -0.149547
   176  H    0.155379
   177  H    0.162973
   178  N   -0.600667
   179  H    0.405917
   180  N   -0.753818
   181  H    0.359619
   182  H    0.364973
   183  N   -0.751268
   184  H    0.344534
   185  H    0.409090
   186  C    0.751719
   187  O   -0.566566
   188  H    0.445852
 Sum of Mulliken charges =   1.00000

 Dipole moment (field-independent basis, Debye):
    X=            -46.9445    Y=            -15.3413    Z=            -24.4599  Tot=             55.1129
 Quadrupole moment (field-independent basis, Debye-Ang):
   XX=            166.8521   YY=           -223.3257   ZZ=           -263.2741
   XY=            396.0996   XZ=            427.4162   YZ=            284.5690

 Normal termination of Gaussian 16 at Wed Aug 10 12:56:15 2022.
