 Gaussian 16, Revision C.01,
 Gaussian 16:  ES64L-G16RevC.01  3-Jul-2019

 ----------------------------------------------------------------------
 # B3LYP/6-31G* empiricaldispersion=gd3 guess=read geom=check nosymm in
 tegral(ultrafinegrid)
 ----------------------------------------------------------------------

 -----------------------------------------------------
 Candidate Structure: Conf:95 Charge calc in gas phase
 -----------------------------------------------------
 Structure from the checkpoint file:  "conf-95.chk"
 Charge =  1 Multiplicity = 1

                          Input orientation:
 ---------------------------------------------------------------------
 Center     Atomic      Atomic             Coordinates (Angstroms)
 Number     Number       Type             X           Y           Z
 ---------------------------------------------------------------------
      1          7           0       -7.041786   -5.079022    1.867303
      2          1           0       -7.758374   -4.464707    2.293144
      3          1           0       -7.376148   -5.388783    0.906521
      4          1           0       -6.887594   -5.887817    2.473261
      5          6           0       -5.775799   -4.325377    1.520633
      6          1           0       -5.853628   -3.334635    1.966191
      7          6           0       -5.874343   -4.189557   -0.031087
      8          6           0       -4.515508   -5.033190    2.035564
      9          1           0       -4.680757   -5.468899    3.028532
     10          1           0       -4.203712   -5.849516    1.373468
     11          8           0       -6.724778   -4.888420   -0.605546
     12          6           0       -3.372135   -4.031525    2.169331
     13          8           0       -3.443470   -2.903972    1.691423
     14          8           0       -2.369504   -4.497168    2.868497
     15          7           0       -5.089749   -3.279355   -0.593678
     16          1           0       -4.376546   -2.841144   -0.013523
     17          6           0       -5.316943   -2.739984   -1.928886
     18          1           0       -5.906900   -3.480923   -2.474609
     19          6           0       -3.943363   -2.590033   -2.618658
     20          6           0       -6.129452   -1.389261   -1.848003
     21          1           0       -6.629299   -1.231402   -2.810565
     22          1           0       -5.432345   -0.558400   -1.700407
     23          8           0       -2.942322   -3.102817   -2.131005
     24          6           0       -7.131526   -1.461652   -0.718458
     25          6           0       -8.256913   -2.289453   -0.815838
     26          1           0       -8.533918   -2.709530   -1.778575
     27          6           0       -6.827016   -0.908936    0.533150
     28          1           0       -5.992728   -0.222646    0.625082
     29          6           0       -8.960484   -2.684409    0.320554
     30          1           0       -9.790956   -3.380375    0.255540
     31          6           0       -7.515322   -1.294623    1.684391
     32          1           0       -7.213254   -0.912663    2.657841
     33          8           0       -9.056844   -2.906101    2.678975
     34          1           0       -8.941442   -2.359395    3.474009
     35          6           0       -8.533925   -2.243743    1.572597
     36          7           0       -3.974117   -1.885780   -3.777046
     37          1           0       -4.768441   -1.280712   -3.949238
     38          6           0       -2.754614   -1.424315   -4.421424
     39          1           0       -1.918921   -1.889983   -3.901139
     40          6           0       -2.690184    0.100553   -4.239521
     41          6           0       -2.700921   -1.832563   -5.912252
     42          1           0       -1.779708   -1.417615   -6.334951
     43          1           0       -3.542855   -1.363689   -6.437373
     44          8           0       -3.705661    0.764924   -4.028142
     45          6           0       -2.730719   -3.333613   -6.075196
     46          6           0       -1.564221   -4.088947   -5.876529
     47          1           0       -0.634795   -3.572685   -5.648872
     48          6           0       -3.917949   -4.011549   -6.362712
     49          1           0       -4.834175   -3.447147   -6.521296
     50          6           0       -1.582640   -5.476534   -5.965364
     51          1           0       -0.681421   -6.063804   -5.819642
     52          6           0       -3.951272   -5.403929   -6.457549
     53          1           0       -4.883478   -5.915521   -6.691703
     54          8           0       -2.738394   -7.506545   -6.333761
     55          1           0       -3.613723   -7.836882   -6.588354
     56          6           0       -2.779953   -6.140365   -6.257651
     57          7           0       -1.443653    0.622555   -4.340389
     58          1           0       -0.658043   -0.011811   -4.469364
     59          6           0       -1.151619    1.989192   -3.960785
     60          1           0       -2.080494    2.557654   -4.057221
     61          6           0       -0.043016    2.529667   -4.861425
     62          6           0       -0.634676    2.070890   -2.484673
     63          1           0        0.374867    1.643362   -2.458836
     64          1           0       -0.544318    3.123539   -2.191215
     65          8           0        0.871617    1.790646   -5.236936
     66          6           0       -1.532601    1.330182   -1.523304
     67          6           0       -2.732567    1.897627   -1.076736
     68          1           0       -3.003520    2.899356   -1.399596
     69          6           0       -1.206346    0.034904   -1.105984
     70          1           0       -0.296767   -0.428768   -1.473921
     71          6           0       -3.575816    1.192331   -0.220096
     72          1           0       -4.493098    1.656631    0.134461
     73          6           0       -2.043242   -0.677433   -0.244718
     74          1           0       -1.777943   -1.679845    0.074466
     75          6           0       -3.227304   -0.093409    0.205001
     76          1           0       -3.856414   -0.630581    0.906141
     77          7           0       -0.037125    3.858147   -5.119534
     78          1           0       -0.768506    4.445272   -4.740192
     79          6           0        1.105651    4.512952   -5.769700
     80          1           0        1.524902    3.769104   -6.455647
     81          6           0        2.207567    4.874253   -4.736048
     82          6           0        0.651654    5.748735   -6.538507
     83          1           0        1.510744    6.228742   -7.010429
     84          1           0       -0.076653    5.470605   -7.305704
     85          1           0        0.202036    6.486589   -5.864505
     86          8           0        2.730732    5.983016   -4.718360
     87          7           0        2.502439    3.882829   -3.851326
     88          1           0        2.211732    2.928737   -4.051139
     89          6           0        3.403712    4.057762   -2.728349
     90          1           0        4.221025    4.725981   -3.023633
     91          6           0        3.972271    2.676385   -2.377758
     92          6           0        2.675173    4.635152   -1.481677
     93          1           0        1.832672    3.968219   -1.254698
     94          1           0        3.349405    4.590433   -0.614216
     95          8           0        3.491953    1.641017   -2.846980
     96          6           0        2.170303    6.084701   -1.624328
     97          1           0        1.524128    6.139257   -2.507212
     98          6           0        1.324403    6.463045   -0.399412
     99          1           0        1.962006    6.502267    0.495406
    100          1           0        0.883354    7.458483   -0.523463
    101          1           0        0.514223    5.742418   -0.234610
    102          6           0        3.318802    7.084645   -1.810456
    103          1           0        4.030312    7.019314   -0.975098
    104          1           0        2.934232    8.110412   -1.836436
    105          1           0        3.848020    6.915415   -2.750536
    106          7           0        4.996701    2.650841   -1.488699
    107          1           0        5.275941    3.515775   -1.045463
    108          6           0        5.432977    1.400900   -0.862038
    109          1           0        5.787527    0.732223   -1.654433
    110          6           0        4.219488    0.777784   -0.142422
    111          6           0        6.552421    1.684903    0.137747
    112          1           0        6.915650    0.750527    0.575187
    113          1           0        6.174667    2.315364    0.949591
    114          1           0        7.392254    2.186426   -0.353113
    115          8           0        3.625421    1.395946    0.744192
    116          7           0        3.818382   -0.437597   -0.566176
    117          1           0        4.372174   -0.939123   -1.246398
    118          6           0        2.535450   -0.991908   -0.148104
    119          1           0        1.789068   -0.198089   -0.263762
    120          6           0        2.581554   -1.443935    1.316811
    121          6           0        2.161236   -2.205153   -1.019620
    122          1           0        1.339315   -2.734836   -0.526654
    123          1           0        3.012740   -2.901171   -1.009541
    124          8           0        3.439009   -2.208203    1.736973
    125          6           0        1.714847   -1.870285   -2.406903
    126          6           0        0.672692   -2.372482   -3.150260
    127          1           0       -0.072737   -3.097279   -2.847668
    128          7           0        2.350680   -0.966330   -3.248678
    129          1           0        3.012433   -0.239259   -2.987245
    130          6           0        1.669314   -0.958997   -4.426901
    131          1           0        1.923479   -0.292446   -5.234979
    132          7           0        0.647471   -1.796489   -4.406922
    133          7           0        1.534499   -0.964554    2.042067
    134          1           0        1.019442   -0.167663    1.667912
    135          6           0        1.371243   -1.280665    3.451569
    136          1           0        1.967421   -2.178473    3.636388
    137          6           0       -0.106679   -1.692677    3.621445
    138          6           0        1.916969   -0.150668    4.353971
    139          1           0        1.764727   -0.447686    5.398897
    140          8           0       -0.464462   -2.762019    3.107563
    141          6           0        3.399918    0.108911    4.099483
    142          1           0        3.987347   -0.809043    4.194108
    143          1           0        3.546846    0.496427    3.086500
    144          1           0        3.774320    0.843443    4.820568
    145          8           0        1.166852    1.076786    4.204795
    146          1           0        0.967429    1.250339    3.244673
    147          7           0       -0.931456   -0.816892    4.229226
    148          1           0       -0.491870    0.050869    4.532497
    149          6           0       -2.393260   -0.790435    4.041005
    150          1           0       -2.598534   -1.439555    3.183700
    151          6           0       -2.759885    0.673840    3.641374
    152          6           0       -3.210016   -1.283865    5.254538
    153          1           0       -3.208808   -0.482301    6.003501
    154          8           0       -3.689590    1.291756    4.154812
    155          6           0       -4.669705   -1.530107    4.832064
    156          1           0       -4.717212   -2.310189    4.059392
    157          1           0       -5.118185   -0.616538    4.434667
    158          1           0       -5.262893   -1.866235    5.690278
    159          6           0       -2.606439   -2.549387    5.876205
    160          1           0       -2.600480   -3.381824    5.163558
    161          1           0       -3.193632   -2.858046    6.748350
    162          1           0       -1.576341   -2.385999    6.206384
    163          7           0       -1.915802    1.173294    2.714408
    164          1           0       -1.213533    0.559081    2.324380
    165          6           0       -1.708289    2.554248    2.309373
    166          1           0       -2.546901    2.918909    1.709034
    167          6           0       -0.419973    2.566623    1.442962
    168          6           0       -1.514713    3.458671    3.553940
    169          1           0       -2.356362    3.262180    4.221960
    170          1           0       -0.616884    3.106439    4.079030
    171          8           0       -0.202153    3.564506    0.722073
    172          6           0       -1.427994    4.973909    3.258895
    173          1           0       -2.241897    5.503046    3.768181
    174          1           0       -1.553381    5.158751    2.186275
    175          6           0       -0.110685    5.623778    3.709453
    176          1           0        0.113795    5.365170    4.748422
    177          1           0       -0.183174    6.714932    3.665985
    178          7           0        1.019208    5.237553    2.853399
    179          1           0        0.878233    5.470378    1.876203
    180          7           0        2.211084    3.764037    4.256853
    181          1           0        2.176785    2.748112    4.387826
    182          1           0        1.867400    4.290822    5.048149
    183          7           0        2.381020    3.635145    1.937735
    184          1           0        3.036104    2.863513    2.009779
    185          1           0        1.755338    3.562229    1.128306
    186          6           0        1.848614    4.196779    3.025491
    187          8           0        0.386232    1.589640    1.613760
    188          1           0       -1.649041   -3.782174    2.962599
 ---------------------------------------------------------------------

 SCF Done:  E(RB3LYP) =  -4648.84472318     A.U. after    2 cycles

 Alpha  occ. eigenvalues --  -19.29217 -19.27586 -19.24343 -19.23860 -19.23587
 Alpha  occ. eigenvalues --  -19.21548 -19.21242 -19.21191 -19.20544 -19.18691
 Alpha  occ. eigenvalues --  -19.18185 -19.18101 -19.18057 -19.17843 -19.17425
 Alpha  occ. eigenvalues --  -19.17265 -19.16990 -14.56640 -14.46248 -14.46050
 Alpha  occ. eigenvalues --  -14.45342 -14.45117 -14.44866 -14.44483 -14.43853
 Alpha  occ. eigenvalues --  -14.43695 -14.43613 -14.42362 -14.41826 -14.41622
 Alpha  occ. eigenvalues --  -14.41302 -14.40966 -14.37008 -10.42867 -10.41804
 Alpha  occ. eigenvalues --  -10.40604 -10.38018 -10.37959 -10.37741 -10.37371
 Alpha  occ. eigenvalues --  -10.35799 -10.35544 -10.35328 -10.35268 -10.35118
 Alpha  occ. eigenvalues --  -10.34761 -10.34505 -10.33901 -10.33123 -10.32467
 Alpha  occ. eigenvalues --  -10.32372 -10.32066 -10.31839 -10.30889 -10.30857
 Alpha  occ. eigenvalues --  -10.30571 -10.30237 -10.29888 -10.29665 -10.29015
 Alpha  occ. eigenvalues --  -10.28871 -10.28768 -10.28535 -10.28397 -10.28330
 Alpha  occ. eigenvalues --  -10.28235 -10.28173 -10.27901 -10.27896 -10.27586
 Alpha  occ. eigenvalues --  -10.27306 -10.26813 -10.26397 -10.26313 -10.25637
 Alpha  occ. eigenvalues --  -10.25528 -10.25441 -10.25372 -10.24998 -10.24996
 Alpha  occ. eigenvalues --  -10.24838 -10.24805 -10.24794 -10.24686 -10.24537
 Alpha  occ. eigenvalues --  -10.24464 -10.24268 -10.24042 -10.23778 -10.23751
 Alpha  occ. eigenvalues --  -10.23650 -10.22951 -10.22737 -10.22635 -10.22108
 Alpha  occ. eigenvalues --  -10.22061 -10.21932  -1.20057  -1.16477  -1.16168
 Alpha  occ. eigenvalues --   -1.13260  -1.12820  -1.12102  -1.11406  -1.11209
 Alpha  occ. eigenvalues --   -1.11007  -1.10768  -1.10339  -1.10259  -1.10140
 Alpha  occ. eigenvalues --   -1.09786  -1.09661  -1.09515  -1.09187  -1.08642
 Alpha  occ. eigenvalues --   -1.06466  -1.03226  -1.02070  -1.01489  -1.01394
 Alpha  occ. eigenvalues --   -1.01126  -1.00261  -0.99733  -0.99389  -0.98737
 Alpha  occ. eigenvalues --   -0.98285  -0.98196  -0.98051  -0.98024  -0.94979
 Alpha  occ. eigenvalues --   -0.92175  -0.91758  -0.91375  -0.89017  -0.88136
 Alpha  occ. eigenvalues --   -0.87784  -0.87663  -0.87079  -0.86884  -0.85618
 Alpha  occ. eigenvalues --   -0.85489  -0.84691  -0.84374  -0.83756  -0.83187
 Alpha  occ. eigenvalues --   -0.82450  -0.82238  -0.80863  -0.80488  -0.80332
 Alpha  occ. eigenvalues --   -0.80167  -0.79371  -0.79223  -0.78293  -0.77020
 Alpha  occ. eigenvalues --   -0.76777  -0.75338  -0.74899  -0.74577  -0.74377
 Alpha  occ. eigenvalues --   -0.73936  -0.73168  -0.72440  -0.72385  -0.71879
 Alpha  occ. eigenvalues --   -0.71740  -0.71622  -0.70904  -0.70695  -0.70095
 Alpha  occ. eigenvalues --   -0.69266  -0.69003  -0.68609  -0.68368  -0.67982
 Alpha  occ. eigenvalues --   -0.67867  -0.67131  -0.66786  -0.66676  -0.66494
 Alpha  occ. eigenvalues --   -0.66420  -0.66115  -0.65856  -0.65628  -0.65026
 Alpha  occ. eigenvalues --   -0.64922  -0.64227  -0.64207  -0.64110  -0.63858
 Alpha  occ. eigenvalues --   -0.63785  -0.63673  -0.63516  -0.63413  -0.62847
 Alpha  occ. eigenvalues --   -0.62582  -0.62457  -0.61864  -0.61495  -0.60835
 Alpha  occ. eigenvalues --   -0.60143  -0.60051  -0.59920  -0.59515  -0.59222
 Alpha  occ. eigenvalues --   -0.59008  -0.58168  -0.57960  -0.57877  -0.57710
 Alpha  occ. eigenvalues --   -0.57430  -0.57270  -0.57021  -0.56753  -0.56642
 Alpha  occ. eigenvalues --   -0.56497  -0.56030  -0.55849  -0.55792  -0.55558
 Alpha  occ. eigenvalues --   -0.55369  -0.54992  -0.54860  -0.54649  -0.54375
 Alpha  occ. eigenvalues --   -0.54122  -0.53875  -0.53412  -0.53215  -0.53025
 Alpha  occ. eigenvalues --   -0.52881  -0.52735  -0.52630  -0.52573  -0.52339
 Alpha  occ. eigenvalues --   -0.52105  -0.51884  -0.51779  -0.51627  -0.51510
 Alpha  occ. eigenvalues --   -0.51376  -0.51232  -0.51064  -0.50939  -0.50547
 Alpha  occ. eigenvalues --   -0.50521  -0.50396  -0.50060  -0.49918  -0.49833
 Alpha  occ. eigenvalues --   -0.49759  -0.49704  -0.49333  -0.49216  -0.48963
 Alpha  occ. eigenvalues --   -0.48903  -0.48798  -0.48573  -0.48380  -0.48258
 Alpha  occ. eigenvalues --   -0.48164  -0.48036  -0.47948  -0.47821  -0.47684
 Alpha  occ. eigenvalues --   -0.47667  -0.47561  -0.47383  -0.47211  -0.47135
 Alpha  occ. eigenvalues --   -0.46894  -0.46855  -0.46573  -0.46548  -0.46344
 Alpha  occ. eigenvalues --   -0.46300  -0.46160  -0.45921  -0.45659  -0.45575
 Alpha  occ. eigenvalues --   -0.45552  -0.45486  -0.45313  -0.45186  -0.45108
 Alpha  occ. eigenvalues --   -0.45052  -0.44849  -0.44707  -0.44699  -0.44676
 Alpha  occ. eigenvalues --   -0.44560  -0.44338  -0.44265  -0.44156  -0.44050
 Alpha  occ. eigenvalues --   -0.43567  -0.43539  -0.43466  -0.43277  -0.43041
 Alpha  occ. eigenvalues --   -0.42945  -0.42796  -0.42583  -0.42528  -0.42308
 Alpha  occ. eigenvalues --   -0.42051  -0.41925  -0.41740  -0.41452  -0.41400
 Alpha  occ. eigenvalues --   -0.41311  -0.41059  -0.40962  -0.40654  -0.40441
 Alpha  occ. eigenvalues --   -0.40166  -0.40124  -0.39746  -0.39543  -0.39181
 Alpha  occ. eigenvalues --   -0.39007  -0.38639  -0.38589  -0.38265  -0.38247
 Alpha  occ. eigenvalues --   -0.37465  -0.37311  -0.36893  -0.36451  -0.36405
 Alpha  occ. eigenvalues --   -0.36221  -0.35646  -0.35510  -0.35415  -0.34923
 Alpha  occ. eigenvalues --   -0.34558  -0.34253  -0.34039  -0.33812  -0.33636
 Alpha  occ. eigenvalues --   -0.33460  -0.33100  -0.32811  -0.32597  -0.32436
 Alpha  occ. eigenvalues --   -0.32336  -0.32171  -0.31857  -0.31644  -0.31490
 Alpha  occ. eigenvalues --   -0.31207  -0.31192  -0.30924  -0.30518  -0.30408
 Alpha  occ. eigenvalues --   -0.30261  -0.29990  -0.29174  -0.28637  -0.27691
 Alpha  occ. eigenvalues --   -0.25327
 Alpha virt. eigenvalues --   -0.10440  -0.10155  -0.09602  -0.08662  -0.08321
 Alpha virt. eigenvalues --   -0.07651  -0.07582  -0.07543  -0.07081  -0.06330
 Alpha virt. eigenvalues --   -0.06004  -0.05114  -0.04726  -0.04550  -0.04430

 Mulliken charges:
               1
     1  N   -0.793708
     2  H    0.434555
     3  H    0.427964
     4  H    0.399276
     5  C   -0.101772
     6  H    0.235043
     7  C    0.634004
     8  C   -0.396720
     9  H    0.196619
    10  H    0.231824
    11  O   -0.551165
    12  C    0.640623
    13  O   -0.495710
    14  O   -0.578067
    15  N   -0.584348
    16  H    0.407023
    17  C   -0.067421
    18  H    0.211106
    19  C    0.634088
    20  C   -0.405171
    21  H    0.170001
    22  H    0.203555
    23  O   -0.524815
    24  C    0.151568
    25  C   -0.158161
    26  H    0.155392
    27  C   -0.190664
    28  H    0.166334
    29  C   -0.169486
    30  H    0.159307
    31  C   -0.206988
    32  H    0.155465
    33  O   -0.662317
    34  H    0.426733
    35  C    0.286416
    36  N   -0.592185
    37  H    0.347818
    38  C   -0.099964
    39  H    0.219489
    40  C    0.633672
    41  C   -0.359034
    42  H    0.174088
    43  H    0.144185
    44  O   -0.555226
    45  C    0.166846
    46  C   -0.198978
    47  H    0.175038
    48  C   -0.186797
    49  H    0.114200
    50  C   -0.162742
    51  H    0.140441
    52  C   -0.197892
    53  H    0.114670
    54  O   -0.642603
    55  H    0.406390
    56  C    0.349943
    57  N   -0.632623
    58  H    0.396619
    59  C   -0.059326
    60  H    0.178027
    61  C    0.630163
    62  C   -0.384871
    63  H    0.165704
    64  H    0.168735
    65  O   -0.547762
    66  C    0.180054
    67  C   -0.149114
    68  H    0.128203
    69  C   -0.183942
    70  H    0.146625
    71  C   -0.143057
    72  H    0.133209
    73  C   -0.157788
    74  H    0.152125
    75  C   -0.161774
    76  H    0.132385
    77  N   -0.590921
    78  H    0.336756
    79  C   -0.074363
    80  H    0.203297
    81  C    0.623009
    82  C   -0.455094
    83  H    0.189437
    84  H    0.160796
    85  H    0.153009
    86  O   -0.517715
    87  N   -0.645222
    88  H    0.390766
    89  C   -0.056064
    90  H    0.185343
    91  C    0.637221
    92  C   -0.287345
    93  H    0.170615
    94  H    0.126231
    95  O   -0.549970
    96  C   -0.061792
    97  H    0.142950
    98  C   -0.499475
    99  H    0.132430
   100  H    0.154203
   101  H    0.179157
   102  C   -0.459270
   103  H    0.120475
   104  H    0.150168
   105  H    0.185853
   106  N   -0.593841
   107  H    0.346407
   108  C   -0.030466
   109  H    0.165359
   110  C    0.658704
   111  C   -0.488894
   112  H    0.184804
   113  H    0.171264
   114  H    0.176821
   115  O   -0.563063
   116  N   -0.593827
   117  H    0.343316
   118  C   -0.064046
   119  H    0.189681
   120  C    0.648879
   121  C   -0.399385
   122  H    0.191575
   123  H    0.185498
   124  O   -0.532316
   125  C    0.316067
   126  C   -0.091942
   127  H    0.171130
   128  N   -0.633349
   129  H    0.384089
   130  C    0.206562
   131  H    0.200900
   132  N   -0.478684
   133  N   -0.654789
   134  H    0.413922
   135  C   -0.084267
   136  H    0.208516
   137  C    0.605203
   138  C    0.118838
   139  H    0.152288
   140  O   -0.565656
   141  C   -0.490326
   142  H    0.180344
   143  H    0.181758
   144  H    0.148085
   145  O   -0.710199
   146  H    0.448735
   147  N   -0.615514
   148  H    0.375498
   149  C   -0.084381
   150  H    0.208091
   151  C    0.586359
   152  C   -0.058260
   153  H    0.150062
   154  O   -0.534070
   155  C   -0.479492
   156  H    0.107546
   157  H    0.185189
   158  H    0.142264
   159  C   -0.461481
   160  H    0.138643
   161  H    0.148314
   162  H    0.154051
   163  N   -0.617801
   164  H    0.352155
   165  C   -0.005024
   166  H    0.166446
   167  C    0.627066
   168  C   -0.315943
   169  H    0.197342
   170  H    0.132021
   171  O   -0.602186
   172  C   -0.273104
   173  H    0.160016
   174  H    0.177785
   175  C   -0.180629
   176  H    0.155904
   177  H    0.182207
   178  N   -0.570566
   179  H    0.382366
   180  N   -0.762023
   181  H    0.399081
   182  H    0.351167
   183  N   -0.759672
   184  H    0.390279
   185  H    0.404831
   186  C    0.702190
   187  O   -0.638079
   188  H    0.489842
 Sum of Mulliken charges =   1.00000

 Dipole moment (field-independent basis, Debye):
    X=            -13.6768    Y=             -1.8020    Z=             11.2917  Tot=             17.8271
 Quadrupole moment (field-independent basis, Debye-Ang):
   XX=           -370.7967   YY=           -462.9727   ZZ=           -506.4681
   XY=            114.8988   XZ=            -27.8597   YZ=            -12.1973

 Normal termination of Gaussian 16 at Wed Aug 10 12:58:33 2022.
