 Gaussian 16, Revision C.01,
 Gaussian 16:  ES64L-G16RevC.01  3-Jul-2019

 ----------------------------------------------------------------------
 # B3LYP/6-31G* empiricaldispersion=gd3 guess=read geom=check nosymm in
 tegral(ultrafinegrid)
 ----------------------------------------------------------------------

 ------------------------------------------------------
 Candidate Structure: Conf:647 Charge calc in gas phase
 ------------------------------------------------------
 Structure from the checkpoint file:  "conf-647.chk"
 Charge =  1 Multiplicity = 1

                          Input orientation:
 ---------------------------------------------------------------------
 Center     Atomic      Atomic             Coordinates (Angstroms)
 Number     Number       Type             X           Y           Z
 ---------------------------------------------------------------------
      1          7           0       -0.186294   -6.201192   -0.126021
      2          1           0        0.064022   -5.200546   -0.236779
      3          1           0       -0.597105   -6.297580    0.816278
      4          1           0        0.644614   -6.810217   -0.254984
      5          6           0       -1.248043   -6.618937   -1.111209
      6          1           0       -0.945945   -6.221206   -2.082566
      7          6           0       -2.536273   -5.959159   -0.572797
      8          6           0       -1.380091   -8.146947   -1.141335
      9          1           0       -1.748623   -8.502803   -0.169446
     10          1           0       -2.131395   -8.430630   -1.883273
     11          8           0       -2.700887   -5.935976    0.646453
     12          6           0       -0.068377   -8.853010   -1.437530
     13          8           0        1.028642   -8.397446   -1.151895
     14          8           0       -0.252186  -10.036608   -2.015248
     15          7           0       -3.360854   -5.430317   -1.484135
     16          1           0       -3.111512   -5.404430   -2.471187
     17          6           0       -4.340527   -4.412988   -1.130715
     18          1           0       -5.015331   -4.822351   -0.374358
     19          6           0       -5.086299   -4.097696   -2.436783
     20          6           0       -3.668893   -3.088791   -0.569530
     21          1           0       -3.952682   -2.977342    0.479915
     22          1           0       -4.080499   -2.237532   -1.122437
     23          8           0       -4.541083   -4.274041   -3.522406
     24          6           0       -2.162788   -3.049198   -0.697679
     25          6           0       -1.338403   -3.042640    0.431856
     26          1           0       -1.785999   -3.063260    1.421734
     27          6           0       -1.555788   -3.044288   -1.966121
     28          1           0       -2.183531   -3.040453   -2.851458
     29          6           0        0.057485   -2.996455    0.314690
     30          1           0        0.692374   -2.912089    1.191358
     31          6           0       -0.170896   -3.014001   -2.098643
     32          1           0        0.293695   -2.977296   -3.079484
     33          8           0        2.004593   -2.886713   -1.067350
     34          1           0        2.198971   -2.076805   -1.592490
     35          6           0        0.648306   -2.960917   -0.956851
     36          7           0       -6.321373   -3.558169   -2.292384
     37          1           0       -6.757209   -3.566821   -1.378871
     38          6           0       -7.134730   -3.154451   -3.446099
     39          1           0       -7.107924   -3.946240   -4.198701
     40          6           0       -6.557782   -1.909373   -4.142318
     41          6           0       -8.586944   -2.909869   -2.972892
     42          1           0       -8.566815   -2.162327   -2.168394
     43          1           0       -8.957959   -3.846748   -2.536910
     44          8           0       -6.498153   -1.822536   -5.354955
     45          6           0       -9.503540   -2.446317   -4.080472
     46          6           0       -9.701973   -1.080025   -4.323593
     47          1           0       -9.206258   -0.347770   -3.690647
     48          6           0      -10.144178   -3.367754   -4.914242
     49          1           0      -10.009148   -4.433974   -4.745281
     50          6           0      -10.513054   -0.642292   -5.363783
     51          1           0      -10.672403    0.414380   -5.551985
     52          6           0      -10.960243   -2.945763   -5.961964
     53          1           0      -11.454822   -3.676823   -6.598217
     54          8           0      -11.931515   -1.090886   -7.193559
     55          1           0      -12.312687   -1.828466   -7.694919
     56          6           0      -11.146166   -1.577540   -6.190850
     57          7           0       -6.209745   -0.876123   -3.295884
     58          1           0       -5.970811   -1.149891   -2.350403
     59          6           0       -5.413304    0.209843   -3.840031
     60          1           0       -5.881954    0.508016   -4.780681
     61          6           0       -3.985595   -0.293560   -4.116376
     62          6           0       -5.380896    1.411420   -2.867503
     63          1           0       -6.414451    1.743301   -2.714442
     64          1           0       -4.997804    1.069924   -1.897344
     65          8           0       -3.459759   -1.122005   -3.357602
     66          6           0       -4.511186    2.528768   -3.402708
     67          6           0       -3.269890    2.814167   -2.823196
     68          1           0       -2.968165    2.290239   -1.920494
     69          6           0       -4.891176    3.228133   -4.557647
     70          1           0       -5.862466    3.034238   -5.009102
     71          6           0       -2.414165    3.758576   -3.392812
     72          1           0       -1.455894    3.969400   -2.927102
     73          6           0       -4.034286    4.167234   -5.135139
     74          1           0       -4.341734    4.699258   -6.031181
     75          6           0       -2.788637    4.428019   -4.558388
     76          1           0       -2.118810    5.153438   -5.010026
     77          7           0       -3.364707    0.230097   -5.189538
     78          1           0       -3.809187    1.002517   -5.670906
     79          6           0       -2.001804   -0.118117   -5.604901
     80          1           0       -1.896299   -1.196742   -5.443074
     81          6           0       -0.972187    0.613130   -4.713896
     82          6           0       -1.805463    0.229776   -7.075280
     83          1           0       -0.807780   -0.072626   -7.403466
     84          1           0       -2.552563   -0.281239   -7.689417
     85          1           0       -1.881729    1.311423   -7.222678
     86          8           0       -0.327682    1.583803   -5.107935
     87          7           0       -0.849044    0.092140   -3.464470
     88          1           0       -1.546348   -0.588591   -3.169495
     89          6           0       -0.111947    0.824576   -2.438738
     90          1           0       -0.254724    1.889429   -2.644317
     91          6           0        1.398027    0.542798   -2.553273
     92          6           0       -0.647959    0.498664   -1.043315
     93          1           0       -1.728785    0.695529   -1.058137
     94          1           0       -0.525195   -0.569962   -0.854829
     95          8           0        1.975381   -0.312856   -1.852256
     96          6           0        0.000703    1.289013    0.109252
     97          1           0        1.046755    0.973434    0.180171
     98          6           0       -0.022667    2.808147   -0.117878
     99          1           0       -1.041039    3.162700   -0.330069
    100          1           0        0.327569    3.333364    0.777682
    101          1           0        0.636144    3.111825   -0.938672
    102          6           0       -0.679835    0.909592    1.431028
    103          1           0       -1.729700    1.232286    1.440599
    104          1           0       -0.174611    1.382914    2.279530
    105          1           0       -0.657120   -0.175123    1.590242
    106          7           0        2.064543    1.320541   -3.414437
    107          1           0        1.519151    1.972983   -3.970098
    108          6           0        3.513199    1.492975   -3.320738
    109          1           0        3.979142    0.502678   -3.335488
    110          6           0        3.783133    2.205643   -1.972801
    111          6           0        4.013425    2.349363   -4.482983
    112          1           0        5.101083    2.455093   -4.432778
    113          1           0        3.570483    3.349119   -4.425441
    114          1           0        3.751023    1.892710   -5.442497
    115          8           0        3.141378    3.209515   -1.666962
    116          7           0        4.714274    1.637674   -1.180297
    117          1           0        5.276407    0.845223   -1.478220
    118          6           0        5.076156    2.171404    0.122395
    119          1           0        5.341000    3.231240    0.017563
    120          6           0        6.307444    1.369205    0.581215
    121          6           0        3.903320    2.056968    1.142577
    122          1           0        3.020003    2.490512    0.662786
    123          1           0        4.121863    2.687393    2.011212
    124          8           0        6.809549    0.507082   -0.153616
    125          6           0        3.678364    0.661613    1.622662
    126          6           0        3.918885    0.071917    2.844261
    127          1           0        4.276152    0.554549    3.744305
    128          7           0        3.284408   -0.378216    0.799682
    129          1           0        2.999739   -0.295515   -0.171805
    130          6           0        3.305152   -1.519610    1.550401
    131          1           0        3.063960   -2.480528    1.120930
    132          7           0        3.682914   -1.285238    2.792485
    133          7           0        6.752988    1.634048    1.817198
    134          1           0        6.261648    2.268345    2.439458
    135          6           0        7.680738    0.751389    2.504696
    136          1           0        7.537590   -0.261732    2.108194
    137          6           0        7.275891    0.793411    3.990090
    138          6           0        9.159113    1.172545    2.245620
    139          1           0        9.336981    2.118030    2.774704
    140          8           0        6.611601    1.737631    4.427807
    141          6           0       10.171393    0.122374    2.710350
    142          1           0       10.192559   -0.013544    3.796070
    143          1           0        9.958818   -0.848650    2.243218
    144          1           0       11.167026    0.434502    2.382495
    145          8           0        9.343263    1.467660    0.868849
    146          1           0        8.828039    0.827450    0.345561
    147          7           0        7.684222   -0.252248    4.734553
    148          1           0        8.312510   -0.942017    4.337424
    149          6           0        7.618921   -0.282414    6.191787
    150          1           0        7.268501    0.701116    6.519675
    151          6           0        9.058238   -0.555363    6.665516
    152          6           0        6.638313   -1.371010    6.705936
    153          1           0        7.051887   -2.341489    6.395350
    154          8           0        9.791609   -1.303700    6.008240
    155          6           0        6.542220   -1.349387    8.238946
    156          1           0        6.175990   -0.375954    8.591990
    157          1           0        7.503857   -1.542552    8.722525
    158          1           0        5.833983   -2.110714    8.582981
    159          6           0        5.253146   -1.198516    6.068910
    160          1           0        4.848739   -0.201589    6.285527
    161          1           0        4.554567   -1.938961    6.474587
    162          1           0        5.275416   -1.329841    4.984486
    163          7           0        9.433075    0.037885    7.811369
    164          1           0        8.837362    0.704807    8.290358
    165          6           0       10.740338   -0.156590    8.433238
    166          1           0       11.018466   -1.210310    8.362051
    167          6           0       10.626038    0.295075    9.909832
    168          6           0       11.776315    0.741521    7.701801
    169          1           0       11.604551    0.612384    6.627671
    170          1           0       11.513136    1.779899    7.939913
    171          8           0       11.280559   -0.344268   10.766167
    172          6           0       13.283269    0.507051    7.928589
    173          1           0       13.810734    1.278340    7.351228
    174          1           0       13.574852   -0.451573    7.481148
    175          6           0       13.829952    0.488479    9.375149
    176          1           0       14.917998    0.631370    9.366633
    177          1           0       13.633672   -0.484558    9.826062
    178          7           0       13.196906    1.428074   10.316216
    179          1           0       12.493450    0.939784   10.896455
    180          7           0       13.880111    3.474829    9.440942
    181          1           0       13.604514    4.336215    8.994599
    182          1           0       14.756345    3.064855    9.155337
    183          7           0       11.862076    3.274560   10.608326
    184          1           0       11.744970    4.277531   10.598096
    185          1           0       11.017341    2.655466   10.651856
    186          6           0       12.972344    2.722749   10.107453
    187          8           0        9.987030    1.380782   10.072938
    188          1           0        0.620238  -10.462345   -2.137526
 ---------------------------------------------------------------------

 SCF Done:  E(RB3LYP) =  -4648.76602250     A.U. after    3 cycles

 Alpha  occ. eigenvalues --  -19.33044 -19.28207 -19.24928 -19.24166 -19.23129
 Alpha  occ. eigenvalues --  -19.22420 -19.20802 -19.20800 -19.19448 -19.19180
 Alpha  occ. eigenvalues --  -19.17702 -19.17229 -19.16682 -19.16332 -19.14604
 Alpha  occ. eigenvalues --  -19.11912 -19.11244 -14.57071 -14.48382 -14.46782
 Alpha  occ. eigenvalues --  -14.44965 -14.44822 -14.43629 -14.43542 -14.42980
 Alpha  occ. eigenvalues --  -14.42026 -14.41978 -14.41811 -14.41747 -14.40832
 Alpha  occ. eigenvalues --  -14.40214 -14.38765 -14.34695 -10.46464 -10.42205
 Alpha  occ. eigenvalues --  -10.39911 -10.39512 -10.39408 -10.37255 -10.37057
 Alpha  occ. eigenvalues --  -10.36074 -10.36021 -10.35113 -10.34885 -10.34510
 Alpha  occ. eigenvalues --  -10.34508 -10.34230 -10.33506 -10.31791 -10.31668
 Alpha  occ. eigenvalues --  -10.31412 -10.31340 -10.30505 -10.30386 -10.30329
 Alpha  occ. eigenvalues --  -10.29603 -10.29576 -10.29366 -10.29345 -10.29087
 Alpha  occ. eigenvalues --  -10.28570 -10.28494 -10.28384 -10.27818 -10.27780
 Alpha  occ. eigenvalues --  -10.27772 -10.27758 -10.27672 -10.27125 -10.26955
 Alpha  occ. eigenvalues --  -10.26547 -10.25930 -10.25863 -10.25814 -10.25712
 Alpha  occ. eigenvalues --  -10.25508 -10.25406 -10.25249 -10.25177 -10.25165
 Alpha  occ. eigenvalues --  -10.25089 -10.25069 -10.24930 -10.24839 -10.24646
 Alpha  occ. eigenvalues --  -10.24637 -10.24586 -10.23991 -10.23861 -10.22862
 Alpha  occ. eigenvalues --  -10.22795 -10.22676 -10.22525 -10.22452 -10.20779
 Alpha  occ. eigenvalues --  -10.20393 -10.19650  -1.24434  -1.17488  -1.15625
 Alpha  occ. eigenvalues --   -1.14442  -1.13118  -1.12578  -1.11985  -1.11743
 Alpha  occ. eigenvalues --   -1.11236  -1.11102  -1.10777  -1.09875  -1.08979
 Alpha  occ. eigenvalues --   -1.08223  -1.08111  -1.06423  -1.05281  -1.04926
 Alpha  occ. eigenvalues --   -1.04514  -1.04438  -1.03087  -1.01223  -1.00441
 Alpha  occ. eigenvalues --   -1.00116  -0.99492  -0.98286  -0.97585  -0.97540
 Alpha  occ. eigenvalues --   -0.96836  -0.96750  -0.95764  -0.95327  -0.94676
 Alpha  occ. eigenvalues --   -0.93775  -0.92687  -0.91517  -0.90184  -0.89248
 Alpha  occ. eigenvalues --   -0.87893  -0.87223  -0.86078  -0.85564  -0.84765
 Alpha  occ. eigenvalues --   -0.84650  -0.84519  -0.84251  -0.83544  -0.83170
 Alpha  occ. eigenvalues --   -0.82189  -0.81297  -0.80963  -0.80728  -0.80525
 Alpha  occ. eigenvalues --   -0.80413  -0.78894  -0.78115  -0.77789  -0.76480
 Alpha  occ. eigenvalues --   -0.75607  -0.74722  -0.74155  -0.73966  -0.73847
 Alpha  occ. eigenvalues --   -0.73421  -0.73078  -0.72492  -0.72185  -0.71939
 Alpha  occ. eigenvalues --   -0.71591  -0.71293  -0.70951  -0.70875  -0.69867
 Alpha  occ. eigenvalues --   -0.69497  -0.69436  -0.69017  -0.68325  -0.67991
 Alpha  occ. eigenvalues --   -0.67854  -0.67498  -0.66466  -0.65812  -0.65731
 Alpha  occ. eigenvalues --   -0.65486  -0.65313  -0.65263  -0.64926  -0.64711
 Alpha  occ. eigenvalues --   -0.64535  -0.64418  -0.64200  -0.63599  -0.63212
 Alpha  occ. eigenvalues --   -0.62970  -0.62885  -0.62727  -0.62259  -0.62164
 Alpha  occ. eigenvalues --   -0.61697  -0.61497  -0.61457  -0.61148  -0.60355
 Alpha  occ. eigenvalues --   -0.60258  -0.60012  -0.59791  -0.59706  -0.59278
 Alpha  occ. eigenvalues --   -0.58488  -0.58213  -0.58017  -0.57859  -0.57685
 Alpha  occ. eigenvalues --   -0.57667  -0.57226  -0.57141  -0.56862  -0.56519
 Alpha  occ. eigenvalues --   -0.56362  -0.56124  -0.55899  -0.55730  -0.55543
 Alpha  occ. eigenvalues --   -0.54976  -0.54590  -0.54491  -0.54308  -0.54020
 Alpha  occ. eigenvalues --   -0.53507  -0.53439  -0.53119  -0.52869  -0.52823
 Alpha  occ. eigenvalues --   -0.52662  -0.52644  -0.52439  -0.52265  -0.52019
 Alpha  occ. eigenvalues --   -0.51953  -0.51633  -0.51453  -0.51371  -0.51305
 Alpha  occ. eigenvalues --   -0.51097  -0.50857  -0.50606  -0.50559  -0.50377
 Alpha  occ. eigenvalues --   -0.50162  -0.49923  -0.49656  -0.49477  -0.49408
 Alpha  occ. eigenvalues --   -0.49332  -0.49153  -0.49103  -0.48930  -0.48653
 Alpha  occ. eigenvalues --   -0.48571  -0.48080  -0.47966  -0.47784  -0.47762
 Alpha  occ. eigenvalues --   -0.47574  -0.47532  -0.47515  -0.47345  -0.47323
 Alpha  occ. eigenvalues --   -0.47094  -0.46638  -0.46425  -0.46212  -0.46132
 Alpha  occ. eigenvalues --   -0.45971  -0.45854  -0.45709  -0.45646  -0.45514
 Alpha  occ. eigenvalues --   -0.45388  -0.45336  -0.45150  -0.45082  -0.44902
 Alpha  occ. eigenvalues --   -0.44835  -0.44623  -0.44568  -0.44483  -0.44386
 Alpha  occ. eigenvalues --   -0.44137  -0.44088  -0.44019  -0.43865  -0.43750
 Alpha  occ. eigenvalues --   -0.43692  -0.43408  -0.43351  -0.43016  -0.42962
 Alpha  occ. eigenvalues --   -0.42900  -0.42733  -0.42572  -0.42200  -0.42114
 Alpha  occ. eigenvalues --   -0.42059  -0.41911  -0.41836  -0.41814  -0.41780
 Alpha  occ. eigenvalues --   -0.41239  -0.41201  -0.40961  -0.40734  -0.40730
 Alpha  occ. eigenvalues --   -0.40321  -0.40026  -0.40015  -0.39499  -0.39391
 Alpha  occ. eigenvalues --   -0.39315  -0.38825  -0.38668  -0.38560  -0.38492
 Alpha  occ. eigenvalues --   -0.38327  -0.38258  -0.38149  -0.37845  -0.37128
 Alpha  occ. eigenvalues --   -0.36600  -0.36481  -0.36384  -0.36379  -0.36133
 Alpha  occ. eigenvalues --   -0.36009  -0.35773  -0.35237  -0.35088  -0.35029
 Alpha  occ. eigenvalues --   -0.34513  -0.33582  -0.32638  -0.32365  -0.32217
 Alpha  occ. eigenvalues --   -0.32106  -0.32102  -0.31932  -0.31828  -0.31781
 Alpha  occ. eigenvalues --   -0.31261  -0.31017  -0.30895  -0.30771  -0.30697
 Alpha  occ. eigenvalues --   -0.30549  -0.30151  -0.29952  -0.29142  -0.28847
 Alpha  occ. eigenvalues --   -0.28193  -0.27656  -0.27387  -0.26205  -0.25750
 Alpha  occ. eigenvalues --   -0.25057
 Alpha virt. eigenvalues --   -0.13228  -0.12010  -0.10750  -0.09745  -0.07952
 Alpha virt. eigenvalues --   -0.07818  -0.07468  -0.07146  -0.06923  -0.06239
 Alpha virt. eigenvalues --   -0.05721  -0.05629  -0.05119  -0.05091  -0.04780

 Mulliken charges:
               1
     1  N   -0.764640
     2  H    0.422288
     3  H    0.410161
     4  H    0.434258
     5  C   -0.119326
     6  H    0.213347
     7  C    0.649123
     8  C   -0.385620
     9  H    0.233969
    10  H    0.230961
    11  O   -0.529474
    12  C    0.619867
    13  O   -0.476954
    14  O   -0.529304
    15  N   -0.605222
    16  H    0.365106
    17  C   -0.035539
    18  H    0.188213
    19  C    0.633064
    20  C   -0.382878
    21  H    0.171575
    22  H    0.198339
    23  O   -0.517092
    24  C    0.140036
    25  C   -0.184987
    26  H    0.160762
    27  C   -0.221907
    28  H    0.195708
    29  C   -0.246331
    30  H    0.181289
    31  C   -0.195504
    32  H    0.154677
    33  O   -0.680467
    34  H    0.453962
    35  C    0.335513
    36  N   -0.648571
    37  H    0.340298
    38  C   -0.025471
    39  H    0.198274
    40  C    0.640865
    41  C   -0.404801
    42  H    0.151729
    43  H    0.162650
    44  O   -0.496420
    45  C    0.169759
    46  C   -0.176839
    47  H    0.128319
    48  C   -0.181244
    49  H    0.127079
    50  C   -0.155031
    51  H    0.147399
    52  C   -0.188871
    53  H    0.130233
    54  O   -0.634743
    55  H    0.413228
    56  C    0.356363
    57  N   -0.598533
    58  H    0.330387
    59  C   -0.061684
    60  H    0.188530
    61  C    0.651182
    62  C   -0.364791
    63  H    0.178202
    64  H    0.146852
    65  O   -0.578530
    66  C    0.157735
    67  C   -0.193213
    68  H    0.138973
    69  C   -0.215889
    70  H    0.139841
    71  C   -0.125884
    72  H    0.151772
    73  C   -0.131556
    74  H    0.149046
    75  C   -0.123584
    76  H    0.150645
    77  N   -0.576000
    78  H    0.354377
    79  C   -0.062576
    80  H    0.175678
    81  C    0.634518
    82  C   -0.468815
    83  H    0.173492
    84  H    0.168946
    85  H    0.179151
    86  O   -0.535525
    87  N   -0.652238
    88  H    0.397126
    89  C   -0.048748
    90  H    0.181229
    91  C    0.657210
    92  C   -0.310278
    93  H    0.136596
    94  H    0.163384
    95  O   -0.609154
    96  C   -0.089136
    97  H    0.149425
    98  C   -0.478655
    99  H    0.135120
   100  H    0.156295
   101  H    0.177040
   102  C   -0.445733
   103  H    0.131080
   104  H    0.159856
   105  H    0.136607
   106  N   -0.569669
   107  H    0.375400
   108  C   -0.039423
   109  H    0.160212
   110  C    0.625402
   111  C   -0.480404
   112  H    0.176485
   113  H    0.182170
   114  H    0.170838
   115  O   -0.539892
   116  N   -0.619772
   117  H    0.360297
   118  C   -0.034063
   119  H    0.191866
   120  C    0.637794
   121  C   -0.398025
   122  H    0.203228
   123  H    0.168003
   124  O   -0.571949
   125  C    0.308606
   126  C   -0.096303
   127  H    0.158564
   128  N   -0.635030
   129  H    0.383397
   130  C    0.183045
   131  H    0.155289
   132  N   -0.446129
   133  N   -0.586597
   134  H    0.359249
   135  C   -0.114790
   136  H    0.175595
   137  C    0.627074
   138  C    0.178861
   139  H    0.135893
   140  O   -0.554005
   141  C   -0.491064
   142  H    0.172501
   143  H    0.138643
   144  H    0.165726
   145  O   -0.639916
   146  H    0.409183
   147  N   -0.597399
   148  H    0.355557
   149  C   -0.061117
   150  H    0.169971
   151  C    0.627509
   152  C   -0.074762
   153  H    0.137257
   154  O   -0.563840
   155  C   -0.463250
   156  H    0.142016
   157  H    0.167125
   158  H    0.148940
   159  C   -0.459683
   160  H    0.144286
   161  H    0.140112
   162  H    0.185387
   163  N   -0.603791
   164  H    0.348576
   165  C    0.000406
   166  H    0.163298
   167  C    0.558657
   168  C   -0.281157
   169  H    0.167245
   170  H    0.132248
   171  O   -0.589290
   172  C   -0.282036
   173  H    0.127295
   174  H    0.166076
   175  C   -0.168526
   176  H    0.148281
   177  H    0.209208
   178  N   -0.589966
   179  H    0.400323
   180  N   -0.756690
   181  H    0.360981
   182  H    0.370409
   183  N   -0.765266
   184  H    0.342283
   185  H    0.422679
   186  C    0.752616
   187  O   -0.612633
   188  H    0.443431
 Sum of Mulliken charges =   1.00000

 Dipole moment (field-independent basis, Debye):
    X=             -2.4830    Y=            -14.9154    Z=             -6.7466  Tot=             16.5574
 Quadrupole moment (field-independent basis, Debye-Ang):
   XX=           -269.6077   YY=           -351.0306   ZZ=           -514.1764
   XY=            134.4050   XZ=            126.9795   YZ=             92.5233

 Normal termination of Gaussian 16 at Wed Aug 10 12:57:41 2022.
