 Gaussian 16, Revision C.01,
 Gaussian 16:  ES64L-G16RevC.01  3-Jul-2019

 ----------------------------------------------------------------------
 # B3LYP/6-31G* empiricaldispersion=gd3 guess=read geom=check nosymm in
 tegral(ultrafinegrid)
 ----------------------------------------------------------------------

 ------------------------------------------------------
 Candidate Structure: Conf:997 Charge calc in gas phase
 ------------------------------------------------------
 Structure from the checkpoint file:  "conf-997.chk"
 Charge =  1 Multiplicity = 1

                          Input orientation:
 ---------------------------------------------------------------------
 Center     Atomic      Atomic             Coordinates (Angstroms)
 Number     Number       Type             X           Y           Z
 ---------------------------------------------------------------------
      1          7           0      -10.568657   -6.513087   -6.640414
      2          1           0      -11.105865   -6.992135   -5.910142
      3          1           0      -10.987707   -5.550502   -6.779147
      4          1           0      -10.614599   -7.068485   -7.499778
      5          6           0       -9.156583   -6.175833   -6.206267
      6          1           0       -8.820821   -6.904393   -5.467376
      7          6           0       -9.314793   -4.741242   -5.627795
      8          6           0       -8.232067   -6.163911   -7.445627
      9          1           0       -8.012897   -7.192773   -7.752261
     10          1           0       -8.709689   -5.625038   -8.268682
     11          8           0      -10.264388   -4.069925   -6.049296
     12          6           0       -6.934974   -5.421912   -7.119911
     13          8           0       -6.614406   -4.384718   -7.645771
     14          8           0       -6.279761   -6.027739   -6.115633
     15          7           0       -8.369606   -4.351792   -4.775974
     16          1           0       -7.608253   -4.990652   -4.554405
     17          6           0       -8.025082   -2.953594   -4.502087
     18          1           0       -8.582368   -2.328607   -5.203940
     19          6           0       -6.506938   -2.854776   -4.769823
     20          6           0       -8.377353   -2.544235   -3.047185
     21          1           0       -7.889417   -3.247932   -2.363214
     22          1           0       -9.460543   -2.666621   -2.929024
     23          8           0       -5.786579   -3.858623   -4.605665
     24          6           0       -7.939598   -1.127246   -2.758570
     25          6           0       -6.777704   -0.868419   -2.017970
     26          1           0       -6.235264   -1.694885   -1.564848
     27          6           0       -8.612999   -0.043654   -3.336415
     28          1           0       -9.523890   -0.214129   -3.907335
     29          6           0       -6.291520    0.425190   -1.865156
     30          1           0       -5.390780    0.625763   -1.294875
     31          6           0       -8.133031    1.257577   -3.200531
     32          1           0       -8.662500    2.087278   -3.663059
     33          8           0       -6.427418    2.735688   -2.308753
     34          1           0       -6.925632    3.380563   -2.834853
     35          6           0       -6.962078    1.492847   -2.471810
     36          7           0       -6.050728   -1.661790   -5.137562
     37          1           0       -6.658616   -0.846079   -5.168548
     38          6           0       -4.637000   -1.371865   -5.331687
     39          1           0       -4.058491   -2.014252   -4.662003
     40          6           0       -4.444946    0.111666   -4.990911
     41          6           0       -4.214718   -1.645891   -6.805196
     42          1           0       -4.886318   -1.071896   -7.452793
     43          1           0       -4.401108   -2.707082   -7.004331
     44          8           0       -5.335540    0.926144   -5.242680
     45          6           0       -2.775971   -1.262782   -7.056285
     46          6           0       -2.454689   -0.039440   -7.662153
     47          1           0       -3.254284    0.597756   -8.032770
     48          6           0       -1.726361   -2.059137   -6.582920
     49          1           0       -1.945322   -3.016899   -6.114944
     50          6           0       -1.136042    0.388269   -7.777676
     51          1           0       -0.888708    1.339796   -8.236981
     52          6           0       -0.400281   -1.641218   -6.683506
     53          1           0        0.400939   -2.263906   -6.291765
     54          8           0        1.167252    0.087729   -7.359105
     55          1           0        1.782388   -0.522657   -6.922616
     56          6           0       -0.104885   -0.405567   -7.266772
     57          7           0       -3.247271    0.427004   -4.462200
     58          1           0       -2.514014   -0.274048   -4.400530
     59          6           0       -2.764321    1.795944   -4.393925
     60          1           0       -3.274433    2.376374   -5.168852
     61          6           0       -1.255616    1.736676   -4.672543
     62          6           0       -3.056288    2.446817   -3.011746
     63          1           0       -4.141680    2.435202   -2.875071
     64          1           0       -2.608069    1.817543   -2.234698
     65          8           0       -0.614372    0.713697   -4.395672
     66          6           0       -2.511654    3.853889   -2.944531
     67          6           0       -1.346326    4.140336   -2.224063
     68          1           0       -0.888578    3.364625   -1.618321
     69          6           0       -3.092859    4.869854   -3.718265
     70          1           0       -4.007817    4.663315   -4.270861
     71          6           0       -0.755339    5.402161   -2.293602
     72          1           0        0.160261    5.598614   -1.744629
     73          6           0       -2.502674    6.133884   -3.792479
     74          1           0       -2.961170    6.910584   -4.398856
     75          6           0       -1.325949    6.399490   -3.086837
     76          1           0       -0.859884    7.378305   -3.151875
     77          7           0       -0.703730    2.843458   -5.207882
     78          1           0       -1.260463    3.690686   -5.224536
     79          6           0        0.738157    2.993386   -5.455230
     80          1           0        1.085108    2.032038   -5.847644
     81          6           0        1.481262    3.292864   -4.132159
     82          6           0        0.966080    4.098338   -6.478484
     83          1           0        2.033378    4.199378   -6.688560
     84          1           0        0.441373    3.865211   -7.410009
     85          1           0        0.617948    5.060462   -6.089105
     86          8           0        1.996243    4.389660   -3.899491
     87          7           0        1.496567    2.261412   -3.256454
     88          1           0        1.007623    1.405141   -3.506984
     89          6           0        1.974348    2.434592   -1.887277
     90          1           0        1.711257    3.453937   -1.585119
     91          6           0        3.511602    2.309602   -1.873502
     92          6           0        1.349299    1.425077   -0.921855
     93          1           0        0.282533    1.312558   -1.161125
     94          1           0        1.825516    0.453443   -1.090830
     95          8           0        4.081122    1.238181   -1.645016
     96          6           0        1.518470    1.865697    0.550041
     97          1           0        2.501516    2.344809    0.655968
     98          6           0        0.475133    2.915790    0.954954
     99          1           0       -0.538341    2.491696    0.917127
    100          1           0        0.684278    3.259040    1.970503
    101          1           0        0.493707    3.794365    0.295504
    102          6           0        1.492895    0.672468    1.512249
    103          1           0        0.509446    0.182232    1.503266
    104          1           0        1.713107    1.010606    2.529992
    105          1           0        2.243684   -0.077492    1.233076
    106          7           0        4.178840    3.462938   -2.120004
    107          1           0        3.636409    4.240114   -2.488673
    108          6           0        5.644677    3.531125   -2.163987
    109          1           0        6.007902    2.602151   -2.620512
    110          6           0        6.160816    3.588154   -0.706335
    111          6           0        6.095928    4.740189   -2.972152
    112          1           0        7.187033    4.769948   -3.030887
    113          1           0        5.764430    5.667014   -2.494925
    114          1           0        5.687581    4.689112   -3.986055
    115          8           0        6.629625    4.632191   -0.216961
    116          7           0        5.994647    2.446931   -0.022747
    117          1           0        5.587521    1.653138   -0.518049
    118          6           0        6.104507    2.366996    1.414742
    119          1           0        5.802427    3.334758    1.822394
    120          6           0        7.539368    2.079999    1.852316
    121          6           0        5.138086    1.285157    1.983975
    122          1           0        4.148850    1.493191    1.575200
    123          1           0        5.021248    1.424745    3.062479
    124          8           0        8.436387    1.724944    1.091665
    125          6           0        5.550651   -0.118091    1.689541
    126          6           0        5.346909   -0.941780    0.604067
    127          1           0        4.771921   -0.719095   -0.285408
    128          7           0        6.346162   -0.857092    2.551670
    129          1           0        6.626608   -0.591830    3.495567
    130          6           0        6.561846   -2.067589    1.957071
    131          1           0        7.141043   -2.846654    2.435334
    132          7           0        5.981374   -2.153767    0.777601
    133          7           0        7.737238    2.226139    3.198708
    134          1           0        6.912586    2.445705    3.746256
    135          6           0        8.782514    1.451569    3.891216
    136          1           0        8.935485    0.520419    3.334013
    137          6           0        8.086438    1.082375    5.212952
    138          6           0       10.127650    2.196353    3.950944
    139          1           0       10.020723    3.096892    4.572310
    140          8           0        7.356602    0.095327    5.261707
    141          6           0       11.230955    1.313452    4.526342
    142          1           0       11.000968    1.016088    5.556057
    143          1           0       11.350051    0.408972    3.919576
    144          1           0       12.179983    1.855981    4.520353
    145          8           0       10.483220    2.678668    2.651064
    146          1           0       10.040474    2.112370    1.977357
    147          7           0        8.166113    2.014122    6.203231
    148          1           0        8.697606    2.851216    5.990638
    149          6           0        6.983658    2.341493    7.024059
    150          1           0        6.340686    1.458099    7.024697
    151          6           0        6.338700    3.523160    6.260194
    152          6           0        7.365522    2.724280    8.462357
    153          1           0        8.037761    3.591010    8.393348
    154          8           0        7.042393    4.541056    6.080863
    155          6           0        6.113964    3.147386    9.245079
    156          1           0        5.385857    2.327705    9.291254
    157          1           0        5.621032    4.012828    8.789391
    158          1           0        6.379511    3.415921   10.272892
    159          6           0        8.097688    1.570862    9.157983
    160          1           0        7.443941    0.694569    9.250694
    161          1           0        8.407859    1.866062   10.166269
    162          1           0        8.989170    1.266434    8.600503
    163          7           0        5.115683    3.301432    5.783826
    164          1           0        4.664131    2.379345    5.890393
    165          6           0        4.260641    4.089189    4.884203
    166          1           0        3.607484    4.736498    5.485145
    167          6           0        3.331797    3.001973    4.165403
    168          6           0        5.001793    4.909658    3.831846
    169          1           0        5.896679    4.348661    3.547879
    170          1           0        4.341888    4.927404    2.958141
    171          8           0        2.756708    3.391745    3.129611
    172          6           0        5.415437    6.334681    4.191587
    173          1           0        6.015778    6.333627    5.103519
    174          1           0        4.526951    6.943144    4.401451
    175          6           0        6.180574    7.005938    3.027466
    176          1           0        6.814598    7.819422    3.395688
    177          1           0        5.474433    7.435776    2.312338
    178          7           0        7.016128    6.100029    2.223917
    179          1           0        6.653398    5.760512    1.331912
    180          7           0        8.588490    5.657218    3.886996
    181          1           0        9.505943    5.278492    4.080345
    182          1           0        7.912555    5.509082    4.642448
    183          7           0        8.944516    4.938615    1.696119
    184          1           0        9.576905    4.197342    2.020116
    185          1           0        8.552614    4.823209    0.764973
    186          6           0        8.167264    5.546818    2.604456
    187          8           0        3.326840    1.869656    4.715121
    188          1           0       -5.668557   -5.356137   -5.715538
 ---------------------------------------------------------------------

 SCF Done:  E(RB3LYP) =  -4648.77031634     A.U. after    2 cycles

 Alpha  occ. eigenvalues --  -19.30528 -19.27797 -19.25950 -19.25086 -19.24058
 Alpha  occ. eigenvalues --  -19.22675 -19.20582 -19.19195 -19.19161 -19.18646
 Alpha  occ. eigenvalues --  -19.18539 -19.17921 -19.17123 -19.16796 -19.16321
 Alpha  occ. eigenvalues --  -19.09419 -19.08905 -14.62057 -14.50297 -14.45973
 Alpha  occ. eigenvalues --  -14.43100 -14.42952 -14.42814 -14.42509 -14.42393
 Alpha  occ. eigenvalues --  -14.41943 -14.41540 -14.40833 -14.40601 -14.40545
 Alpha  occ. eigenvalues --  -14.39480 -14.39477 -14.31974 -10.44623 -10.44523
 Alpha  occ. eigenvalues --  -10.42639 -10.39632 -10.38835 -10.36174 -10.35914
 Alpha  occ. eigenvalues --  -10.35852 -10.35560 -10.35062 -10.34879 -10.34334
 Alpha  occ. eigenvalues --  -10.33782 -10.33373 -10.33212 -10.32336 -10.31567
 Alpha  occ. eigenvalues --  -10.30983 -10.30754 -10.30238 -10.29785 -10.29272
 Alpha  occ. eigenvalues --  -10.28997 -10.28534 -10.28154 -10.28025 -10.27671
 Alpha  occ. eigenvalues --  -10.27368 -10.27352 -10.27149 -10.27033 -10.26689
 Alpha  occ. eigenvalues --  -10.26521 -10.26509 -10.25804 -10.25500 -10.25447
 Alpha  occ. eigenvalues --  -10.25240 -10.25114 -10.25112 -10.25004 -10.24758
 Alpha  occ. eigenvalues --  -10.24591 -10.24528 -10.24427 -10.24402 -10.24067
 Alpha  occ. eigenvalues --  -10.23998 -10.23800 -10.23445 -10.23412 -10.23071
 Alpha  occ. eigenvalues --  -10.23024 -10.22948 -10.22703 -10.22313 -10.21460
 Alpha  occ. eigenvalues --  -10.21452 -10.21150 -10.20964 -10.20415 -10.20399
 Alpha  occ. eigenvalues --  -10.18271 -10.17307  -1.22046  -1.20324  -1.15649
 Alpha  occ. eigenvalues --   -1.14315  -1.13388  -1.13150  -1.11969  -1.11382
 Alpha  occ. eigenvalues --   -1.10964  -1.10619  -1.10089  -1.09259  -1.08716
 Alpha  occ. eigenvalues --   -1.08051  -1.07792  -1.07547  -1.07310  -1.07120
 Alpha  occ. eigenvalues --   -1.02647  -1.02567  -1.01861  -0.99826  -0.99475
 Alpha  occ. eigenvalues --   -0.99386  -0.98200  -0.97979  -0.97430  -0.97042
 Alpha  occ. eigenvalues --   -0.96767  -0.95998  -0.95449  -0.95337  -0.93670
 Alpha  occ. eigenvalues --   -0.93447  -0.91825  -0.91043  -0.89419  -0.87656
 Alpha  occ. eigenvalues --   -0.86659  -0.85652  -0.85131  -0.84654  -0.84374
 Alpha  occ. eigenvalues --   -0.83886  -0.83339  -0.82697  -0.82387  -0.82305
 Alpha  occ. eigenvalues --   -0.81979  -0.81325  -0.80978  -0.80326  -0.79661
 Alpha  occ. eigenvalues --   -0.78416  -0.78321  -0.77705  -0.77342  -0.76403
 Alpha  occ. eigenvalues --   -0.75709  -0.75605  -0.75367  -0.74225  -0.73859
 Alpha  occ. eigenvalues --   -0.72669  -0.72068  -0.71923  -0.71683  -0.71435
 Alpha  occ. eigenvalues --   -0.70739  -0.70441  -0.69906  -0.69200  -0.68969
 Alpha  occ. eigenvalues --   -0.68945  -0.68576  -0.68450  -0.68011  -0.67939
 Alpha  occ. eigenvalues --   -0.67110  -0.66850  -0.66530  -0.66067  -0.65696
 Alpha  occ. eigenvalues --   -0.64989  -0.64922  -0.64791  -0.64634  -0.64203
 Alpha  occ. eigenvalues --   -0.63970  -0.63803  -0.63349  -0.63243  -0.62908
 Alpha  occ. eigenvalues --   -0.62348  -0.61924  -0.61888  -0.61659  -0.61019
 Alpha  occ. eigenvalues --   -0.60670  -0.60623  -0.60519  -0.59884  -0.59641
 Alpha  occ. eigenvalues --   -0.59556  -0.59375  -0.59071  -0.58774  -0.58059
 Alpha  occ. eigenvalues --   -0.57682  -0.57456  -0.57429  -0.57108  -0.57037
 Alpha  occ. eigenvalues --   -0.56818  -0.56580  -0.56085  -0.55980  -0.55780
 Alpha  occ. eigenvalues --   -0.55742  -0.55391  -0.55009  -0.54815  -0.54544
 Alpha  occ. eigenvalues --   -0.54379  -0.54147  -0.54012  -0.53920  -0.53665
 Alpha  occ. eigenvalues --   -0.53039  -0.52953  -0.52884  -0.52732  -0.52686
 Alpha  occ. eigenvalues --   -0.52372  -0.52298  -0.52092  -0.51763  -0.51632
 Alpha  occ. eigenvalues --   -0.51349  -0.51336  -0.51011  -0.50909  -0.50793
 Alpha  occ. eigenvalues --   -0.50577  -0.50453  -0.50018  -0.49868  -0.49778
 Alpha  occ. eigenvalues --   -0.49742  -0.49493  -0.49401  -0.48570  -0.48445
 Alpha  occ. eigenvalues --   -0.48354  -0.48273  -0.48100  -0.47941  -0.47737
 Alpha  occ. eigenvalues --   -0.47568  -0.47412  -0.47342  -0.47109  -0.46980
 Alpha  occ. eigenvalues --   -0.46915  -0.46787  -0.46641  -0.46490  -0.46457
 Alpha  occ. eigenvalues --   -0.46269  -0.45696  -0.45555  -0.45525  -0.45363
 Alpha  occ. eigenvalues --   -0.45322  -0.44964  -0.44888  -0.44823  -0.44395
 Alpha  occ. eigenvalues --   -0.44362  -0.44246  -0.44106  -0.44048  -0.43824
 Alpha  occ. eigenvalues --   -0.43778  -0.43701  -0.43618  -0.43605  -0.43544
 Alpha  occ. eigenvalues --   -0.43337  -0.43158  -0.43070  -0.42885  -0.42711
 Alpha  occ. eigenvalues --   -0.42471  -0.42400  -0.42309  -0.42126  -0.42078
 Alpha  occ. eigenvalues --   -0.41957  -0.41899  -0.41642  -0.41516  -0.41373
 Alpha  occ. eigenvalues --   -0.41219  -0.41116  -0.41026  -0.40949  -0.40862
 Alpha  occ. eigenvalues --   -0.40574  -0.40403  -0.40212  -0.40075  -0.39881
 Alpha  occ. eigenvalues --   -0.39747  -0.39721  -0.39412  -0.39359  -0.39137
 Alpha  occ. eigenvalues --   -0.38880  -0.38785  -0.38682  -0.38381  -0.37871
 Alpha  occ. eigenvalues --   -0.37552  -0.37176  -0.36955  -0.36773  -0.36769
 Alpha  occ. eigenvalues --   -0.36194  -0.35787  -0.34707  -0.34645  -0.34326
 Alpha  occ. eigenvalues --   -0.33895  -0.33799  -0.33764  -0.33505  -0.33446
 Alpha  occ. eigenvalues --   -0.33183  -0.33024  -0.32958  -0.32846  -0.32567
 Alpha  occ. eigenvalues --   -0.32423  -0.32291  -0.32121  -0.31369  -0.31010
 Alpha  occ. eigenvalues --   -0.30679  -0.30373  -0.30088  -0.30029  -0.29617
 Alpha  occ. eigenvalues --   -0.29301  -0.29259  -0.29194  -0.28774  -0.28749
 Alpha  occ. eigenvalues --   -0.27806  -0.27446  -0.24754  -0.24009  -0.23437
 Alpha  occ. eigenvalues --   -0.23039
 Alpha virt. eigenvalues --   -0.13850  -0.12326  -0.12051  -0.08842  -0.08106
 Alpha virt. eigenvalues --   -0.07043  -0.06917  -0.06823  -0.06679  -0.06100
 Alpha virt. eigenvalues --   -0.05730  -0.05338  -0.05108  -0.04668  -0.04605

 Mulliken charges:
               1
     1  N   -0.749324
     2  H    0.423519
     3  H    0.433481
     4  H    0.420717
     5  C   -0.120012
     6  H    0.233260
     7  C    0.627891
     8  C   -0.362085
     9  H    0.215156
    10  H    0.209310
    11  O   -0.527769
    12  C    0.580032
    13  O   -0.419199
    14  O   -0.584180
    15  N   -0.582015
    16  H    0.372750
    17  C   -0.078364
    18  H    0.199795
    19  C    0.657261
    20  C   -0.347273
    21  H    0.165960
    22  H    0.172853
    23  O   -0.606289
    24  C    0.145464
    25  C   -0.188474
    26  H    0.141526
    27  C   -0.215909
    28  H    0.135139
    29  C   -0.161648
    30  H    0.160979
    31  C   -0.168454
    32  H    0.138274
    33  O   -0.634984
    34  H    0.418342
    35  C    0.377748
    36  N   -0.586708
    37  H    0.373789
    38  C   -0.054054
    39  H    0.179678
    40  C    0.628150
    41  C   -0.353820
    42  H    0.162929
    43  H    0.174066
    44  O   -0.558594
    45  C    0.152292
    46  C   -0.191047
    47  H    0.138389
    48  C   -0.208274
    49  H    0.131160
    50  C   -0.167475
    51  H    0.148171
    52  C   -0.167497
    53  H    0.136328
    54  O   -0.645687
    55  H    0.417662
    56  C    0.372714
    57  N   -0.604149
    58  H    0.366240
    59  C   -0.045921
    60  H    0.176241
    61  C    0.643895
    62  C   -0.376070
    63  H    0.208825
    64  H    0.158545
    65  O   -0.575196
    66  C    0.144550
    67  C   -0.189219
    68  H    0.158309
    69  C   -0.215146
    70  H    0.127780
    71  C   -0.121328
    72  H    0.151303
    73  C   -0.132311
    74  H    0.138905
    75  C   -0.133280
    76  H    0.143798
    77  N   -0.594234
    78  H    0.352818
    79  C   -0.080949
    80  H    0.202243
    81  C    0.636653
    82  C   -0.462882
    83  H    0.175003
    84  H    0.154301
    85  H    0.170970
    86  O   -0.551209
    87  N   -0.629921
    88  H    0.378497
    89  C   -0.048488
    90  H    0.167456
    91  C    0.639224
    92  C   -0.295071
    93  H    0.124661
    94  H    0.167044
    95  O   -0.547729
    96  C   -0.078010
    97  H    0.145572
    98  C   -0.461385
    99  H    0.115502
   100  H    0.205155
   101  H    0.115044
   102  C   -0.474409
   103  H    0.114419
   104  H    0.207006
   105  H    0.143060
   106  N   -0.610358
   107  H    0.370401
   108  C   -0.054980
   109  H    0.185582
   110  C    0.635866
   111  C   -0.467273
   112  H    0.169396
   113  H    0.169088
   114  H    0.163127
   115  O   -0.587598
   116  N   -0.584540
   117  H    0.403203
   118  C   -0.088791
   119  H    0.183537
   120  C    0.648333
   121  C   -0.440682
   122  H    0.232075
   123  H    0.191977
   124  O   -0.539864
   125  C    0.313006
   126  C   -0.102706
   127  H    0.161276
   128  N   -0.634728
   129  H    0.378615
   130  C    0.199403
   131  H    0.149042
   132  N   -0.436032
   133  N   -0.644039
   134  H    0.373527
   135  C   -0.081627
   136  H    0.191138
   137  C    0.555734
   138  C    0.161240
   139  H    0.099762
   140  O   -0.497938
   141  C   -0.455826
   142  H    0.157443
   143  H    0.165208
   144  H    0.174121
   145  O   -0.666067
   146  H    0.434923
   147  N   -0.582691
   148  H    0.341238
   149  C   -0.054899
   150  H    0.186887
   151  C    0.602946
   152  C   -0.080857
   153  H    0.139106
   154  O   -0.603047
   155  C   -0.461581
   156  H    0.151512
   157  H    0.161381
   158  H    0.155260
   159  C   -0.448068
   160  H    0.151714
   161  H    0.151389
   162  H    0.152184
   163  N   -0.615956
   164  H    0.370937
   165  C   -0.055568
   166  H    0.160565
   167  C    0.608148
   168  C   -0.275206
   169  H    0.102766
   170  H    0.185289
   171  O   -0.583449
   172  C   -0.308618
   173  H    0.177033
   174  H    0.152627
   175  C   -0.149707
   176  H    0.178140
   177  H    0.169869
   178  N   -0.608411
   179  H    0.404843
   180  N   -0.790891
   181  H    0.355344
   182  H    0.427759
   183  N   -0.788432
   184  H    0.398065
   185  H    0.380775
   186  C    0.721927
   187  O   -0.601871
   188  H    0.465809
 Sum of Mulliken charges =   1.00000

 Dipole moment (field-independent basis, Debye):
    X=            -32.7638    Y=            -13.6430    Z=            -26.8855  Tot=             44.5245
 Quadrupole moment (field-independent basis, Debye-Ang):
   XX=            -62.4635   YY=           -342.3717   ZZ=           -360.9217
   XY=            304.0958   XZ=            305.2082   YZ=            159.8524

 Normal termination of Gaussian 16 at Wed Aug 10 12:56:31 2022.
