 Gaussian 16, Revision C.01,
 Gaussian 16:  ES64L-G16RevC.01  3-Jul-2019

 ----------------------------------------------------------------------
 # B3LYP/6-31G* empiricaldispersion=gd3 guess=read geom=check nosymm in
 tegral(ultrafinegrid)
 ----------------------------------------------------------------------

 ------------------------------------------------------
 Candidate Structure: Conf:232 Charge calc in gas phase
 ------------------------------------------------------
 Structure from the checkpoint file:  "conf-232.chk"
 Charge =  1 Multiplicity = 1

                          Input orientation:
 ---------------------------------------------------------------------
 Center     Atomic      Atomic             Coordinates (Angstroms)
 Number     Number       Type             X           Y           Z
 ---------------------------------------------------------------------
      1          7           0        3.854526   -6.954993   -4.697951
      2          1           0        3.896246   -6.107428   -5.294752
      3          1           0        4.219138   -6.750182   -3.715077
      4          1           0        4.355288   -7.736628   -5.124241
      5          6           0        2.384623   -7.218030   -4.476072
      6          1           0        2.003021   -7.738677   -5.359919
      7          6           0        1.770904   -5.794713   -4.519374
      8          6           0        2.173148   -8.066614   -3.221730
      9          1           0        1.104800   -8.222100   -3.050831
     10          1           0        2.597596   -9.067646   -3.374536
     11          8           0        2.264863   -4.999550   -5.326859
     12          6           0        2.831683   -7.466473   -1.975399
     13          8           0        3.847577   -6.754445   -2.099481
     14          8           0        2.262131   -7.803210   -0.875539
     15          7           0        0.723195   -5.556804   -3.733471
     16          1           0        0.520635   -6.125925   -2.913718
     17          6           0        0.018292   -4.281336   -3.727581
     18          1           0        0.737051   -3.489602   -3.962732
     19          6           0       -0.473560   -4.097149   -2.279250
     20          6           0       -1.119284   -4.266011   -4.783800
     21          1           0       -0.650092   -4.451229   -5.756950
     22          1           0       -1.537281   -3.254081   -4.835106
     23          8           0       -0.162498   -4.908587   -1.401495
     24          6           0       -2.204934   -5.278410   -4.500169
     25          6           0       -2.063474   -6.613236   -4.908223
     26          1           0       -1.192130   -6.901848   -5.492006
     27          6           0       -3.353589   -4.926931   -3.778914
     28          1           0       -3.500622   -3.899314   -3.455981
     29          6           0       -3.020399   -7.574270   -4.599599
     30          1           0       -2.917242   -8.604788   -4.924278
     31          6           0       -4.321971   -5.879320   -3.463874
     32          1           0       -5.210243   -5.586335   -2.907439
     33          8           0       -5.063017   -8.190497   -3.592432
     34          1           0       -5.813251   -7.810535   -3.109253
     35          6           0       -4.156670   -7.208334   -3.868456
     36          7           0       -1.228557   -3.011504   -2.063824
     37          1           0       -1.578178   -2.443533   -2.828447
     38          6           0       -1.852194   -2.734295   -0.782464
     39          1           0       -2.146763   -3.687120   -0.326932
     40          6           0       -3.106920   -1.901872   -1.100510
     41          6           0       -0.846226   -2.006280    0.153870
     42          1           0       -0.650795   -1.009082   -0.243327
     43          1           0        0.090683   -2.568337    0.088789
     44          8           0       -3.413544   -1.621351   -2.259663
     45          6           0       -1.273816   -1.917927    1.600544
     46          6           0       -1.590574   -0.682139    2.188493
     47          1           0       -1.539013    0.212594    1.578563
     48          6           0       -1.360963   -3.066283    2.396654
     49          1           0       -1.108656   -4.034407    1.968264
     50          6           0       -1.982077   -0.591660    3.520028
     51          1           0       -2.213876    0.365807    3.974922
     52          6           0       -1.751533   -2.991966    3.734949
     53          1           0       -1.811359   -3.896060    4.338299
     54          8           0       -2.450434   -1.601890    5.603240
     55          1           0       -2.475899   -2.471186    6.032342
     56          6           0       -2.062588   -1.750923    4.301471
     57          7           0       -3.834281   -1.495654   -0.025651
     58          1           0       -3.385658   -1.622317    0.875546
     59          6           0       -4.660105   -0.303966   -0.133284
     60          1           0       -5.469242   -0.492122   -0.846100
     61          6           0       -3.802310    0.875400   -0.667620
     62          6           0       -5.261460    0.000239    1.267174
     63          1           0       -5.830138   -0.886769    1.571026
     64          1           0       -4.435760    0.114065    1.979896
     65          8           0       -2.568591    0.841269   -0.635370
     66          6           0       -6.135478    1.232191    1.279238
     67          6           0       -5.634332    2.455374    1.740688
     68          1           0       -4.632912    2.495483    2.161533
     69          6           0       -7.416274    1.200871    0.709080
     70          1           0       -7.820976    0.256438    0.350495
     71          6           0       -6.376027    3.629387    1.611151
     72          1           0       -5.945013    4.573331    1.926649
     73          6           0       -8.168017    2.371631    0.586447
     74          1           0       -9.158446    2.333303    0.141122
     75          6           0       -7.645251    3.589537    1.029885
     76          1           0       -8.222884    4.502821    0.920145
     77          7           0       -4.503453    1.921705   -1.154161
     78          1           0       -5.506608    1.932513   -1.016098
     79          6           0       -3.891564    3.177484   -1.603558
     80          1           0       -3.034305    2.902429   -2.227801
     81          6           0       -3.372795    4.012312   -0.400585
     82          6           0       -4.911974    3.974991   -2.407022
     83          1           0       -4.458573    4.893990   -2.786315
     84          1           0       -5.278042    3.383184   -3.251736
     85          1           0       -5.751246    4.265065   -1.767108
     86          8           0       -3.964113    5.005466    0.013214
     87          7           0       -2.216513    3.537271    0.128486
     88          1           0       -1.822723    2.680677   -0.251775
     89          6           0       -1.499713    4.191348    1.203894
     90          1           0       -2.046953    5.109079    1.432063
     91          6           0       -0.082521    4.496930    0.704487
     92          6           0       -1.414009    3.279930    2.449556
     93          1           0       -2.441129    3.029057    2.747466
     94          1           0       -0.931516    2.344821    2.142483
     95          8           0        0.555056    3.666754    0.053067
     96          6           0       -0.657827    3.864114    3.657623
     97          1           0        0.336621    4.190486    3.323448
     98          6           0       -1.374027    5.082832    4.257242
     99          1           0       -2.376618    4.808476    4.609469
    100          1           0       -0.814580    5.483297    5.109492
    101          1           0       -1.496920    5.899057    3.534890
    102          6           0       -0.454914    2.775563    4.721221
    103          1           0       -1.419749    2.424964    5.110464
    104          1           0        0.122370    3.159570    5.570315
    105          1           0        0.076031    1.910931    4.306942
    106          7           0        0.433095    5.704271    1.046792
    107          1           0       -0.077138    6.291927    1.693200
    108          6           0        1.845558    6.018688    0.817462
    109          1           0        2.085657    5.667696   -0.189943
    110          6           0        2.686679    5.253177    1.860600
    111          6           0        2.078718    7.520949    0.938258
    112          1           0        3.116968    7.762843    0.692430
    113          1           0        1.897239    7.847548    1.966837
    114          1           0        1.420961    8.066023    0.254487
    115          8           0        2.819012    5.670885    3.009651
    116          7           0        3.239977    4.090794    1.428871
    117          1           0        2.958322    3.683308    0.543597
    118          6           0        4.005261    3.265793    2.336334
    119          1           0        4.650286    3.930254    2.922306
    120          6           0        4.831228    2.272268    1.521436
    121          6           0        3.108778    2.467676    3.339217
    122          1           0        2.348010    3.161134    3.707135
    123          1           0        3.719230    2.192805    4.207467
    124          8           0        4.612003    2.055031    0.330156
    125          6           0        2.507069    1.231166    2.745702
    126          6           0        1.630555    1.008872    1.704734
    127          1           0        1.122858    1.743592    1.095661
    128          7           0        2.894575   -0.037558    3.150557
    129          1           0        3.660988   -0.255922    3.771916
    130          6           0        2.254119   -0.940563    2.356952
    131          1           0        2.382576   -2.006329    2.480971
    132          7           0        1.481982   -0.344391    1.472950
    133          7           0        5.730279    1.553385    2.246625
    134          1           0        6.103145    1.925542    3.112342
    135          6           0        6.490353    0.479989    1.623100
    136          1           0        6.858578    0.828526    0.648881
    137          6           0        5.584145   -0.756655    1.413421
    138          6           0        7.681105    0.082994    2.519771
    139          1           0        7.277806   -0.479136    3.366138
    140          8           0        5.455452   -1.615311    2.294506
    141          6           0        8.676104   -0.780162    1.747927
    142          1           0        8.175788   -1.635752    1.280879
    143          1           0        9.147877   -0.195679    0.946534
    144          1           0        9.464137   -1.138234    2.417410
    145          8           0        8.289836    1.234122    3.105425
    146          1           0        8.757135    1.718046    2.404104
    147          7           0        4.995390   -0.832838    0.206027
    148          1           0        5.001455   -0.002854   -0.373747
    149          6           0        4.307417   -2.035958   -0.232589
    150          1           0        3.413262   -2.186893    0.382250
    151          6           0        5.276925   -3.210817   -0.000434
    152          6           0        3.857433   -1.907750   -1.705878
    153          1           0        4.756683   -1.685967   -2.298415
    154          8           0        6.488890   -3.118456   -0.200073
    155          6           0        3.255837   -3.227601   -2.218064
    156          1           0        2.351247   -3.496708   -1.656271
    157          1           0        3.949393   -4.069604   -2.134828
    158          1           0        2.978034   -3.126396   -3.273216
    159          6           0        2.839639   -0.763668   -1.860134
    160          1           0        1.957899   -0.947835   -1.235733
    161          1           0        2.519235   -0.681418   -2.905059
    162          1           0        3.240010    0.210731   -1.560207
    163          7           0        4.697105   -4.343118    0.453205
    164          1           0        3.699206   -4.420328    0.603948
    165          6           0        5.501409   -5.451600    0.916446
    166          1           0        6.336611   -5.548565    0.219291
    167          6           0        4.685283   -6.752793    0.823384
    168          6           0        6.058020   -5.174229    2.352302
    169          1           0        5.437359   -4.389316    2.791400
    170          1           0        5.913840   -6.060809    2.979533
    171          8           0        5.299077   -7.837041    0.659989
    172          6           0        7.540787   -4.721245    2.364482
    173          1           0        7.593551   -3.655516    2.607584
    174          1           0        7.952133   -4.782346    1.353150
    175          6           0        8.465921   -5.441282    3.370189
    176          1           0        8.295876   -5.046565    4.376224
    177          1           0        9.514584   -5.241238    3.122659
    178          7           0        8.261301   -6.907850    3.511547
    179          1           0        8.254457   -7.260436    4.459780
    180          7           0        7.875693   -7.535308    1.282590
    181          1           0        7.006546   -7.708040    0.721010
    182          1           0        8.506525   -6.808106    0.977922
    183          7           0        6.956180   -8.764488    2.995444
    184          1           0        6.434242   -9.238670    2.264217
    185          1           0        6.453321   -8.678310    3.869239
    186          6           0        7.703093   -7.711403    2.592436
    187          8           0        3.423552   -6.616814    0.912685
    188          1           0        2.775245   -7.361497   -0.003132
 ---------------------------------------------------------------------

 SCF Done:  E(RB3LYP) =  -4648.78691970     A.U. after    3 cycles

 Alpha  occ. eigenvalues --  -19.24294 -19.23208 -19.22926 -19.22742 -19.22610
 Alpha  occ. eigenvalues --  -19.21835 -19.18952 -19.18941 -19.18665 -19.18499
 Alpha  occ. eigenvalues --  -19.18147 -19.17898 -19.17641 -19.17298 -19.16874
 Alpha  occ. eigenvalues --  -19.16424 -19.15541 -14.54797 -14.48940 -14.48011
 Alpha  occ. eigenvalues --  -14.46437 -14.45954 -14.43401 -14.42879 -14.42376
 Alpha  occ. eigenvalues --  -14.42102 -14.41697 -14.41590 -14.41267 -14.41240
 Alpha  occ. eigenvalues --  -14.40909 -14.39577 -14.35721 -10.44187 -10.40892
 Alpha  occ. eigenvalues --  -10.39930 -10.37518 -10.36246 -10.35896 -10.35627
 Alpha  occ. eigenvalues --  -10.34817 -10.34726 -10.34407 -10.34120 -10.34001
 Alpha  occ. eigenvalues --  -10.33462 -10.33378 -10.32698 -10.31487 -10.31356
 Alpha  occ. eigenvalues --  -10.30602 -10.30502 -10.30082 -10.29574 -10.29562
 Alpha  occ. eigenvalues --  -10.29512 -10.29348 -10.29199 -10.28655 -10.28576
 Alpha  occ. eigenvalues --  -10.28239 -10.28205 -10.27934 -10.27540 -10.26668
 Alpha  occ. eigenvalues --  -10.26528 -10.26440 -10.25854 -10.25566 -10.25508
 Alpha  occ. eigenvalues --  -10.25042 -10.24942 -10.24924 -10.24513 -10.24417
 Alpha  occ. eigenvalues --  -10.24286 -10.24182 -10.24179 -10.24110 -10.24082
 Alpha  occ. eigenvalues --  -10.24055 -10.23933 -10.23789 -10.23698 -10.23684
 Alpha  occ. eigenvalues --  -10.23597 -10.23539 -10.23539 -10.23499 -10.23456
 Alpha  occ. eigenvalues --  -10.23438 -10.23269 -10.23201 -10.22507 -10.22210
 Alpha  occ. eigenvalues --  -10.22159 -10.21677  -1.17415  -1.15039  -1.13082
 Alpha  occ. eigenvalues --   -1.11892  -1.11285  -1.11053  -1.11000  -1.10951
 Alpha  occ. eigenvalues --   -1.10243  -1.09982  -1.09808  -1.09429  -1.09082
 Alpha  occ. eigenvalues --   -1.08928  -1.08322  -1.08170  -1.08017  -1.07189
 Alpha  occ. eigenvalues --   -1.05616  -1.03389  -1.02673  -1.02343  -1.00535
 Alpha  occ. eigenvalues --   -0.99364  -0.99250  -0.98528  -0.98339  -0.98231
 Alpha  occ. eigenvalues --   -0.98160  -0.98119  -0.97587  -0.96518  -0.91339
 Alpha  occ. eigenvalues --   -0.91308  -0.90744  -0.90384  -0.90320  -0.87999
 Alpha  occ. eigenvalues --   -0.86568  -0.86337  -0.86152  -0.85400  -0.85056
 Alpha  occ. eigenvalues --   -0.83692  -0.83199  -0.82573  -0.82558  -0.81754
 Alpha  occ. eigenvalues --   -0.80770  -0.80370  -0.79799  -0.79431  -0.79300
 Alpha  occ. eigenvalues --   -0.79065  -0.78738  -0.78394  -0.77970  -0.76945
 Alpha  occ. eigenvalues --   -0.76655  -0.74964  -0.73875  -0.73287  -0.73065
 Alpha  occ. eigenvalues --   -0.72945  -0.72400  -0.71924  -0.71324  -0.70937
 Alpha  occ. eigenvalues --   -0.70627  -0.70409  -0.69716  -0.69590  -0.68733
 Alpha  occ. eigenvalues --   -0.68576  -0.68318  -0.68055  -0.67585  -0.67239
 Alpha  occ. eigenvalues --   -0.66636  -0.66352  -0.65726  -0.65633  -0.65559
 Alpha  occ. eigenvalues --   -0.65397  -0.65049  -0.64983  -0.64385  -0.64234
 Alpha  occ. eigenvalues --   -0.64147  -0.63705  -0.63601  -0.63469  -0.63208
 Alpha  occ. eigenvalues --   -0.62992  -0.62662  -0.62450  -0.62307  -0.62066
 Alpha  occ. eigenvalues --   -0.61599  -0.61266  -0.60324  -0.60305  -0.60069
 Alpha  occ. eigenvalues --   -0.59836  -0.59423  -0.59073  -0.58354  -0.58174
 Alpha  occ. eigenvalues --   -0.57854  -0.57637  -0.57408  -0.57320  -0.56690
 Alpha  occ. eigenvalues --   -0.56494  -0.56202  -0.55904  -0.55874  -0.55484
 Alpha  occ. eigenvalues --   -0.55255  -0.55112  -0.54743  -0.54486  -0.54299
 Alpha  occ. eigenvalues --   -0.53990  -0.53874  -0.53609  -0.52982  -0.52872
 Alpha  occ. eigenvalues --   -0.52714  -0.52623  -0.52363  -0.52199  -0.52109
 Alpha  occ. eigenvalues --   -0.52039  -0.51900  -0.51796  -0.51533  -0.51492
 Alpha  occ. eigenvalues --   -0.51300  -0.51025  -0.50928  -0.50665  -0.50505
 Alpha  occ. eigenvalues --   -0.50421  -0.50236  -0.49798  -0.49641  -0.49624
 Alpha  occ. eigenvalues --   -0.49431  -0.49284  -0.49072  -0.48908  -0.48783
 Alpha  occ. eigenvalues --   -0.48622  -0.48527  -0.48394  -0.48305  -0.48224
 Alpha  occ. eigenvalues --   -0.47965  -0.47859  -0.47587  -0.47290  -0.47221
 Alpha  occ. eigenvalues --   -0.47187  -0.47016  -0.46860  -0.46766  -0.46692
 Alpha  occ. eigenvalues --   -0.46634  -0.46550  -0.46423  -0.46311  -0.46061
 Alpha  occ. eigenvalues --   -0.45887  -0.45701  -0.45635  -0.45510  -0.45292
 Alpha  occ. eigenvalues --   -0.45045  -0.45010  -0.44510  -0.44485  -0.44405
 Alpha  occ. eigenvalues --   -0.44297  -0.44221  -0.44105  -0.43987  -0.43894
 Alpha  occ. eigenvalues --   -0.43843  -0.43610  -0.43529  -0.43429  -0.43345
 Alpha  occ. eigenvalues --   -0.43138  -0.43084  -0.43031  -0.42972  -0.42855
 Alpha  occ. eigenvalues --   -0.42813  -0.42517  -0.42480  -0.42013  -0.41844
 Alpha  occ. eigenvalues --   -0.41674  -0.41594  -0.41119  -0.41033  -0.41015
 Alpha  occ. eigenvalues --   -0.40784  -0.40593  -0.40491  -0.40152  -0.40006
 Alpha  occ. eigenvalues --   -0.39754  -0.39557  -0.39493  -0.39342  -0.39198
 Alpha  occ. eigenvalues --   -0.39034  -0.39022  -0.38796  -0.38566  -0.38484
 Alpha  occ. eigenvalues --   -0.38411  -0.38307  -0.37884  -0.37765  -0.37583
 Alpha  occ. eigenvalues --   -0.37390  -0.37223  -0.37123  -0.36477  -0.35695
 Alpha  occ. eigenvalues --   -0.34982  -0.34246  -0.33815  -0.33457  -0.33376
 Alpha  occ. eigenvalues --   -0.33318  -0.33126  -0.33101  -0.32968  -0.32668
 Alpha  occ. eigenvalues --   -0.32475  -0.32270  -0.31771  -0.31665  -0.31597
 Alpha  occ. eigenvalues --   -0.31253  -0.31070  -0.30919  -0.30770  -0.30749
 Alpha  occ. eigenvalues --   -0.30318  -0.30071  -0.30042  -0.29864  -0.29431
 Alpha  occ. eigenvalues --   -0.29087  -0.28659  -0.28214  -0.27372  -0.26756
 Alpha  occ. eigenvalues --   -0.26328
 Alpha virt. eigenvalues --   -0.10333  -0.09696  -0.07633  -0.06013  -0.05807
 Alpha virt. eigenvalues --   -0.05536  -0.05366  -0.05274  -0.05255  -0.05119
 Alpha virt. eigenvalues --   -0.04951  -0.04821  -0.04737  -0.04444  -0.04324

 Mulliken charges:
               1
     1  N   -0.756310
     2  H    0.416151
     3  H    0.439804
     4  H    0.393955
     5  C   -0.121816
     6  H    0.220940
     7  C    0.664228
     8  C   -0.410592
     9  H    0.222214
    10  H    0.202156
    11  O   -0.547001
    12  C    0.655320
    13  O   -0.549912
    14  O   -0.572007
    15  N   -0.608024
    16  H    0.380801
    17  C   -0.059113
    18  H    0.204301
    19  C    0.638315
    20  C   -0.383628
    21  H    0.174416
    22  H    0.169649
    23  O   -0.555857
    24  C    0.162464
    25  C   -0.188353
    26  H    0.104884
    27  C   -0.202613
    28  H    0.165139
    29  C   -0.157983
    30  H    0.141339
    31  C   -0.196598
    32  H    0.129687
    33  O   -0.637108
    34  H    0.412661
    35  C    0.354899
    36  N   -0.613489
    37  H    0.361853
    38  C   -0.075360
    39  H    0.187891
    40  C    0.639743
    41  C   -0.331242
    42  H    0.198068
    43  H    0.171518
    44  O   -0.542724
    45  C    0.116230
    46  C   -0.200591
    47  H    0.173658
    48  C   -0.197970
    49  H    0.145904
    50  C   -0.171269
    51  H    0.147274
    52  C   -0.194854
    53  H    0.122954
    54  O   -0.638974
    55  H    0.409638
    56  C    0.347534
    57  N   -0.611678
    58  H    0.357291
    59  C   -0.054058
    60  H    0.180609
    61  C    0.646783
    62  C   -0.390270
    63  H    0.172001
    64  H    0.171179
    65  O   -0.556688
    66  C    0.135162
    67  C   -0.186295
    68  H    0.144004
    69  C   -0.201594
    70  H    0.131330
    71  C   -0.114493
    72  H    0.159691
    73  C   -0.129879
    74  H    0.142240
    75  C   -0.138905
    76  H    0.145148
    77  N   -0.594053
    78  H    0.353338
    79  C   -0.051169
    80  H    0.177186
    81  C    0.621648
    82  C   -0.470795
    83  H    0.172744
    84  H    0.154123
    85  H    0.176979
    86  O   -0.534142
    87  N   -0.610116
    88  H    0.377087
    89  C   -0.072168
    90  H    0.176305
    91  C    0.631914
    92  C   -0.289864
    93  H    0.152106
    94  H    0.167559
    95  O   -0.541665
    96  C   -0.106596
    97  H    0.147772
    98  C   -0.447493
    99  H    0.148635
   100  H    0.158618
   101  H    0.129181
   102  C   -0.461834
   103  H    0.145549
   104  H    0.145750
   105  H    0.162473
   106  N   -0.589862
   107  H    0.345923
   108  C   -0.043958
   109  H    0.173153
   110  C    0.631009
   111  C   -0.474733
   112  H    0.168969
   113  H    0.178905
   114  H    0.163217
   115  O   -0.545319
   116  N   -0.600358
   117  H    0.370904
   118  C   -0.046809
   119  H    0.180362
   120  C    0.634807
   121  C   -0.367107
   122  H    0.212574
   123  H    0.141209
   124  O   -0.539154
   125  C    0.287414
   126  C   -0.090819
   127  H    0.187421
   128  N   -0.591764
   129  H    0.337915
   130  C    0.218951
   131  H    0.154275
   132  N   -0.450042
   133  N   -0.623150
   134  H    0.349063
   135  C   -0.064611
   136  H    0.156683
   137  C    0.673945
   138  C    0.111325
   139  H    0.165085
   140  O   -0.587302
   141  C   -0.494612
   142  H    0.201551
   143  H    0.141597
   144  H    0.155943
   145  O   -0.628009
   146  H    0.394934
   147  N   -0.617664
   148  H    0.369341
   149  C    0.005929
   150  H    0.160838
   151  C    0.636231
   152  C   -0.112483
   153  H    0.141884
   154  O   -0.564448
   155  C   -0.507832
   156  H    0.156370
   157  H    0.167105
   158  H    0.154713
   159  C   -0.474989
   160  H    0.184732
   161  H    0.140386
   162  H    0.167862
   163  N   -0.606449
   164  H    0.350016
   165  C   -0.027881
   166  H    0.155150
   167  C    0.634980
   168  C   -0.290870
   169  H    0.197718
   170  H    0.126250
   171  O   -0.602590
   172  C   -0.309842
   173  H    0.201088
   174  H    0.164798
   175  C   -0.159312
   176  H    0.179386
   177  H    0.184768
   178  N   -0.588333
   179  H    0.355658
   180  N   -0.729831
   181  H    0.407717
   182  H    0.359857
   183  N   -0.720613
   184  H    0.389954
   185  H    0.359420
   186  C    0.716105
   187  O   -0.624076
   188  H    0.486584
 Sum of Mulliken charges =   1.00000

 Dipole moment (field-independent basis, Debye):
    X=             19.2733    Y=            -26.0509    Z=              0.3583  Tot=             32.4073
 Quadrupole moment (field-independent basis, Debye-Ang):
   XX=           -338.3794   YY=           -330.0671   ZZ=           -463.6588
   XY=           -144.0494   XZ=             26.7532   YZ=             16.2169

 Normal termination of Gaussian 16 at Wed Aug 10 12:58:55 2022.
