 Gaussian 16, Revision C.01,
 Gaussian 16:  ES64L-G16RevC.01  3-Jul-2019

 ----------------------------------------------------------------------
 # B3LYP/6-31G* empiricaldispersion=gd3 guess=read geom=check nosymm in
 tegral(ultrafinegrid)
 ----------------------------------------------------------------------

 ------------------------------------------------------
 Candidate Structure: Conf:306 Charge calc in gas phase
 ------------------------------------------------------
 Structure from the checkpoint file:  "conf-306.chk"
 Charge =  1 Multiplicity = 1

                          Input orientation:
 ---------------------------------------------------------------------
 Center     Atomic      Atomic             Coordinates (Angstroms)
 Number     Number       Type             X           Y           Z
 ---------------------------------------------------------------------
      1          7           0      -11.845463   -3.594345   -7.070462
      2          1           0      -12.750004   -3.637622   -7.543508
      3          1           0      -11.649953   -2.635037   -6.692507
      4          1           0      -11.074189   -3.776616   -7.759575
      5          6           0      -11.767689   -4.473666   -5.844167
      6          1           0      -12.779712   -4.770908   -5.559973
      7          6           0      -11.149296   -3.531985   -4.766903
      8          6           0      -10.912947   -5.718501   -6.142587
      9          1           0      -11.250807   -6.187234   -7.076213
     10          1           0       -9.859031   -5.455882   -6.253178
     11          8           0      -10.808869   -2.398952   -5.123555
     12          6           0      -11.048699   -6.744047   -5.034011
     13          8           0      -11.922570   -6.696804   -4.184582
     14          8           0      -10.121477   -7.694077   -5.102645
     15          7           0      -10.998761   -4.015307   -3.522467
     16          1           0      -11.258690   -4.988174   -3.388867
     17          6           0       -9.861842   -3.548487   -2.729743
     18          1           0       -9.881338   -2.455744   -2.714568
     19          6           0       -8.586396   -4.056380   -3.447267
     20          6           0       -9.917851   -4.105003   -1.279554
     21          1           0      -10.913513   -3.889135   -0.876442
     22          1           0       -9.202827   -3.533972   -0.677367
     23          8           0       -8.653222   -4.944251   -4.293408
     24          6           0       -9.596853   -5.583159   -1.206479
     25          6           0      -10.582946   -6.553992   -1.422909
     26          1           0      -11.623076   -6.258463   -1.530880
     27          6           0       -8.276147   -6.016615   -1.016804
     28          1           0       -7.494980   -5.286382   -0.818501
     29          6           0      -10.264546   -7.908057   -1.503823
     30          1           0      -11.035164   -8.657203   -1.657465
     31          6           0       -7.942139   -7.366925   -1.084178
     32          1           0       -6.912348   -7.683151   -0.930259
     33          8           0       -8.682372   -9.654331   -1.455609
     34          1           0       -7.751553   -9.832037   -1.248175
     35          6           0       -8.936270   -8.319602   -1.344812
     36          7           0       -7.421851   -3.493437   -3.055378
     37          1           0       -7.383714   -2.887280   -2.241165
     38          6           0       -6.141872   -4.055100   -3.448538
     39          1           0       -6.303293   -5.108719   -3.701380
     40          6           0       -5.211732   -3.940176   -2.230974
     41          6           0       -5.540624   -3.328500   -4.690501
     42          1           0       -4.589808   -3.806424   -4.955276
     43          1           0       -5.312699   -2.293715   -4.410255
     44          8           0       -5.538690   -3.256939   -1.253127
     45          6           0       -6.498865   -3.370218   -5.858002
     46          6           0       -6.615166   -4.524242   -6.643303
     47          1           0       -5.942301   -5.361039   -6.474871
     48          6           0       -7.373729   -2.305213   -6.095751
     49          1           0       -7.300649   -1.402626   -5.496475
     50          6           0       -7.606334   -4.636066   -7.615953
     51          1           0       -7.712380   -5.532620   -8.218059
     52          6           0       -8.374502   -2.401647   -7.062218
     53          1           0       -9.073415   -1.584927   -7.213309
     54          8           0       -9.569563   -3.754333   -8.692971
     55          1           0       -9.499856   -3.110651   -9.417641
     56          6           0       -8.489596   -3.575366   -7.800199
     57          7           0       -4.040895   -4.604920   -2.307336
     58          1           0       -3.797756   -5.089568   -3.161785
     59          6           0       -3.002257   -4.510160   -1.267693
     60          1           0       -3.527811   -4.413318   -0.312939
     61          6           0       -2.163989   -3.233555   -1.514795
     62          6           0       -2.136627   -5.776430   -1.265926
     63          1           0       -2.814017   -6.639247   -1.296979
     64          1           0       -1.532255   -5.788432   -2.179196
     65          8           0       -1.009047   -3.280256   -1.940609
     66          6           0       -1.240490   -5.872544   -0.047656
     67          6           0        0.127920   -5.591071   -0.132465
     68          1           0        0.546591   -5.271526   -1.081397
     69          6           0       -1.779641   -6.248085    1.189897
     70          1           0       -2.842101   -6.473282    1.267748
     71          6           0        0.943551   -5.700839    0.994511
     72          1           0        2.004099   -5.480823    0.914563
     73          6           0       -0.968456   -6.348334    2.320339
     74          1           0       -1.400201   -6.641994    3.273033
     75          6           0        0.398710   -6.079961    2.222684
     76          1           0        1.033983   -6.159870    3.099842
     77          7           0       -2.826541   -2.078449   -1.278825
     78          1           0       -3.766947   -2.123645   -0.899037
     79          6           0       -2.265044   -0.764018   -1.602512
     80          1           0       -1.579533   -0.920022   -2.443212
     81          6           0       -1.441914   -0.224787   -0.410903
     82          6           0       -3.377845    0.203435   -1.989846
     83          1           0       -2.955435    1.174576   -2.257351
     84          1           0       -3.940566   -0.190173   -2.843445
     85          1           0       -4.057668    0.367973   -1.148456
     86          8           0       -1.781138    0.795094    0.195037
     87          7           0       -0.351913   -0.958067   -0.098710
     88          1           0       -0.139605   -1.770945   -0.670849
     89          6           0        0.428728   -0.753183    1.130011
     90          1           0       -0.273266   -0.423684    1.906774
     91          6           0        1.469355    0.379884    0.950002
     92          6           0        1.114101   -2.062049    1.538144
     93          1           0        0.446296   -2.899069    1.300620
     94          1           0        2.014351   -2.178122    0.925172
     95          8           0        2.673937    0.199489    1.162309
     96          6           0        1.481612   -2.118901    3.037719
     97          1           0        1.760241   -1.107719    3.358871
     98          6           0        0.278302   -2.581183    3.872006
     99          1           0       -0.047080   -3.580933    3.557127
    100          1           0        0.537338   -2.628519    4.935518
    101          1           0       -0.565776   -1.890208    3.779927
    102          6           0        2.695595   -3.028495    3.262920
    103          1           0        2.489139   -4.052133    2.925857
    104          1           0        2.959052   -3.076473    4.326350
    105          1           0        3.567822   -2.658150    2.712505
    106          7           0        0.962019    1.567935    0.550547
    107          1           0       -0.051141    1.660198    0.483474
    108          6           0        1.810438    2.714739    0.214445
    109          1           0        2.742129    2.306255   -0.193798
    110          6           0        2.173051    3.503168    1.487242
    111          6           0        1.133986    3.614931   -0.811381
    112          1           0        1.801301    4.443526   -1.061226
    113          1           0        0.212878    4.042844   -0.404398
    114          1           0        0.902354    3.047252   -1.718237
    115          8           0        1.803184    4.663646    1.677041
    116          7           0        2.919747    2.808062    2.378310
    117          1           0        3.167269    1.845586    2.150279
    118          6           0        3.241621    3.344446    3.699175
    119          1           0        2.422805    4.017957    3.978532
    120          6           0        4.540958    4.171089    3.601971
    121          6           0        3.367265    2.220665    4.725562
    122          1           0        3.720313    2.664330    5.664192
    123          1           0        4.168373    1.538241    4.409057
    124          8           0        5.578521    3.852008    4.185382
    125          6           0        2.077167    1.487156    4.935407
    126          6           0        0.858975    1.487338    4.290502
    127          1           0        0.570566    2.064125    3.424479
    128          7           0        1.915645    0.577568    5.966692
    129          1           0        2.613556    0.343230    6.658599
    130          6           0        0.638798    0.091501    5.900245
    131          1           0        0.260387   -0.639397    6.601730
    132          7           0       -0.026298    0.616409    4.894777
    133          7           0        4.435591    5.241543    2.780106
    134          1           0        3.546545    5.385244    2.302195
    135          6           0        5.613274    5.913416    2.238733
    136          1           0        6.439931    5.189518    2.263023
    137          6           0        5.981622    7.109334    3.144025
    138          6           0        5.338733    6.332735    0.782430
    139          1           0        4.568783    7.109836    0.789167
    140          8           0        5.808557    8.275451    2.795096
    141          6           0        6.591585    6.863881    0.093005
    142          1           0        6.956863    7.758579    0.602820
    143          1           0        7.387826    6.106302    0.096841
    144          1           0        6.360574    7.112953   -0.946971
    145          8           0        4.758480    5.241687    0.054512
    146          1           0        5.423924    4.534928    0.019230
    147          7           0        6.466360    6.732629    4.352456
    148          1           0        6.526415    5.741580    4.580949
    149          6           0        6.697070    7.679311    5.432258
    150          1           0        6.778410    8.669720    4.973277
    151          6           0        8.002205    7.264613    6.120763
    152          6           0        5.535219    7.687888    6.463403
    153          1           0        5.520613    6.687906    6.919356
    154          8           0        8.187494    6.097216    6.462441
    155          6           0        5.792716    8.725386    7.566190
    156          1           0        5.859140    9.735905    7.141737
    157          1           0        6.721367    8.528437    8.111302
    158          1           0        4.971643    8.724893    8.291558
    159          6           0        4.186045    7.940846    5.777498
    160          1           0        4.187506    8.902086    5.250906
    161          1           0        3.380382    7.958346    6.520764
    162          1           0        3.952777    7.161655    5.045552
    163          7           0        8.896019    8.255698    6.350917
    164          1           0        8.739502    9.200578    6.020636
    165          6           0       10.151125    8.023924    7.042364
    166          1           0        9.973648    7.361712    7.893791
    167          6           0       10.691904    9.358725    7.534037
    168          6           0       11.194462    7.352061    6.097340
    169          1           0       10.834975    6.333128    5.928008
    170          1           0       11.144460    7.871850    5.131297
    171          8           0       11.487840    9.199213    8.583826
    172          6           0       12.647965    7.351216    6.615033
    173          1           0       13.175741    6.473023    6.220571
    174          1           0       12.660961    7.270887    7.705672
    175          6           0       13.414886    8.621665    6.187743
    176          1           0       12.807534    9.519858    6.301580
    177          1           0       13.656904    8.549090    5.119135
    178          7           0       14.656625    8.854335    6.916633
    179          1           0       15.339815    8.108891    6.895690
    180          7           0       13.805710   10.440704    8.413653
    181          1           0       14.113804   11.169641    9.052879
    182          1           0       12.257746    9.877383    8.571539
    183          7           0       16.109484    9.812098    8.418617
    184          1           0       16.275460   10.515738    9.126260
    185          1           0       16.831055    9.803302    7.706702
    186          6           0       14.798488    9.750632    7.943617
    187          8           0       10.483073   10.406062    6.944515
    188          1           0      -10.217898   -8.261074   -4.309987
 ---------------------------------------------------------------------

 SCF Done:  E(RB3LYP) =  -4648.74391380     A.U. after    3 cycles

 Alpha  occ. eigenvalues --  -19.31064 -19.31040 -19.26491 -19.26376 -19.25924
 Alpha  occ. eigenvalues --  -19.23233 -19.22424 -19.19939 -19.17653 -19.17366
 Alpha  occ. eigenvalues --  -19.17239 -19.16117 -19.15049 -19.14597 -19.14172
 Alpha  occ. eigenvalues --  -19.12592 -19.12327 -14.57799 -14.47880 -14.47455
 Alpha  occ. eigenvalues --  -14.46568 -14.43783 -14.42138 -14.41327 -14.39613
 Alpha  occ. eigenvalues --  -14.38891 -14.38811 -14.38634 -14.37831 -14.37244
 Alpha  occ. eigenvalues --  -14.36408 -14.34087 -14.33262 -10.44600 -10.42918
 Alpha  occ. eigenvalues --  -10.40124 -10.40014 -10.39391 -10.36861 -10.35720
 Alpha  occ. eigenvalues --  -10.34644 -10.34547 -10.34469 -10.34002 -10.33722
 Alpha  occ. eigenvalues --  -10.32914 -10.32804 -10.32549 -10.32085 -10.31758
 Alpha  occ. eigenvalues --  -10.31228 -10.30434 -10.30305 -10.30101 -10.29958
 Alpha  occ. eigenvalues --  -10.29902 -10.29797 -10.29700 -10.29585 -10.29558
 Alpha  occ. eigenvalues --  -10.29536 -10.28349 -10.28212 -10.28120 -10.27985
 Alpha  occ. eigenvalues --  -10.27541 -10.27392 -10.27258 -10.26876 -10.26827
 Alpha  occ. eigenvalues --  -10.26715 -10.26078 -10.25838 -10.25068 -10.25052
 Alpha  occ. eigenvalues --  -10.24911 -10.24879 -10.24605 -10.24556 -10.24361
 Alpha  occ. eigenvalues --  -10.24325 -10.24284 -10.24275 -10.23871 -10.23492
 Alpha  occ. eigenvalues --  -10.22236 -10.21803 -10.21629 -10.21194 -10.20738
 Alpha  occ. eigenvalues --  -10.20622 -10.20501 -10.20254 -10.19710 -10.19491
 Alpha  occ. eigenvalues --  -10.18692 -10.18139  -1.22496  -1.18639  -1.17686
 Alpha  occ. eigenvalues --   -1.15297  -1.14611  -1.14334  -1.13567  -1.12269
 Alpha  occ. eigenvalues --   -1.11692  -1.09461  -1.09360  -1.07788  -1.06914
 Alpha  occ. eigenvalues --   -1.06063  -1.05276  -1.04728  -1.04406  -1.04117
 Alpha  occ. eigenvalues --   -1.03920  -1.03628  -1.03298  -1.01768  -1.01041
 Alpha  occ. eigenvalues --   -1.00252  -0.97746  -0.96357  -0.96331  -0.95623
 Alpha  occ. eigenvalues --   -0.94672  -0.94429  -0.93670  -0.93100  -0.93041
 Alpha  occ. eigenvalues --   -0.92482  -0.91646  -0.90380  -0.89854  -0.88544
 Alpha  occ. eigenvalues --   -0.88356  -0.87212  -0.85520  -0.84919  -0.84272
 Alpha  occ. eigenvalues --   -0.83800  -0.83644  -0.83591  -0.83108  -0.81984
 Alpha  occ. eigenvalues --   -0.81670  -0.81016  -0.80719  -0.79969  -0.79920
 Alpha  occ. eigenvalues --   -0.79606  -0.78060  -0.77116  -0.76300  -0.76138
 Alpha  occ. eigenvalues --   -0.75376  -0.73929  -0.73697  -0.73634  -0.73420
 Alpha  occ. eigenvalues --   -0.72471  -0.72189  -0.71366  -0.71280  -0.70926
 Alpha  occ. eigenvalues --   -0.70809  -0.70383  -0.70220  -0.70062  -0.69362
 Alpha  occ. eigenvalues --   -0.69187  -0.68959  -0.68713  -0.68548  -0.67994
 Alpha  occ. eigenvalues --   -0.67137  -0.66278  -0.66228  -0.66010  -0.65582
 Alpha  occ. eigenvalues --   -0.64515  -0.64344  -0.64207  -0.64166  -0.63871
 Alpha  occ. eigenvalues --   -0.63638  -0.63266  -0.62805  -0.62431  -0.62368
 Alpha  occ. eigenvalues --   -0.61984  -0.61386  -0.61254  -0.61079  -0.60742
 Alpha  occ. eigenvalues --   -0.60064  -0.59991  -0.59532  -0.59296  -0.59257
 Alpha  occ. eigenvalues --   -0.59013  -0.58851  -0.58755  -0.58645  -0.58334
 Alpha  occ. eigenvalues --   -0.58188  -0.57992  -0.57652  -0.57610  -0.57443
 Alpha  occ. eigenvalues --   -0.57117  -0.56640  -0.56434  -0.56175  -0.56146
 Alpha  occ. eigenvalues --   -0.55959  -0.55312  -0.55289  -0.55243  -0.55169
 Alpha  occ. eigenvalues --   -0.54868  -0.54638  -0.54244  -0.53804  -0.53125
 Alpha  occ. eigenvalues --   -0.53042  -0.52960  -0.52781  -0.52411  -0.52233
 Alpha  occ. eigenvalues --   -0.51836  -0.51708  -0.51603  -0.51536  -0.51358
 Alpha  occ. eigenvalues --   -0.51202  -0.51063  -0.50925  -0.50554  -0.50501
 Alpha  occ. eigenvalues --   -0.50235  -0.50224  -0.50133  -0.49462  -0.49368
 Alpha  occ. eigenvalues --   -0.49192  -0.49161  -0.49081  -0.48808  -0.48479
 Alpha  occ. eigenvalues --   -0.48352  -0.48267  -0.48138  -0.47923  -0.47762
 Alpha  occ. eigenvalues --   -0.47610  -0.47480  -0.47084  -0.47026  -0.46965
 Alpha  occ. eigenvalues --   -0.46716  -0.46544  -0.46469  -0.46416  -0.46156
 Alpha  occ. eigenvalues --   -0.46145  -0.46048  -0.45882  -0.45770  -0.45573
 Alpha  occ. eigenvalues --   -0.45304  -0.45272  -0.45208  -0.44990  -0.44896
 Alpha  occ. eigenvalues --   -0.44597  -0.44425  -0.44176  -0.44124  -0.43990
 Alpha  occ. eigenvalues --   -0.43919  -0.43634  -0.43588  -0.43419  -0.43234
 Alpha  occ. eigenvalues --   -0.43143  -0.43142  -0.42842  -0.42693  -0.42607
 Alpha  occ. eigenvalues --   -0.42457  -0.42325  -0.42023  -0.41866  -0.41692
 Alpha  occ. eigenvalues --   -0.41637  -0.41492  -0.41355  -0.41011  -0.40822
 Alpha  occ. eigenvalues --   -0.40699  -0.40329  -0.40180  -0.40154  -0.39993
 Alpha  occ. eigenvalues --   -0.39848  -0.39842  -0.39703  -0.39547  -0.39329
 Alpha  occ. eigenvalues --   -0.39180  -0.39137  -0.38996  -0.38972  -0.38772
 Alpha  occ. eigenvalues --   -0.38745  -0.38568  -0.38137  -0.38062  -0.37283
 Alpha  occ. eigenvalues --   -0.36866  -0.36771  -0.36227  -0.36142  -0.36113
 Alpha  occ. eigenvalues --   -0.36005  -0.35472  -0.35350  -0.35221  -0.35052
 Alpha  occ. eigenvalues --   -0.34914  -0.34713  -0.34652  -0.34156  -0.34104
 Alpha  occ. eigenvalues --   -0.34036  -0.33071  -0.32750  -0.31475  -0.31399
 Alpha  occ. eigenvalues --   -0.30886  -0.30883  -0.30806  -0.30661  -0.30519
 Alpha  occ. eigenvalues --   -0.30448  -0.29952  -0.29922  -0.29629  -0.29509
 Alpha  occ. eigenvalues --   -0.29292  -0.28686  -0.28005  -0.27572  -0.27226
 Alpha  occ. eigenvalues --   -0.27008  -0.26581  -0.26180  -0.25361  -0.25064
 Alpha  occ. eigenvalues --   -0.24950
 Alpha virt. eigenvalues --   -0.12566  -0.11402  -0.11103  -0.10827  -0.09890
 Alpha virt. eigenvalues --   -0.09051  -0.08864  -0.08141  -0.08133  -0.06713
 Alpha virt. eigenvalues --   -0.06005  -0.05548  -0.05429  -0.03929  -0.02979

 Mulliken charges:
               1
     1  N   -0.804668
     2  H    0.403242
     3  H    0.419852
     4  H    0.452776
     5  C   -0.103442
     6  H    0.232737
     7  C    0.638616
     8  C   -0.395708
     9  H    0.203351
    10  H    0.260447
    11  O   -0.532045
    12  C    0.631152
    13  O   -0.483375
    14  O   -0.545283
    15  N   -0.595236
    16  H    0.394749
    17  C   -0.084899
    18  H    0.197698
    19  C    0.660406
    20  C   -0.387332
    21  H    0.186613
    22  H    0.177571
    23  O   -0.549251
    24  C    0.153577
    25  C   -0.193093
    26  H    0.150893
    27  C   -0.195058
    28  H    0.149951
    29  C   -0.196162
    30  H    0.160756
    31  C   -0.188574
    32  H    0.131141
    33  O   -0.634008
    34  H    0.417295
    35  C    0.352239
    36  N   -0.613656
    37  H    0.360444
    38  C   -0.061069
    39  H    0.194459
    40  C    0.645477
    41  C   -0.369510
    42  H    0.158570
    43  H    0.174663
    44  O   -0.558279
    45  C    0.191527
    46  C   -0.156884
    47  H    0.141835
    48  C   -0.184020
    49  H    0.151800
    50  C   -0.146269
    51  H    0.160465
    52  C   -0.145289
    53  H    0.141983
    54  O   -0.698638
    55  H    0.436264
    56  C    0.275148
    57  N   -0.606599
    58  H    0.344259
    59  C   -0.066248
    60  H    0.196257
    61  C    0.636238
    62  C   -0.370175
    63  H    0.148977
    64  H    0.169107
    65  O   -0.536648
    66  C    0.154270
    67  C   -0.173918
    68  H    0.152279
    69  C   -0.180373
    70  H    0.116570
    71  C   -0.131901
    72  H    0.148741
    73  C   -0.128304
    74  H    0.141227
    75  C   -0.124984
    76  H    0.148244
    77  N   -0.605051
    78  H    0.369217
    79  C   -0.068722
    80  H    0.185123
    81  C    0.632680
    82  C   -0.457731
    83  H    0.183100
    84  H    0.132933
    85  H    0.175291
    86  O   -0.540656
    87  N   -0.621236
    88  H    0.370119
    89  C   -0.071773
    90  H    0.209234
    91  C    0.640113
    92  C   -0.295669
    93  H    0.144248
    94  H    0.154971
    95  O   -0.554676
    96  C   -0.074052
    97  H    0.159339
    98  C   -0.456856
    99  H    0.132078
   100  H    0.128187
   101  H    0.164234
   102  C   -0.458630
   103  H    0.131707
   104  H    0.134511
   105  H    0.155690
   106  N   -0.621262
   107  H    0.382480
   108  C   -0.060770
   109  H    0.178059
   110  C    0.643885
   111  C   -0.461185
   112  H    0.190453
   113  H    0.169159
   114  H    0.138359
   115  O   -0.547071
   116  N   -0.619464
   117  H    0.379137
   118  C   -0.075830
   119  H    0.193431
   120  C    0.633510
   121  C   -0.374189
   122  H    0.179708
   123  H    0.177796
   124  O   -0.543585
   125  C    0.335230
   126  C   -0.089956
   127  H    0.144311
   128  N   -0.611155
   129  H    0.335657
   130  C    0.211632
   131  H    0.155381
   132  N   -0.440591
   133  N   -0.617545
   134  H    0.389510
   135  C   -0.085461
   136  H    0.157708
   137  C    0.639945
   138  C    0.119092
   139  H    0.169926
   140  O   -0.543485
   141  C   -0.473913
   142  H    0.187507
   143  H    0.126409
   144  H    0.158227
   145  O   -0.629260
   146  H    0.383671
   147  N   -0.623986
   148  H    0.375608
   149  C   -0.045335
   150  H    0.163528
   151  C    0.625724
   152  C   -0.071666
   153  H    0.141782
   154  O   -0.549420
   155  C   -0.459885
   156  H    0.143057
   157  H    0.157126
   158  H    0.145463
   159  C   -0.454395
   160  H    0.158281
   161  H    0.136299
   162  H    0.150297
   163  N   -0.619036
   164  H    0.347735
   165  C    0.000400
   166  H    0.181921
   167  C    0.569801
   168  C   -0.284040
   169  H    0.179276
   170  H    0.144227
   171  O   -0.609586
   172  C   -0.278884
   173  H    0.129326
   174  H    0.174247
   175  C   -0.157036
   176  H    0.205328
   177  H    0.147645
   178  N   -0.601165
   179  H    0.326785
   180  N   -0.731261
   181  H    0.290984
   182  H    0.459648
   183  N   -0.759397
   184  H    0.331576
   185  H    0.332393
   186  C    0.680160
   187  O   -0.498324
   188  H    0.438643
 Sum of Mulliken charges =   1.00000

 Dipole moment (field-independent basis, Debye):
    X=            -37.7572    Y=            -25.8188    Z=            -26.8805  Tot=             53.0545
 Quadrupole moment (field-independent basis, Debye-Ang):
   XX=            124.4716   YY=           -458.5238   ZZ=           -328.6355
   XY=            270.1467   XZ=            366.3390   YZ=            112.8208

 Normal termination of Gaussian 16 at Wed Aug 10 12:56:36 2022.
