 Gaussian 16, Revision C.01,
 Gaussian 16:  ES64L-G16RevC.01  3-Jul-2019

 ----------------------------------------------------------------------
 # B3LYP/6-31G* empiricaldispersion=gd3 guess=read geom=check nosymm in
 tegral(ultrafinegrid)
 ----------------------------------------------------------------------

 ------------------------------------------------------
 Candidate Structure: Conf:839 Charge calc in gas phase
 ------------------------------------------------------
 Structure from the checkpoint file:  "conf-839.chk"
 Charge =  1 Multiplicity = 1

                          Input orientation:
 ---------------------------------------------------------------------
 Center     Atomic      Atomic             Coordinates (Angstroms)
 Number     Number       Type             X           Y           Z
 ---------------------------------------------------------------------
      1          7           0        2.268897   -7.230251    3.683522
      2          1           0        1.254159   -7.339394    3.790910
      3          1           0        2.665554   -8.146961    3.431275
      4          1           0        2.761348   -6.803545    4.541875
      5          6           0        2.600763   -6.286627    2.558476
      6          1           0        1.923325   -5.432861    2.613606
      7          6           0        2.412935   -7.101337    1.272624
      8          6           0        4.055258   -5.830761    2.718770
      9          1           0        4.715338   -6.700226    2.596369
     10          1           0        4.273838   -5.124452    1.915161
     11          8           0        2.832545   -8.264060    1.251212
     12          6           0        4.348645   -5.181545    4.086512
     13          8           0        5.095398   -4.178655    4.114704
     14          8           0        3.807721   -5.738814    5.101541
     15          7           0        1.772933   -6.473240    0.283145
     16          1           0        1.474746   -5.502012    0.413178
     17          6           0        1.281846   -7.150384   -0.906413
     18          1           0        2.128268   -7.477984   -1.524419
     19          6           0        0.493298   -6.089879   -1.690846
     20          6           0        0.423070   -8.420994   -0.571329
     21          1           0        1.120904   -9.214813   -0.298979
     22          1           0       -0.088473   -8.737841   -1.488079
     23          8           0        0.266196   -4.975039   -1.217652
     24          6           0       -0.568501   -8.190091    0.543931
     25          6           0       -0.287038   -8.612171    1.852243
     26          1           0        0.599858   -9.213953    2.030187
     27          6           0       -1.757736   -7.486580    0.319778
     28          1           0       -2.034092   -7.187392   -0.688504
     29          6           0       -1.114242   -8.268247    2.922650
     30          1           0       -0.912419   -8.610500    3.935074
     31          6           0       -2.601940   -7.155145    1.375342
     32          1           0       -3.512136   -6.593874    1.188826
     33          8           0       -3.006228   -7.114052    3.760978
     34          1           0       -3.662049   -6.460137    3.465180
     35          6           0       -2.260325   -7.496924    2.687109
     36          7           0        0.083923   -6.431520   -2.934385
     37          1           0        0.143896   -7.392282   -3.242910
     38          6           0       -0.749709   -5.507878   -3.695247
     39          1           0       -0.230691   -4.544589   -3.724559
     40          6           0       -2.128532   -5.351028   -3.023326
     41          6           0       -0.967853   -6.018779   -5.133583
     42          1           0       -1.444592   -7.004593   -5.074407
     43          1           0        0.010380   -6.142763   -5.613267
     44          8           0       -2.831845   -6.342142   -2.819793
     45          6           0       -1.839726   -5.060641   -5.916241
     46          6           0       -3.235990   -5.204071   -5.924602
     47          1           0       -3.686395   -6.049795   -5.412221
     48          6           0       -1.285234   -3.954653   -6.567834
     49          1           0       -0.205442   -3.821488   -6.579473
     50          6           0       -4.053455   -4.271719   -6.554965
     51          1           0       -5.132700   -4.386011   -6.571501
     52          6           0       -2.091007   -3.012721   -7.207273
     53          1           0       -1.640477   -2.161041   -7.713027
     54          8           0       -4.333042   -2.283336   -7.795065
     55          1           0       -3.821113   -1.588583   -8.237736
     56          6           0       -3.481561   -3.167317   -7.198739
     57          7           0       -2.479400   -4.079365   -2.751814
     58          1           0       -1.824095   -3.324479   -2.928622
     59          6           0       -3.806961   -3.619323   -2.384687
     60          1           0       -4.475190   -3.776664   -3.245278
     61          6           0       -3.676395   -2.098614   -2.176832
     62          6           0       -4.445851   -4.351760   -1.180656
     63          1           0       -5.518488   -4.118813   -1.177080
     64          1           0       -4.378363   -5.419733   -1.410112
     65          8           0       -2.614513   -1.511519   -2.419784
     66          6           0       -3.870354   -4.089941    0.196376
     67          6           0       -2.488594   -4.062335    0.437791
     68          1           0       -1.792030   -4.165879   -0.384632
     69          6           0       -4.740433   -3.991908    1.291877
     70          1           0       -5.815668   -4.001763    1.126229
     71          6           0       -1.995608   -3.980918    1.739969
     72          1           0       -0.922414   -3.995401    1.902133
     73          6           0       -4.249672   -3.906738    2.597539
     74          1           0       -4.943474   -3.826827    3.430703
     75          6           0       -2.870796   -3.913060    2.825894
     76          1           0       -2.484530   -3.868438    3.839584
     77          7           0       -4.783119   -1.455664   -1.756375
     78          1           0       -5.595943   -1.988390   -1.479200
     79          6           0       -4.858047    0.005365   -1.625682
     80          1           0       -4.243220    0.415395   -2.434276
     81          6           0       -4.255068    0.470882   -0.276590
     82          6           0       -6.304401    0.465064   -1.764076
     83          1           0       -6.356256    1.554904   -1.711814
     84          1           0       -6.719803    0.134366   -2.720951
     85          1           0       -6.913143    0.076616   -0.941647
     86          8           0       -4.950308    0.940458    0.616464
     87          7           0       -2.903113    0.329649   -0.192334
     88          1           0       -2.404015   -0.136396   -0.946839
     89          6           0       -2.173055    0.725868    0.999142
     90          1           0       -2.852651    1.363896    1.568526
     91          6           0       -0.932472    1.508073    0.573375
     92          6           0       -1.747147   -0.481298    1.861628
     93          1           0       -2.660063   -0.969904    2.221713
     94          1           0       -1.248637   -1.201206    1.204851
     95          8           0       -0.045741    0.999574   -0.128992
     96          6           0       -0.816642   -0.141304    3.043639
     97          1           0        0.078579    0.348387    2.636524
     98          6           0       -1.458468    0.816293    4.057059
     99          1           0       -2.371805    0.379330    4.479483
    100          1           0       -0.766004    1.028543    4.878260
    101          1           0       -1.721351    1.782296    3.614816
    102          6           0       -0.348555   -1.424447    3.743549
    103          1           0       -1.197130   -1.944010    4.202903
    104          1           0        0.368535   -1.192069    4.537403
    105          1           0        0.138298   -2.112178    3.046675
    106          7           0       -0.840296    2.773568    1.042904
    107          1           0       -1.538327    3.088849    1.704358
    108          6           0        0.429579    3.506245    1.035675
    109          1           0        0.862003    3.394966    0.037572
    110          6           0        1.312574    2.824785    2.097669
    111          6           0        0.204574    4.976119    1.371441
    112          1           0        1.149937    5.523846    1.313672
    113          1           0       -0.175145    5.074491    2.393037
    114          1           0       -0.503289    5.425248    0.668652
    115          8           0        1.111249    3.012012    3.298621
    116          7           0        2.248333    1.965864    1.625961
    117          1           0        2.256290    1.775039    0.632851
    118          6           0        3.007195    1.081772    2.512544
    119          1           0        2.319052    0.737777    3.295098
    120          6           0        4.165006    1.825682    3.230918
    121          6           0        3.574272   -0.128529    1.749013
    122          1           0        4.404491   -0.518918    2.342909
    123          1           0        4.037372    0.231157    0.819079
    124          8           0        5.344795    1.532160    3.013441
    125          6           0        2.650606   -1.275339    1.477746
    126          6           0        2.771285   -2.585285    1.885390
    127          1           0        3.506182   -2.981485    2.574335
    128          7           0        1.568123   -1.275563    0.611637
    129          1           0        1.089933   -0.464739    0.211845
    130          6           0        1.098509   -2.550062    0.536760
    131          1           0        0.263410   -2.828338   -0.087546
    132          7           0        1.803633   -3.378335    1.293651
    133          7           0        3.787652    2.710151    4.178157
    134          1           0        2.795041    2.903608    4.317741
    135          6           0        4.718612    3.208684    5.192725
    136          1           0        5.700556    3.334813    4.725725
    137          6           0        4.792139    2.121949    6.303250
    138          6           0        4.200741    4.541708    5.762239
    139          1           0        4.898105    4.844564    6.557749
    140          8           0        4.369634    2.310625    7.444112
    141          6           0        4.120187    5.633660    4.704220
    142          1           0        5.100011    5.815127    4.249189
    143          1           0        3.413850    5.347992    3.918174
    144          1           0        3.764941    6.560378    5.163084
    145          8           0        2.890953    4.359346    6.288385
    146          1           0        3.005916    3.761150    7.050816
    147          7           0        5.254761    0.923576    5.861462
    148          1           0        5.585814    0.868110    4.899858
    149          6           0        4.856018   -0.355366    6.437747
    150          1           0        4.849860   -0.265013    7.528761
    151          6           0        5.900243   -1.363350    5.963453
    152          6           0        3.439605   -0.801478    5.941448
    153          1           0        3.483953   -0.773830    4.842951
    154          8           0        6.311580   -1.286394    4.793428
    155          6           0        3.108993   -2.241544    6.357753
    156          1           0        3.132839   -2.356401    7.449343
    157          1           0        3.794943   -2.970337    5.924111
    158          1           0        2.096778   -2.496889    6.024628
    159          6           0        2.345183    0.163488    6.423079
    160          1           0        2.357539    0.259004    7.513911
    161          1           0        1.360934   -0.215705    6.129468
    162          1           0        2.447107    1.165791    6.003811
    163          7           0        6.324071   -2.300072    6.836882
    164          1           0        5.834575   -2.372760    7.719545
    165          6           0        7.086572   -3.463682    6.393262
    166          1           0        7.008361   -3.461589    5.309561
    167          6           0        6.396601   -4.796566    6.676519
    168          6           0        8.569057   -3.414486    6.787507
    169          1           0        8.646378   -3.275098    7.872471
    170          1           0        9.004904   -4.393560    6.558759
    171          8           0        6.911471   -5.844237    6.353675
    172          6           0        9.358795   -2.295761    6.083271
    173          1           0       10.316423   -2.158805    6.598641
    174          1           0        8.825225   -1.341444    6.172885
    175          6           0        9.700179   -2.553156    4.605189
    176          1           0       10.219421   -3.514550    4.510994
    177          1           0       10.377841   -1.765856    4.249420
    178          7           0        8.499090   -2.589125    3.759408
    179          1           0        7.673774   -2.052046    4.085083
    180          7           0        9.397630   -3.844355    2.019902
    181          1           0        9.304599   -4.626860    1.390442
    182          1           0       10.321676   -3.468126    2.167862
    183          7           0        7.091751   -3.626681    2.251773
    184          1           0        6.970577   -4.021317    1.330535
    185          1           0        6.291803   -3.696081    2.910981
    186          6           0        8.329611   -3.352537    2.686614
    187          8           0        5.155484   -4.656747    7.162180
    188          1           0        4.577325   -5.313469    6.691353
 ---------------------------------------------------------------------

 SCF Done:  E(RB3LYP) =  -4648.84732892     A.U. after    2 cycles

 Alpha  occ. eigenvalues --  -19.23817 -19.23708 -19.23576 -19.21030 -19.21029
 Alpha  occ. eigenvalues --  -19.20935 -19.20737 -19.20699 -19.20468 -19.19830
 Alpha  occ. eigenvalues --  -19.19673 -19.19478 -19.18660 -19.18438 -19.18132
 Alpha  occ. eigenvalues --  -19.18132 -19.17626 -14.52065 -14.48806 -14.46499
 Alpha  occ. eigenvalues --  -14.46249 -14.45016 -14.45015 -14.44994 -14.44807
 Alpha  occ. eigenvalues --  -14.44779 -14.44680 -14.44508 -14.43075 -14.41915
 Alpha  occ. eigenvalues --  -14.41799 -14.41254 -14.39180 -10.43816 -10.37983
 Alpha  occ. eigenvalues --  -10.37952 -10.37940 -10.37859 -10.37546 -10.37503
 Alpha  occ. eigenvalues --  -10.37274 -10.36679 -10.35816 -10.35460 -10.34874
 Alpha  occ. eigenvalues --  -10.34787 -10.34226 -10.32676 -10.32439 -10.31740
 Alpha  occ. eigenvalues --  -10.31568 -10.31359 -10.31272 -10.31181 -10.31028
 Alpha  occ. eigenvalues --  -10.30614 -10.30592 -10.30544 -10.30299 -10.29842
 Alpha  occ. eigenvalues --  -10.28942 -10.28864 -10.28826 -10.28800 -10.27772
 Alpha  occ. eigenvalues --  -10.27315 -10.27066 -10.26863 -10.26816 -10.26803
 Alpha  occ. eigenvalues --  -10.26755 -10.26532 -10.26061 -10.26055 -10.25901
 Alpha  occ. eigenvalues --  -10.25892 -10.25730 -10.25725 -10.25531 -10.25518
 Alpha  occ. eigenvalues --  -10.25475 -10.25457 -10.25399 -10.25144 -10.25123
 Alpha  occ. eigenvalues --  -10.25118 -10.25025 -10.24974 -10.24865 -10.24621
 Alpha  occ. eigenvalues --  -10.24521 -10.24507 -10.22981 -10.22972 -10.22942
 Alpha  occ. eigenvalues --  -10.22844 -10.22218  -1.15457  -1.13562  -1.13119
 Alpha  occ. eigenvalues --   -1.12742  -1.12688  -1.12620  -1.12557  -1.12156
 Alpha  occ. eigenvalues --   -1.11987  -1.11787  -1.11575  -1.10498  -1.10391
 Alpha  occ. eigenvalues --   -1.09557  -1.09457  -1.07829  -1.07323  -1.06941
 Alpha  occ. eigenvalues --   -1.05832  -1.04099  -1.01697  -1.01583  -1.01271
 Alpha  occ. eigenvalues --   -1.01223  -1.01150  -1.01083  -1.00815  -1.00286
 Alpha  occ. eigenvalues --   -0.99983  -0.99109  -0.98517  -0.97775  -0.93596
 Alpha  occ. eigenvalues --   -0.92475  -0.91988  -0.91723  -0.88659  -0.88409
 Alpha  occ. eigenvalues --   -0.87867  -0.87365  -0.87099  -0.86561  -0.86284
 Alpha  occ. eigenvalues --   -0.85042  -0.84910  -0.83954  -0.83622  -0.82957
 Alpha  occ. eigenvalues --   -0.81385  -0.81350  -0.81036  -0.80880  -0.80870
 Alpha  occ. eigenvalues --   -0.80483  -0.80205  -0.78960  -0.78737  -0.77241
 Alpha  occ. eigenvalues --   -0.76141  -0.75479  -0.74464  -0.74233  -0.74149
 Alpha  occ. eigenvalues --   -0.74004  -0.73873  -0.73631  -0.73018  -0.72212
 Alpha  occ. eigenvalues --   -0.71526  -0.70352  -0.70226  -0.69138  -0.68956
 Alpha  occ. eigenvalues --   -0.68746  -0.68340  -0.68024  -0.67721  -0.67583
 Alpha  occ. eigenvalues --   -0.67393  -0.67280  -0.67024  -0.66840  -0.66763
 Alpha  occ. eigenvalues --   -0.66632  -0.66419  -0.66197  -0.66056  -0.65660
 Alpha  occ. eigenvalues --   -0.65394  -0.64997  -0.64800  -0.64612  -0.64399
 Alpha  occ. eigenvalues --   -0.64018  -0.63480  -0.63450  -0.63024  -0.62772
 Alpha  occ. eigenvalues --   -0.62468  -0.61893  -0.61628  -0.60955  -0.60729
 Alpha  occ. eigenvalues --   -0.60639  -0.60548  -0.60346  -0.59478  -0.59107
 Alpha  occ. eigenvalues --   -0.58860  -0.58341  -0.58215  -0.57999  -0.57452
 Alpha  occ. eigenvalues --   -0.57387  -0.57127  -0.56707  -0.56662  -0.56338
 Alpha  occ. eigenvalues --   -0.56105  -0.55874  -0.55628  -0.55130  -0.54838
 Alpha  occ. eigenvalues --   -0.54721  -0.54671  -0.54570  -0.54230  -0.54106
 Alpha  occ. eigenvalues --   -0.53994  -0.53858  -0.53759  -0.53316  -0.53006
 Alpha  occ. eigenvalues --   -0.52978  -0.52801  -0.52677  -0.52493  -0.52364
 Alpha  occ. eigenvalues --   -0.52261  -0.52136  -0.51845  -0.51593  -0.51451
 Alpha  occ. eigenvalues --   -0.51354  -0.51201  -0.50915  -0.50704  -0.50353
 Alpha  occ. eigenvalues --   -0.50297  -0.50068  -0.49969  -0.49869  -0.49670
 Alpha  occ. eigenvalues --   -0.49641  -0.49284  -0.49177  -0.48924  -0.48859
 Alpha  occ. eigenvalues --   -0.48703  -0.48525  -0.48519  -0.48473  -0.48382
 Alpha  occ. eigenvalues --   -0.48218  -0.48053  -0.47977  -0.47951  -0.47808
 Alpha  occ. eigenvalues --   -0.47572  -0.47445  -0.47187  -0.47048  -0.46857
 Alpha  occ. eigenvalues --   -0.46810  -0.46620  -0.46482  -0.46404  -0.46343
 Alpha  occ. eigenvalues --   -0.46267  -0.46190  -0.46077  -0.45911  -0.45786
 Alpha  occ. eigenvalues --   -0.45596  -0.45574  -0.45332  -0.45118  -0.44972
 Alpha  occ. eigenvalues --   -0.44885  -0.44790  -0.44727  -0.44587  -0.44360
 Alpha  occ. eigenvalues --   -0.44107  -0.44052  -0.43979  -0.43887  -0.43864
 Alpha  occ. eigenvalues --   -0.43582  -0.43511  -0.43302  -0.43268  -0.43156
 Alpha  occ. eigenvalues --   -0.42957  -0.42924  -0.42800  -0.42662  -0.42354
 Alpha  occ. eigenvalues --   -0.42216  -0.41942  -0.41800  -0.41713  -0.41295
 Alpha  occ. eigenvalues --   -0.41201  -0.40840  -0.40732  -0.40580  -0.39858
 Alpha  occ. eigenvalues --   -0.39779  -0.39714  -0.39394  -0.39252  -0.39109
 Alpha  occ. eigenvalues --   -0.39077  -0.38769  -0.38479  -0.38413  -0.37725
 Alpha  occ. eigenvalues --   -0.37024  -0.36576  -0.36374  -0.35960  -0.35865
 Alpha  occ. eigenvalues --   -0.35743  -0.35703  -0.35455  -0.35389  -0.35153
 Alpha  occ. eigenvalues --   -0.35000  -0.34956  -0.34764  -0.34681  -0.34549
 Alpha  occ. eigenvalues --   -0.34457  -0.34201  -0.33871  -0.33507  -0.32765
 Alpha  occ. eigenvalues --   -0.32706  -0.32607  -0.32295  -0.32041  -0.31780
 Alpha  occ. eigenvalues --   -0.31384  -0.31278  -0.31054  -0.30979  -0.30867
 Alpha  occ. eigenvalues --   -0.30817  -0.30602  -0.29797  -0.29149  -0.28196
 Alpha  occ. eigenvalues --   -0.27878
 Alpha virt. eigenvalues --   -0.08673  -0.08452  -0.08034  -0.07554  -0.07533
 Alpha virt. eigenvalues --   -0.07375  -0.06814  -0.06692  -0.06515  -0.06415
 Alpha virt. eigenvalues --   -0.06176  -0.05772  -0.05551  -0.05461  -0.05226

 Mulliken charges:
               1
     1  N   -0.761961
     2  H    0.396134
     3  H    0.395452
     4  H    0.437035
     5  C   -0.120611
     6  H    0.228194
     7  C    0.645566
     8  C   -0.394793
     9  H    0.190291
    10  H    0.178847
    11  O   -0.556558
    12  C    0.701670
    13  O   -0.581593
    14  O   -0.639742
    15  N   -0.646724
    16  H    0.417018
    17  C   -0.020324
    18  H    0.181129
    19  C    0.634596
    20  C   -0.396718
    21  H    0.194070
    22  H    0.157152
    23  O   -0.542783
    24  C    0.165717
    25  C   -0.220561
    26  H    0.141747
    27  C   -0.207700
    28  H    0.177387
    29  C   -0.201217
    30  H    0.138437
    31  C   -0.185423
    32  H    0.145458
    33  O   -0.648132
    34  H    0.415660
    35  C    0.356817
    36  N   -0.614167
    37  H    0.344951
    38  C   -0.019302
    39  H    0.163572
    40  C    0.654013
    41  C   -0.393701
    42  H    0.172425
    43  H    0.161064
    44  O   -0.555784
    45  C    0.145974
    46  C   -0.188543
    47  H    0.156737
    48  C   -0.189595
    49  H    0.129712
    50  C   -0.168556
    51  H    0.149248
    52  C   -0.189522
    53  H    0.129527
    54  O   -0.636231
    55  H    0.412769
    56  C    0.353274
    57  N   -0.613720
    58  H    0.367925
    59  C   -0.030226
    60  H    0.191097
    61  C    0.635398
    62  C   -0.390234
    63  H    0.138056
    64  H    0.226069
    65  O   -0.560029
    66  C    0.153582
    67  C   -0.201011
    68  H    0.189227
    69  C   -0.194780
    70  H    0.133031
    71  C   -0.137243
    72  H    0.152348
    73  C   -0.160192
    74  H    0.147960
    75  C   -0.152221
    76  H    0.145901
    77  N   -0.600604
    78  H    0.344912
    79  C   -0.062456
    80  H    0.185321
    81  C    0.621642
    82  C   -0.465253
    83  H    0.182722
    84  H    0.157230
    85  H    0.172299
    86  O   -0.515985
    87  N   -0.630455
    88  H    0.376055
    89  C   -0.053623
    90  H    0.180088
    91  C    0.638066
    92  C   -0.263375
    93  H    0.165165
    94  H    0.140441
    95  O   -0.579375
    96  C   -0.104160
    97  H    0.133443
    98  C   -0.440477
    99  H    0.147324
   100  H    0.163839
   101  H    0.125729
   102  C   -0.483470
   103  H    0.141187
   104  H    0.154924
   105  H    0.164876
   106  N   -0.577222
   107  H    0.355754
   108  C   -0.051190
   109  H    0.173098
   110  C    0.642893
   111  C   -0.478589
   112  H    0.175891
   113  H    0.189001
   114  H    0.171156
   115  O   -0.543619
   116  N   -0.605509
   117  H    0.346852
   118  C   -0.056578
   119  H    0.196749
   120  C    0.623222
   121  C   -0.411251
   122  H    0.210192
   123  H    0.167195
   124  O   -0.541864
   125  C    0.323523
   126  C   -0.101349
   127  H    0.155142
   128  N   -0.637275
   129  H    0.397143
   130  C    0.214279
   131  H    0.196033
   132  N   -0.509524
   133  N   -0.621050
   134  H    0.405688
   135  C   -0.081435
   136  H    0.181393
   137  C    0.625741
   138  C    0.119895
   139  H    0.140129
   140  O   -0.541569
   141  C   -0.448247
   142  H    0.142428
   143  H    0.152875
   144  H    0.168816
   145  O   -0.646043
   146  H    0.419533
   147  N   -0.638196
   148  H    0.390712
   149  C   -0.048609
   150  H    0.172271
   151  C    0.653271
   152  C   -0.082548
   153  H    0.136920
   154  O   -0.580793
   155  C   -0.496275
   156  H    0.139715
   157  H    0.200522
   158  H    0.146716
   159  C   -0.472497
   160  H    0.164039
   161  H    0.155978
   162  H    0.158034
   163  N   -0.585804
   164  H    0.355589
   165  C   -0.070854
   166  H    0.201468
   167  C    0.610316
   168  C   -0.263074
   169  H    0.159264
   170  H    0.174063
   171  O   -0.472450
   172  C   -0.308349
   173  H    0.168803
   174  H    0.174741
   175  C   -0.150295
   176  H    0.166809
   177  H    0.174216
   178  N   -0.624956
   179  H    0.433513
   180  N   -0.762773
   181  H    0.368082
   182  H    0.376798
   183  N   -0.803752
   184  H    0.346958
   185  H    0.440510
   186  C    0.781362
   187  O   -0.609872
   188  H    0.449750
 Sum of Mulliken charges =   1.00000

 Dipole moment (field-independent basis, Debye):
    X=             17.1559    Y=            -15.7325    Z=              0.4508  Tot=             23.2817
 Quadrupole moment (field-independent basis, Debye-Ang):
   XX=           -334.0255   YY=           -472.3820   ZZ=           -508.0400
   XY=            -65.5111   XZ=             61.3840   YZ=            -20.4724

 Normal termination of Gaussian 16 at Wed Aug 10 12:57:47 2022.
