 Gaussian 16, Revision C.01,
 Gaussian 16:  ES64L-G16RevC.01  3-Jul-2019

 -------------------------------------------------------------------
 # B3LYP/6-31G* guess=read geom=check nosymm integral(ultrafinegrid)
 -------------------------------------------------------------------

 ------------------------------------------------------
 Candidate Structure: Conf:879 Charge calc in gas phase
 ------------------------------------------------------
 Structure from the checkpoint file:  "conf-879.chk"
 Charge =  1 Multiplicity = 1

                          Input orientation:
 ---------------------------------------------------------------------
 Center     Atomic      Atomic             Coordinates (Angstroms)
 Number     Number       Type             X           Y           Z
 ---------------------------------------------------------------------
      1          7           0       -4.847651   -1.493370   -6.017394
      2          1           0       -4.196572   -1.140731   -6.719768
      3          1           0       -4.732921   -2.507233   -5.983055
      4          1           0       -5.797300   -1.281065   -6.319479
      5          6           0       -4.559599   -0.915747   -4.691368
      6          1           0       -4.576919    0.177165   -4.755994
      7          6           0       -3.164804   -1.374027   -4.272371
      8          6           0       -5.617757   -1.347950   -3.668616
      9          1           0       -6.590921   -1.121353   -4.115315
     10          1           0       -5.554486   -2.430982   -3.547840
     11          8           0       -2.646982   -2.357862   -4.814382
     12          6           0       -5.486422   -0.655006   -2.337152
     13          6           0       -4.999758   -1.329069   -1.219991
     14          1           0       -4.715133   -2.372462   -1.306342
     15          6           0       -5.821113    0.691666   -2.220878
     16          1           0       -6.182865    1.215679   -3.101408
     17          6           0       -4.854202   -0.662747   -0.003924
     18          1           0       -4.459023   -1.196427    0.853345
     19          6           0       -5.691995    1.357105   -1.004920
     20          1           0       -5.968243    2.402152   -0.931683
     21          6           0       -5.205750    0.678201    0.108964
     22          1           0       -5.104561    1.192150    1.056480
     23          7           0       -2.570147   -0.677058   -3.296268
     24          1           0       -3.008504    0.155029   -2.920425
     25          6           0       -1.395214   -1.127994   -2.561133
     26          1           0       -1.539963   -2.160829   -2.230935
     27          6           0       -1.300095   -0.199600   -1.351172
     28          6           0       -0.118420   -1.097341   -3.404431
     29          1           0        0.775127   -1.173435   -2.786681
     30          1           0       -0.090956   -0.189123   -3.998278
     31          8           0       -1.727019    0.940818   -1.387897
     32          8           0       -0.100072   -2.229996   -4.356517
     33          1           0        0.236703   -3.036074   -3.927107
     34          7           0       -0.709075   -0.741496   -0.249884
     35          1           0       -0.176789   -1.587925   -0.356138
     36          6           0       -0.353990    0.073314    0.895685
     37          1           0       -0.800833    1.059240    0.750985
     38          6           0        1.171084    0.163703    0.932010
     39          6           0       -0.862696   -0.545304    2.176286
     40          1           0       -0.373439   -1.515078    2.328206
     41          1           0       -1.944784   -0.707260    2.090480
     42          8           0        1.845019   -0.847859    1.092376
     43          8           0       -0.556957    0.369707    3.223141
     44          1           0       -0.777931   -0.043251    4.060470
     45          7           0        1.691787    1.391048    0.746007
     46          1           0        1.090577    2.157724    0.439653
     47          6           0        3.083746    1.602699    0.406154
     48          1           0        3.316583    1.140505   -0.556364
     49          6           0        4.019410    0.962872    1.459423
     50          6           0        3.328651    3.111464    0.375133
     51          1           0        3.052345    3.501840    1.355951
     52          1           0        4.373413    3.339895    0.176583
     53          8           0        3.885083    1.196587    2.676097
     54          6           0        2.427897    3.757332   -0.703270
     55          8           0        2.996443    4.338476   -1.635282
     56          8           0        1.193965    3.658052   -0.503129
     57          7           0        4.989005    0.175273    0.903945
     58          1           0        5.375811    0.420078    0.000745
     59          6           0        6.020130   -0.389447    1.720254
     60          1           0        5.924439   -0.036174    2.746319
     61          6           0        7.373148    0.095598    1.105704
     62          6           0        6.061199   -1.918726    1.692420
     63          1           0        6.858973   -2.212065    2.381465
     64          1           0        6.363927   -2.259366    0.696196
     65          8           0        8.364695    0.050524    1.834965
     66          6           0        4.748667   -2.602727    2.070678
     67          1           0        4.917959   -3.678856    2.156392
     68          1           0        4.020614   -2.460550    1.266459
     69          6           0        4.129269   -2.065794    3.349134
     70          1           0        3.845442   -1.039071    3.165470
     71          1           0        3.206968   -2.601931    3.591956
     72          7           0        5.077396   -2.157110    4.475299
     73          1           0        5.426779   -3.085138    4.666352
     74          7           0        4.425935   -0.142239    5.496264
     75          1           0        4.230599    0.326133    6.368188
     76          1           0        3.800032    0.078211    4.734037
     77          7           0        5.751584   -1.680385    6.647928
     78          1           0        6.473820   -2.378683    6.517613
     79          1           0        6.051734   -0.910905    7.232407
     80          6           0        5.069820   -1.322430    5.522729
     81          8           0        7.276347    0.445088   -0.092279
     82          1           0       -1.073463   -2.388151   -4.616663
 ---------------------------------------------------------------------

 SCF Done:  E(RB3LYP) =  -2165.99691941     A.U. after    3 cycles

 Alpha  occ. eigenvalues --  -19.46366 -19.32135 -19.25141 -19.22160 -19.16767
 Alpha  occ. eigenvalues --  -19.13582 -19.06390 -19.06340 -19.06109 -19.05560
 Alpha  occ. eigenvalues --  -14.66889 -14.53569 -14.48583 -14.48547 -14.48312
 Alpha  occ. eigenvalues --  -14.47687 -14.38123 -14.35494 -10.46681 -10.44875
 Alpha  occ. eigenvalues --  -10.44757 -10.44575 -10.42804 -10.41790 -10.37215
 Alpha  occ. eigenvalues --  -10.33399 -10.33341 -10.31868 -10.31780 -10.31596
 Alpha  occ. eigenvalues --  -10.31101 -10.30953 -10.30890 -10.30689 -10.30168
 Alpha  occ. eigenvalues --  -10.29433 -10.24769 -10.24178 -10.23814 -10.23529
 Alpha  occ. eigenvalues --  -10.21060 -10.20724 -10.17384  -1.33746  -1.24662
 Alpha  occ. eigenvalues --   -1.21409  -1.17794  -1.12925  -1.10788  -1.10039
 Alpha  occ. eigenvalues --   -1.08807  -1.04813  -1.04175  -1.02256  -1.01244
 Alpha  occ. eigenvalues --   -1.00478  -1.00237  -1.00109  -0.97437  -0.95679
 Alpha  occ. eigenvalues --   -0.95525  -0.93327  -0.91088  -0.90612  -0.89684
 Alpha  occ. eigenvalues --   -0.87693  -0.87053  -0.85290  -0.84998  -0.83416
 Alpha  occ. eigenvalues --   -0.82890  -0.80581  -0.79143  -0.78743  -0.77486
 Alpha  occ. eigenvalues --   -0.77172  -0.74609  -0.74475  -0.73610  -0.72916
 Alpha  occ. eigenvalues --   -0.71464  -0.71273  -0.71023  -0.70748  -0.69616
 Alpha  occ. eigenvalues --   -0.69195  -0.67587  -0.67171  -0.66666  -0.64989
 Alpha  occ. eigenvalues --   -0.64427  -0.64000  -0.62875  -0.61477  -0.61163
 Alpha  occ. eigenvalues --   -0.61037  -0.60578  -0.60181  -0.60056  -0.59164
 Alpha  occ. eigenvalues --   -0.58577  -0.58482  -0.58209  -0.57711  -0.57525
 Alpha  occ. eigenvalues --   -0.56179  -0.56100  -0.55165  -0.54822  -0.54609
 Alpha  occ. eigenvalues --   -0.54384  -0.53795  -0.53713  -0.53611  -0.52379
 Alpha  occ. eigenvalues --   -0.51872  -0.51109  -0.50277  -0.49452  -0.48838
 Alpha  occ. eigenvalues --   -0.48073  -0.47957  -0.47441  -0.47107  -0.46576
 Alpha  occ. eigenvalues --   -0.46344  -0.45372  -0.45143  -0.44659  -0.44584
 Alpha  occ. eigenvalues --   -0.43946  -0.42575  -0.42071  -0.41541  -0.40991
 Alpha  occ. eigenvalues --   -0.40086  -0.39751  -0.39491  -0.39361  -0.38934
 Alpha  occ. eigenvalues --   -0.38231  -0.37831  -0.37547  -0.37527  -0.37338
 Alpha  occ. eigenvalues --   -0.37239  -0.36250  -0.35611  -0.35415  -0.34804
 Alpha  occ. eigenvalues --   -0.33948  -0.33473  -0.30937  -0.29419  -0.27770
 Alpha  occ. eigenvalues --   -0.26756  -0.21957  -0.21527  -0.20803  -0.20505
 Alpha  occ. eigenvalues --   -0.19721  -0.19200
 Alpha virt. eigenvalues --   -0.18177  -0.16278  -0.15474  -0.13674  -0.12842
 Alpha virt. eigenvalues --   -0.12352  -0.10135  -0.09839  -0.09501  -0.07667
 Alpha virt. eigenvalues --   -0.06065  -0.05044  -0.04830  -0.04513  -0.03775

 Mulliken charges:
               1
     1  N   -0.706581
     2  H    0.433286
     3  H    0.432734
     4  H    0.431126
     5  C   -0.156380
     6  H    0.230040
     7  C    0.618747
     8  C   -0.369208
     9  H    0.179633
    10  H    0.181960
    11  O   -0.625129
    12  C    0.158684
    13  C   -0.188536
    14  H    0.129909
    15  C   -0.195836
    16  H    0.132573
    17  C   -0.127486
    18  H    0.160570
    19  C   -0.114275
    20  H    0.177494
    21  C   -0.109587
    22  H    0.177572
    23  N   -0.603349
    24  H    0.391975
    25  C   -0.097432
    26  H    0.179688
    27  C    0.608679
    28  C   -0.112932
    29  H    0.258118
    30  H    0.268672
    31  O   -0.467494
    32  O   -0.585925
    33  H    0.484242
    34  N   -0.603596
    35  H    0.327367
    36  C   -0.087325
    37  H    0.227354
    38  C    0.618274
    39  C   -0.021319
    40  H    0.133539
    41  H    0.114378
    42  O   -0.578110
    43  O   -0.603682
    44  H    0.402150
    45  N   -0.591733
    46  H    0.376337
    47  C   -0.046278
    48  H    0.133037
    49  C    0.644105
    50  C   -0.367169
    51  H    0.162078
    52  H    0.168353
    53  O   -0.594843
    54  C    0.550298
    55  O   -0.530138
    56  O   -0.609136
    57  N   -0.585156
    58  H    0.354719
    59  C   -0.078650
    60  H    0.133015
    61  C    0.583730
    62  C   -0.255601
    63  H    0.139240
    64  H    0.150550
    65  O   -0.552274
    66  C   -0.296542
    67  H    0.116409
    68  H    0.181854
    69  C   -0.195146
    70  H    0.234622
    71  H    0.156975
    72  N   -0.563256
    73  H    0.354023
    74  N   -0.722812
    75  H    0.370681
    76  H    0.419313
    77  N   -0.742761
    78  H    0.372541
    79  H    0.373558
    80  C    0.760000
    81  O   -0.593723
    82  H    0.485199
 Sum of Mulliken charges =   1.00000

 Dipole moment (field-independent basis, Debye):
    X=            -33.7968    Y=            -28.4635    Z=            -12.0551  Tot=             45.8009
 Quadrupole moment (field-independent basis, Debye-Ang):
   XX=           -235.2909   YY=           -256.2709   ZZ=             32.0485
   XY=            -40.4063   XZ=            194.7091   YZ=             36.7688

 Normal termination of Gaussian 16 at Thu May 26 21:40:44 2022.
