 Gaussian 16, Revision C.01,
 Gaussian 16:  ES64L-G16RevC.01  3-Jul-2019

 -------------------------------------------------------------------
 # B3LYP/6-31G* guess=read geom=check nosymm integral(ultrafinegrid)
 -------------------------------------------------------------------

 ------------------------------------------------------
 Candidate Structure: Conf:448 Charge calc in gas phase
 ------------------------------------------------------
 Structure from the checkpoint file:  "conf-448.chk"
 Charge =  1 Multiplicity = 1

                          Input orientation:
 ---------------------------------------------------------------------
 Center     Atomic      Atomic             Coordinates (Angstroms)
 Number     Number       Type             X           Y           Z
 ---------------------------------------------------------------------
      1          7           0       -4.865210   -0.857746   -5.225611
      2          1           0       -5.035052   -1.247454   -6.156579
      3          1           0       -4.686058   -1.654257   -4.559002
      4          1           0       -5.679965   -0.286014   -4.951929
      5          6           0       -3.589233   -0.049998   -5.144274
      6          1           0       -3.313052    0.244437   -6.159305
      7          6           0       -2.580263   -1.041210   -4.515931
      8          6           0       -3.810932    1.196764   -4.244145
      9          1           0       -3.854546    0.874803   -3.199035
     10          1           0       -2.912342    1.816463   -4.322631
     11          8           0       -3.029871   -2.064336   -3.993459
     12          6           0       -5.051815    1.969584   -4.638429
     13          6           0       -6.237766    1.819633   -3.900433
     14          1           0       -6.235781    1.218923   -2.992150
     15          6           0       -5.058909    2.803203   -5.767477
     16          1           0       -4.144949    2.946623   -6.340444
     17          6           0       -7.405623    2.487491   -4.284914
     18          1           0       -8.310187    2.374313   -3.694735
     19          6           0       -6.221357    3.472345   -6.146816
     20          1           0       -6.208478    4.126259   -7.013878
     21          6           0       -7.398483    3.311910   -5.409095
     22          1           0       -8.301123    3.838100   -5.704624
     23          7           0       -1.279169   -0.708619   -4.572348
     24          1           0       -1.076728    0.245997   -4.849873
     25          6           0       -0.352563   -1.252353   -3.577701
     26          1           0       -0.462805   -2.339187   -3.559859
     27          6           0       -0.717153   -0.644004   -2.198483
     28          6           0        1.101674   -0.897024   -3.990047
     29          1           0        1.184031    0.197525   -4.095121
     30          1           0        1.302223   -1.349702   -4.966864
     31          8           0       -1.482356    0.313369   -2.125888
     32          8           0        2.038298   -1.393154   -3.065672
     33          1           0        3.863529   -1.069390   -3.150285
     34          7           0       -0.112721   -1.241019   -1.137541
     35          1           0        0.616436   -1.904400   -1.386002
     36          6           0        0.132974   -0.498639    0.105704
     37          1           0       -0.684863    0.218445    0.207197
     38          6           0        1.477520    0.267588    0.018611
     39          6           0        0.082929   -1.469823    1.292963
     40          1           0        0.251649   -0.910002    2.213321
     41          1           0        0.900899   -2.205977    1.196725
     42          8           0        2.143565    0.248187   -1.071704
     43          8           0       -1.177387   -2.104118    1.411082
     44          1           0       -1.380231   -2.487149    0.542028
     45          7           0        1.825967    0.887889    1.117982
     46          1           0        1.017381    1.938761    2.206123
     47          6           0        3.070865    1.649187    1.044171
     48          1           0        3.007410    2.419449    0.258938
     49          6           0        4.267528    0.734831    0.731169
     50          6           0        3.327730    2.330489    2.405575
     51          1           0        3.455841    1.536422    3.152249
     52          1           0        4.245212    2.925149    2.379882
     53          8           0        4.574354   -0.180561    1.505781
     54          6           0        2.207253    3.259085    2.894722
     55          8           0        2.443217    4.319539    3.430161
     56          8           0        0.963097    2.793886    2.733852
     57          7           0        4.994532    1.053057   -0.375874
     58          1           0        4.486174    1.643827   -1.024002
     59          6           0        5.966283    0.171192   -1.054391
     60          1           0        6.413485    0.800109   -1.830887
     61          6           0        5.171097   -0.943066   -1.759671
     62          6           0        7.084800   -0.410267   -0.180762
     63          1           0        7.784640   -0.888791   -0.875370
     64          1           0        6.670582   -1.222249    0.417931
     65          8           0        5.040883   -2.069047   -1.333991
     66          6           0        7.843098    0.619881    0.687585
     67          1           0        7.564600    1.642380    0.406083
     68          1           0        8.922306    0.541930    0.502785
     69          6           0        7.603009    0.499098    2.199252
     70          1           0        8.138719    1.293960    2.729467
     71          1           0        6.545482    0.597272    2.440948
     72          7           0        8.080787   -0.782115    2.753862
     73          1           0        9.078517   -0.947058    2.706440
     74          7           0        6.024573   -1.839100    3.087358
     75          1           0        5.485298   -2.507325    3.619359
     76          1           0        5.505333   -1.232059    2.429303
     77          7           0        7.982811   -2.792067    3.883907
     78          1           0        8.881383   -2.637518    4.316959
     79          1           0        7.491204   -3.636512    4.136544
     80          6           0        7.342450   -1.790482    3.235145
     81          8           0        4.599856   -0.465885   -2.875712
     82          1           0        2.051174   -0.757718   -2.267673
 ---------------------------------------------------------------------

 SCF Done:  E(RB3LYP) =  -2166.24502963     A.U. after    3 cycles

 Alpha  occ. eigenvalues --  -19.26040 -19.24028 -19.21630 -19.20018 -19.19821
 Alpha  occ. eigenvalues --  -19.19515 -19.18908 -19.18542 -19.16083 -19.13968
 Alpha  occ. eigenvalues --  -14.58664 -14.49777 -14.49713 -14.48674 -14.47833
 Alpha  occ. eigenvalues --  -14.43575 -14.43128 -14.34272 -10.45731 -10.42713
 Alpha  occ. eigenvalues --  -10.39793 -10.37593 -10.36895 -10.36197 -10.32914
 Alpha  occ. eigenvalues --  -10.32825 -10.32786 -10.32625 -10.32417 -10.31233
 Alpha  occ. eigenvalues --  -10.31177 -10.31173 -10.29981 -10.29776 -10.29422
 Alpha  occ. eigenvalues --  -10.29383 -10.29104 -10.28018 -10.27952 -10.27860
 Alpha  occ. eigenvalues --  -10.27590 -10.26777 -10.23506  -1.18444  -1.15417
 Alpha  occ. eigenvalues --   -1.14051  -1.12940  -1.11805  -1.11136  -1.09924
 Alpha  occ. eigenvalues --   -1.09304  -1.06800  -1.06609  -1.05737  -1.05055
 Alpha  occ. eigenvalues --   -1.03500  -1.01882  -1.01854  -0.99866  -0.99321
 Alpha  occ. eigenvalues --   -0.96656  -0.92787  -0.92075  -0.88730  -0.86982
 Alpha  occ. eigenvalues --   -0.85015  -0.84460  -0.84185  -0.82199  -0.79429
 Alpha  occ. eigenvalues --   -0.78312  -0.78238  -0.75184  -0.73554  -0.72882
 Alpha  occ. eigenvalues --   -0.72180  -0.71711  -0.71594  -0.71294  -0.70697
 Alpha  occ. eigenvalues --   -0.70126  -0.69235  -0.68862  -0.67615  -0.67022
 Alpha  occ. eigenvalues --   -0.65457  -0.64293  -0.64058  -0.62713  -0.62140
 Alpha  occ. eigenvalues --   -0.62042  -0.61734  -0.61326  -0.60727  -0.59833
 Alpha  occ. eigenvalues --   -0.58971  -0.57891  -0.57497  -0.57226  -0.56853
 Alpha  occ. eigenvalues --   -0.56665  -0.56182  -0.55930  -0.55311  -0.55143
 Alpha  occ. eigenvalues --   -0.54793  -0.53911  -0.53516  -0.53381  -0.53032
 Alpha  occ. eigenvalues --   -0.52621  -0.52438  -0.51958  -0.51837  -0.51117
 Alpha  occ. eigenvalues --   -0.50740  -0.50006  -0.49804  -0.49761  -0.49357
 Alpha  occ. eigenvalues --   -0.49179  -0.48549  -0.48072  -0.47117  -0.46995
 Alpha  occ. eigenvalues --   -0.46529  -0.46342  -0.45944  -0.45341  -0.45166
 Alpha  occ. eigenvalues --   -0.44878  -0.44793  -0.44688  -0.44488  -0.43575
 Alpha  occ. eigenvalues --   -0.42906  -0.42538  -0.41510  -0.40978  -0.40586
 Alpha  occ. eigenvalues --   -0.40369  -0.40354  -0.40119  -0.38845  -0.38318
 Alpha  occ. eigenvalues --   -0.37919  -0.37841  -0.37151  -0.35973  -0.35809
 Alpha  occ. eigenvalues --   -0.35519  -0.35346  -0.34568  -0.34041  -0.33247
 Alpha  occ. eigenvalues --   -0.32208  -0.31690  -0.31565  -0.30468  -0.29010
 Alpha  occ. eigenvalues --   -0.27797  -0.27365
 Alpha virt. eigenvalues --   -0.12489  -0.11486  -0.10235  -0.09660  -0.09090
 Alpha virt. eigenvalues --   -0.06828  -0.06362  -0.06047  -0.04799  -0.04237
 Alpha virt. eigenvalues --   -0.02335  -0.02287  -0.01368  -0.01223  -0.01033

 Mulliken charges:
               1
     1  N   -0.750479
     2  H    0.413474
     3  H    0.428230
     4  H    0.404992
     5  C   -0.126988
     6  H    0.208732
     7  C    0.667633
     8  C   -0.380570
     9  H    0.226117
    10  H    0.203533
    11  O   -0.525965
    12  C    0.131446
    13  C   -0.227982
    14  H    0.157830
    15  C   -0.180918
    16  H    0.141122
    17  C   -0.119810
    18  H    0.166883
    19  C   -0.122323
    20  H    0.164770
    21  C   -0.124375
    22  H    0.167141
    23  N   -0.576405
    24  H    0.346807
    25  C   -0.109406
    26  H    0.204512
    27  C    0.618079
    28  C   -0.039325
    29  H    0.141207
    30  H    0.166520
    31  O   -0.533264
    32  O   -0.681629
    33  H    0.439469
    34  N   -0.610974
    35  H    0.342127
    36  C   -0.096464
    37  H    0.203594
    38  C    0.588588
    39  C   -0.028217
    40  H    0.182451
    41  H    0.114733
    42  O   -0.668654
    43  O   -0.614519
    44  H    0.390851
    45  N   -0.577428
    46  H    0.427820
    47  C   -0.027805
    48  H    0.135906
    49  C    0.654663
    50  C   -0.394783
    51  H    0.174134
    52  H    0.153987
    53  O   -0.581820
    54  C    0.590885
    55  O   -0.470265
    56  O   -0.591173
    57  N   -0.593209
    58  H    0.355448
    59  C   -0.046443
    60  H    0.172950
    61  C    0.609996
    62  C   -0.280835
    63  H    0.158958
    64  H    0.174219
    65  O   -0.464147
    66  C   -0.279351
    67  H    0.177294
    68  H    0.147338
    69  C   -0.179627
    70  H    0.184107
    71  H    0.209354
    72  N   -0.593613
    73  H    0.353524
    74  N   -0.783723
    75  H    0.366117
    76  H    0.464687
    77  N   -0.770057
    78  H    0.373793
    79  H    0.375930
    80  C    0.808144
    81  O   -0.605143
    82  H    0.467591
 Sum of Mulliken charges =   1.00000

 Dipole moment (field-independent basis, Debye):
    X=              5.8637    Y=             -8.1607    Z=            -15.9647  Tot=             18.8640
 Quadrupole moment (field-independent basis, Debye-Ang):
   XX=             59.9164   YY=           -250.8100   ZZ=           -101.6703
   XY=            -50.5478   XZ=            179.8232   YZ=            -57.8899

 Normal termination of Gaussian 16 at Thu May 26 21:40:38 2022.
