 Gaussian 16, Revision C.01,
 Gaussian 16:  ES64L-G16RevC.01  3-Jul-2019

 -------------------------------------------------------------------
 # B3LYP/6-31G* guess=read geom=check nosymm integral(ultrafinegrid)
 -------------------------------------------------------------------

 ------------------------------------------------------
 Candidate Structure: Conf:234 Charge calc in gas phase
 ------------------------------------------------------
 Structure from the checkpoint file:  "conf-234.chk"
 Charge =  1 Multiplicity = 1

                          Input orientation:
 ---------------------------------------------------------------------
 Center     Atomic      Atomic             Coordinates (Angstroms)
 Number     Number       Type             X           Y           Z
 ---------------------------------------------------------------------
      1          7           0       -5.568585   -3.171534   -4.311236
      2          1           0       -5.575551   -2.325875   -4.889914
      3          1           0       -4.985877   -3.860649   -4.801488
      4          1           0       -6.526403   -3.534998   -4.216028
      5          6           0       -4.991493   -2.912149   -2.955990
      6          1           0       -5.528127   -2.071818   -2.507647
      7          6           0       -3.520503   -2.545660   -3.150321
      8          6           0       -5.180602   -4.152362   -2.061805
      9          1           0       -4.604642   -4.982865   -2.484801
     10          1           0       -4.751844   -3.930004   -1.080204
     11          8           0       -2.998872   -2.776590   -4.261295
     12          6           0       -6.641104   -4.538570   -1.945416
     13          6           0       -7.549873   -3.699303   -1.286577
     14          1           0       -7.197093   -2.777612   -0.830184
     15          6           0       -7.113563   -5.720689   -2.528465
     16          1           0       -6.420168   -6.384545   -3.039641
     17          6           0       -8.897350   -4.042127   -1.199444
     18          1           0       -9.586262   -3.385476   -0.677722
     19          6           0       -8.465170   -6.061097   -2.451054
     20          1           0       -8.814907   -6.982226   -2.905992
     21          6           0       -9.358487   -5.223036   -1.785014
     22          1           0      -10.408581   -5.488807   -1.718857
     23          7           0       -2.875302   -2.042957   -2.107823
     24          1           0       -3.355761   -1.749793   -1.256841
     25          6           0       -1.424309   -1.801097   -2.063246
     26          1           0       -0.898999   -2.720114   -2.344231
     27          6           0       -1.146097   -1.480370   -0.566041
     28          6           0       -0.983289   -0.680036   -3.013376
     29          1           0        0.029230   -0.235733   -2.809269
     30          1           0       -1.721961    0.118889   -3.022678
     31          8           0       -2.014531   -0.926885    0.098867
     32          8           0       -0.950687   -1.207510   -4.434175
     33          1           0       -0.069983   -1.588387   -4.622073
     34          7           0        0.094875   -1.797862   -0.143815
     35          1           0        0.616233   -2.439775   -0.723696
     36          6           0        0.549713   -1.688769    1.246047
     37          1           0       -0.299790   -1.283395    1.804623
     38          6           0        1.775748   -0.734097    1.387272
     39          6           0        0.939794   -3.051987    1.797995
     40          1           0        1.195236   -2.924678    2.855058
     41          1           0        1.836798   -3.421934    1.278300
     42          8           0        2.538899   -0.851685    2.344918
     43          8           0       -0.168384   -3.930985    1.614362
     44          1           0        0.100703   -4.807770    1.920188
     45          7           0        1.900797    0.146328    0.388920
     46          1           0        1.306548    0.050116   -0.437463
     47          6           0        3.037910    1.029788    0.160702
     48          1           0        3.936702    0.430140   -0.035957
     49          6           0        3.301045    1.932614    1.374444
     50          6           0        2.696792    1.864724   -1.091334
     51          1           0        1.828007    2.481579   -0.838759
     52          1           0        3.533368    2.507793   -1.367411
     53          8           0        2.381479    2.520395    1.943929
     54          6           0        2.370760    0.941228   -2.276243
     55          8           0        3.096187    0.855740   -3.255611
     56          8           0        1.254907    0.293560   -2.103652
     57          7           0        4.601155    2.017510    1.728874
     58          1           0        5.368804    1.823536    1.075683
     59          6           0        5.078602    2.936965    2.735602
     60          1           0        4.400205    3.794691    2.810935
     61          6           0        6.508051    3.421755    2.274854
     62          6           0        5.215161    2.276419    4.111423
     63          1           0        5.662403    3.022043    4.778770
     64          1           0        5.919591    1.438011    4.040411
     65          8           0        7.014960    4.301039    2.996940
     66          6           0        3.874494    1.777590    4.653936
     67          1           0        3.475887    0.998045    4.002010
     68          1           0        3.147279    2.595458    4.634883
     69          6           0        4.016092    1.233090    6.073035
     70          1           0        4.673504    0.359901    6.077692
     71          1           0        4.475981    1.968263    6.744299
     72          7           0        2.739601    0.781581    6.673289
     73          1           0        2.415922   -0.126534    6.361177
     74          7           0        1.958726    2.942609    7.075416
     75          1           0        1.366974    3.538033    7.636598
     76          1           0        2.870077    3.313881    6.848475
     77          7           0        0.587561    1.100085    7.476104
     78          1           0        0.572208    0.139826    7.792866
     79          1           0       -0.066655    1.708743    7.948168
     80          6           0        1.782082    1.612530    7.088271
     81          8           0        6.954804    2.843496    1.255584
     82          1           0       -1.663769   -1.922385   -4.524530
 ---------------------------------------------------------------------

 SCF Done:  E(RB3LYP) =  -2166.05906396     A.U. after    3 cycles

 Alpha  occ. eigenvalues --  -19.40877 -19.31312 -19.23467 -19.22681 -19.15140
 Alpha  occ. eigenvalues --  -19.11794 -19.10680 -19.09922 -19.04589 -19.04437
 Alpha  occ. eigenvalues --  -14.65132 -14.53136 -14.50531 -14.50413 -14.49661
 Alpha  occ. eigenvalues --  -14.46705 -14.37390 -14.33490 -10.47158 -10.46375
 Alpha  occ. eigenvalues --  -10.44420 -10.40934 -10.38807 -10.36885 -10.36607
 Alpha  occ. eigenvalues --  -10.34197 -10.32804 -10.32660 -10.32571 -10.31987
 Alpha  occ. eigenvalues --  -10.31931 -10.31668 -10.31088 -10.31039 -10.30571
 Alpha  occ. eigenvalues --  -10.28559 -10.27830 -10.24553 -10.22574 -10.22419
 Alpha  occ. eigenvalues --  -10.19695 -10.19633 -10.19359  -1.27513  -1.23180
 Alpha  occ. eigenvalues --   -1.19265  -1.15628  -1.14970  -1.10049  -1.09657
 Alpha  occ. eigenvalues --   -1.07007  -1.04347  -1.03797  -1.03607  -1.03025
 Alpha  occ. eigenvalues --   -1.02436  -1.00155  -0.97970  -0.96725  -0.96185
 Alpha  occ. eigenvalues --   -0.94348  -0.92009  -0.90978  -0.89023  -0.88943
 Alpha  occ. eigenvalues --   -0.87786  -0.85367  -0.84681  -0.83172  -0.81316
 Alpha  occ. eigenvalues --   -0.79402  -0.79186  -0.78400  -0.77591  -0.77440
 Alpha  occ. eigenvalues --   -0.75561  -0.75482  -0.74055  -0.72798  -0.72241
 Alpha  occ. eigenvalues --   -0.72146  -0.70655  -0.70164  -0.68993  -0.68064
 Alpha  occ. eigenvalues --   -0.67651  -0.66450  -0.66369  -0.64947  -0.64472
 Alpha  occ. eigenvalues --   -0.63838  -0.63274  -0.62976  -0.61800  -0.61157
 Alpha  occ. eigenvalues --   -0.60263  -0.60139  -0.59920  -0.59088  -0.58561
 Alpha  occ. eigenvalues --   -0.58225  -0.57252  -0.56844  -0.56236  -0.56166
 Alpha  occ. eigenvalues --   -0.56037  -0.55203  -0.55157  -0.54674  -0.54453
 Alpha  occ. eigenvalues --   -0.53619  -0.53228  -0.52379  -0.52271  -0.51763
 Alpha  occ. eigenvalues --   -0.51340  -0.49734  -0.49543  -0.49115  -0.48261
 Alpha  occ. eigenvalues --   -0.47973  -0.47746  -0.47337  -0.47323  -0.46501
 Alpha  occ. eigenvalues --   -0.46099  -0.45531  -0.44197  -0.44061  -0.43334
 Alpha  occ. eigenvalues --   -0.42706  -0.42440  -0.42293  -0.41991  -0.41495
 Alpha  occ. eigenvalues --   -0.41437  -0.40498  -0.39804  -0.38890  -0.38505
 Alpha  occ. eigenvalues --   -0.38270  -0.38264  -0.37999  -0.37722  -0.37157
 Alpha  occ. eigenvalues --   -0.36446  -0.36393  -0.35596  -0.35299  -0.35030
 Alpha  occ. eigenvalues --   -0.33869  -0.31955  -0.29175  -0.28451  -0.27111
 Alpha  occ. eigenvalues --   -0.26856  -0.24851  -0.24552  -0.23652  -0.19925
 Alpha  occ. eigenvalues --   -0.19176  -0.17994
 Alpha virt. eigenvalues --   -0.17202  -0.14689  -0.13601  -0.13246  -0.11048
 Alpha virt. eigenvalues --   -0.10884  -0.09281  -0.08879  -0.07728  -0.06977
 Alpha virt. eigenvalues --   -0.06952  -0.04648  -0.04087  -0.03277  -0.02448

 Mulliken charges:
               1
     1  N   -0.710090
     2  H    0.429404
     3  H    0.427900
     4  H    0.423413
     5  C   -0.143445
     6  H    0.227935
     7  C    0.659716
     8  C   -0.370416
     9  H    0.185649
    10  H    0.219415
    11  O   -0.616110
    12  C    0.120407
    13  C   -0.191113
    14  H    0.143617
    15  C   -0.209928
    16  H    0.145553
    17  C   -0.122665
    18  H    0.172042
    19  C   -0.121339
    20  H    0.171917
    21  C   -0.123330
    22  H    0.175087
    23  N   -0.603322
    24  H    0.378908
    25  C   -0.105148
    26  H    0.177961
    27  C    0.634128
    28  C   -0.147437
    29  H    0.342442
    30  H    0.208603
    31  O   -0.515819
    32  O   -0.618700
    33  H    0.490844
    34  N   -0.583807
    35  H    0.341179
    36  C   -0.084282
    37  H    0.206065
    38  C    0.629205
    39  C   -0.049795
    40  H    0.166477
    41  H    0.140932
    42  O   -0.558268
    43  O   -0.638922
    44  H    0.401385
    45  N   -0.636709
    46  H    0.407680
    47  C   -0.039859
    48  H    0.159528
    49  C    0.634793
    50  C   -0.366318
    51  H    0.157678
    52  H    0.177768
    53  O   -0.578532
    54  C    0.548362
    55  O   -0.520652
    56  O   -0.665908
    57  N   -0.604272
    58  H    0.352520
    59  C   -0.067151
    60  H    0.143418
    61  C    0.583836
    62  C   -0.254925
    63  H    0.147395
    64  H    0.140742
    65  O   -0.569758
    66  C   -0.296344
    67  H    0.204411
    68  H    0.149416
    69  C   -0.203258
    70  H    0.194847
    71  H    0.168569
    72  N   -0.568182
    73  H    0.369848
    74  N   -0.724694
    75  H    0.373317
    76  H    0.403027
    77  N   -0.742272
    78  H    0.373920
    79  H    0.369689
    80  C    0.781713
    81  O   -0.593719
    82  H    0.483826
 Sum of Mulliken charges =   1.00000

 Dipole moment (field-independent basis, Debye):
    X=            -44.8195    Y=            -27.2946    Z=              1.8065  Tot=             52.5075
 Quadrupole moment (field-independent basis, Debye-Ang):
   XX=           -210.7732   YY=           -192.7456   ZZ=             17.7032
   XY=             23.1892   XZ=            111.0112   YZ=             88.6166

 Normal termination of Gaussian 16 at Thu May 26 21:40:55 2022.
