 Gaussian 16, Revision C.01,
 Gaussian 16:  ES64L-G16RevC.01  3-Jul-2019

 -------------------------------------------------------------------
 # B3LYP/6-31G* guess=read geom=check nosymm integral(ultrafinegrid)
 -------------------------------------------------------------------

 -----------------------------------------------------
 Candidate Structure: Conf:90 Charge calc in gas phase
 -----------------------------------------------------
 Structure from the checkpoint file:  "conf-90.chk"
 Charge =  1 Multiplicity = 1

                          Input orientation:
 ---------------------------------------------------------------------
 Center     Atomic      Atomic             Coordinates (Angstroms)
 Number     Number       Type             X           Y           Z
 ---------------------------------------------------------------------
      1          7           0       -5.478137   -0.243088   -5.935507
      2          1           0       -4.849950   -0.211801   -6.739182
      3          1           0       -5.846105   -1.193533   -5.878876
      4          1           0       -6.251862    0.398332   -6.103104
      5          6           0       -4.760284    0.087885   -4.690540
      6          1           0       -4.276670    1.064742   -4.795159
      7          6           0       -3.691892   -0.979540   -4.464660
      8          6           0       -5.731766    0.163997   -3.505420
      9          1           0       -6.543119    0.830890   -3.813397
     10          1           0       -6.160809   -0.827651   -3.350261
     11          8           0       -3.766809   -2.067256   -5.048367
     12          6           0       -5.098107    0.674407   -2.236971
     13          6           0       -4.826740   -0.180295   -1.172074
     14          1           0       -5.084525   -1.230998   -1.247670
     15          6           0       -4.738360    2.015886   -2.134189
     16          1           0       -4.939255    2.674542   -2.974809
     17          6           0       -4.202935    0.302990   -0.023083
     18          1           0       -3.983525   -0.378965    0.792294
     19          6           0       -4.125209    2.504337   -0.984247
     20          1           0       -3.859213    3.552635   -0.921206
     21          6           0       -3.854241    1.645673    0.077274
     22          1           0       -3.376239    2.020360    0.973553
     23          7           0       -2.714167   -0.676935   -3.601884
     24          1           0       -2.656782    0.253154   -3.205300
     25          6           0       -1.798287   -1.652375   -3.020963
     26          1           0       -2.360769   -2.515043   -2.653652
     27          6           0       -1.143900   -0.922834   -1.855261
     28          6           0       -0.769367   -2.174281   -4.026525
     29          1           0        0.057987   -2.686128   -3.538781
     30          1           0       -0.398408   -1.354373   -4.633770
     31          8           0       -0.934611    0.286040   -1.895216
     32          8           0       -1.403376   -3.137012   -4.955898
     33          1           0       -1.421852   -4.029007   -4.566665
     34          7           0       -0.774716   -1.680989   -0.802004
     35          1           0       -1.014790   -2.657922   -0.782043
     36          6           0       -0.236212   -1.080751    0.404142
     37          1           0       -0.667140   -0.075362    0.492734
     38          6           0        1.281644   -0.919329    0.296638
     39          6           0       -0.610032   -1.892531    1.627082
     40          1           0       -0.245166   -2.919874    1.510544
     41          1           0       -1.700118   -1.913748    1.718422
     42          8           0        2.058429   -1.477284    1.083655
     43          8           0       -0.089915   -1.304883    2.806897
     44          1           0        0.855413   -1.185802    2.620322
     45          7           0        1.716992   -0.152670   -0.731432
     46          1           0        1.027269    0.427012   -1.194983
     47          6           0        3.065916    0.395315   -0.695900
     48          1           0        3.736520   -0.383004   -0.325310
     49          6           0        3.129286    1.602823    0.255438
     50          6           0        3.540398    0.794359   -2.084844
     51          1           0        3.523616   -0.083860   -2.730257
     52          1           0        2.918224    1.576411   -2.522458
     53          8           0        2.142016    2.234571    0.579703
     54          6           0        5.001220    1.296986   -2.015453
     55          8           0        5.290593    2.245802   -2.756472
     56          8           0        5.754379    0.673582   -1.235462
     57          7           0        4.368587    1.875561    0.754280
     58          1           0        5.190461    1.394174    0.385430
     59          6           0        4.496219    2.641259    1.959394
     60          1           0        3.652369    3.328469    2.029135
     61          6           0        5.850396    3.435729    1.995980
     62          6           0        4.565223    1.764662    3.221406
     63          1           0        4.577831    2.439471    4.079931
     64          1           0        5.519718    1.230195    3.211152
     65          8           0        6.810197    2.885240    1.430629
     66          6           0        3.420688    0.763910    3.323085
     67          1           0        3.491335    0.068951    2.496046
     68          1           0        2.461720    1.274447    3.223207
     69          6           0        3.437119   -0.028952    4.618732
     70          1           0        4.449866   -0.391793    4.828639
     71          1           0        3.142562    0.610063    5.452373
     72          7           0        2.483108   -1.151356    4.590814
     73          1           0        1.834712   -1.214684    5.361071
     74          7           0        3.862153   -2.521031    3.257874
     75          1           0        3.765382   -3.070855    2.416034
     76          1           0        4.460333   -1.719202    3.130060
     77          7           0        1.800721   -3.290400    4.067910
     78          1           0        0.828357   -3.004518    4.129535
     79          1           0        1.948625   -4.126038    3.523688
     80          6           0        2.726666   -2.308066    3.961215
     81          8           0        5.790689    4.496393    2.635656
     82          1           0       -2.364753   -2.819148   -5.072582
 ---------------------------------------------------------------------

 SCF Done:  E(RB3LYP) =  -2165.94843140     A.U. after    3 cycles

 Alpha  occ. eigenvalues --  -19.46413 -19.30415 -19.26841 -19.25889 -19.22372
 Alpha  occ. eigenvalues --  -19.13164 -19.06835 -19.06028 -19.05829 -19.05822
 Alpha  occ. eigenvalues --  -14.66267 -14.52699 -14.51697 -14.50378 -14.50126
 Alpha  occ. eigenvalues --  -14.49761 -14.43454 -14.34820 -10.46388 -10.45210
 Alpha  occ. eigenvalues --  -10.44413 -10.44347 -10.44015 -10.42351 -10.38631
 Alpha  occ. eigenvalues --  -10.36670 -10.35874 -10.35276 -10.33498 -10.32110
 Alpha  occ. eigenvalues --  -10.32085 -10.31914 -10.31535 -10.31184 -10.31009
 Alpha  occ. eigenvalues --  -10.29847 -10.25917 -10.24269 -10.24094 -10.24007
 Alpha  occ. eigenvalues --  -10.21895 -10.21301 -10.19197  -1.33824  -1.23372
 Alpha  occ. eigenvalues --   -1.20505  -1.19477  -1.15210  -1.14589  -1.12628
 Alpha  occ. eigenvalues --   -1.10139  -1.07965  -1.05776  -1.04200  -1.03319
 Alpha  occ. eigenvalues --   -1.00292  -1.00064  -0.99996  -0.99603  -0.97536
 Alpha  occ. eigenvalues --   -0.95605  -0.92568  -0.91131  -0.90616  -0.90059
 Alpha  occ. eigenvalues --   -0.89246  -0.87328  -0.86802  -0.86206  -0.83622
 Alpha  occ. eigenvalues --   -0.82681  -0.81501  -0.79940  -0.79493  -0.78294
 Alpha  occ. eigenvalues --   -0.77040  -0.76705  -0.75833  -0.74929  -0.73783
 Alpha  occ. eigenvalues --   -0.73137  -0.72116  -0.71679  -0.71228  -0.71157
 Alpha  occ. eigenvalues --   -0.69298  -0.68613  -0.67869  -0.67029  -0.66607
 Alpha  occ. eigenvalues --   -0.66136  -0.64510  -0.64255  -0.64104  -0.63290
 Alpha  occ. eigenvalues --   -0.62795  -0.62397  -0.62103  -0.61340  -0.60672
 Alpha  occ. eigenvalues --   -0.60476  -0.59025  -0.58692  -0.58613  -0.57990
 Alpha  occ. eigenvalues --   -0.57491  -0.57340  -0.56205  -0.55423  -0.55321
 Alpha  occ. eigenvalues --   -0.55197  -0.54744  -0.54684  -0.54571  -0.53746
 Alpha  occ. eigenvalues --   -0.53503  -0.53377  -0.52706  -0.51497  -0.50307
 Alpha  occ. eigenvalues --   -0.49436  -0.48970  -0.48320  -0.47990  -0.47484
 Alpha  occ. eigenvalues --   -0.47411  -0.46969  -0.46883  -0.46236  -0.45829
 Alpha  occ. eigenvalues --   -0.44963  -0.44240  -0.43967  -0.42711  -0.42346
 Alpha  occ. eigenvalues --   -0.41911  -0.41715  -0.41223  -0.40941  -0.40489
 Alpha  occ. eigenvalues --   -0.39301  -0.39006  -0.38799  -0.38583  -0.37867
 Alpha  occ. eigenvalues --   -0.37752  -0.37573  -0.37216  -0.36061  -0.35704
 Alpha  occ. eigenvalues --   -0.35248  -0.34459  -0.33607  -0.33053  -0.27280
 Alpha  occ. eigenvalues --   -0.25996  -0.21515  -0.21444  -0.20576  -0.19897
 Alpha  occ. eigenvalues --   -0.19228  -0.18668
 Alpha virt. eigenvalues --   -0.17687  -0.16388  -0.15640  -0.14041  -0.13463
 Alpha virt. eigenvalues --   -0.13117  -0.12417  -0.09785  -0.09656  -0.09347
 Alpha virt. eigenvalues --   -0.08249  -0.06296  -0.06025  -0.05289  -0.04839

 Mulliken charges:
               1
     1  N   -0.706382
     2  H    0.431658
     3  H    0.430275
     4  H    0.427940
     5  C   -0.153450
     6  H    0.216389
     7  C    0.587097
     8  C   -0.362112
     9  H    0.171889
    10  H    0.177345
    11  O   -0.638816
    12  C    0.160748
    13  C   -0.185400
    14  H    0.126936
    15  C   -0.195201
    16  H    0.135213
    17  C   -0.136183
    18  H    0.149903
    19  C   -0.116619
    20  H    0.180124
    21  C   -0.114205
    22  H    0.178402
    23  N   -0.610828
    24  H    0.385896
    25  C   -0.085114
    26  H    0.155521
    27  C    0.617053
    28  C   -0.097374
    29  H    0.236590
    30  H    0.261145
    31  O   -0.509420
    32  O   -0.582274
    33  H    0.465125
    34  N   -0.607233
    35  H    0.327155
    36  C   -0.097765
    37  H    0.230787
    38  C    0.640205
    39  C   -0.044260
    40  H    0.111262
    41  H    0.154452
    42  O   -0.586884
    43  O   -0.654352
    44  H    0.448068
    45  N   -0.598624
    46  H    0.369930
    47  C   -0.064456
    48  H    0.173691
    49  C    0.599104
    50  C   -0.367722
    51  H    0.115330
    52  H    0.136107
    53  O   -0.563766
    54  C    0.589638
    55  O   -0.527470
    56  O   -0.584723
    57  N   -0.588134
    58  H    0.398285
    59  C   -0.040150
    60  H    0.171465
    61  C    0.585395
    62  C   -0.279248
    63  H    0.165758
    64  H    0.149682
    65  O   -0.528069
    66  C   -0.299430
    67  H    0.156890
    68  H    0.172036
    69  C   -0.198975
    70  H    0.183577
    71  H    0.193547
    72  N   -0.554832
    73  H    0.370734
    74  N   -0.708727
    75  H    0.377983
    76  H    0.401741
    77  N   -0.736761
    78  H    0.377197
    79  H    0.362164
    80  C    0.722355
    81  O   -0.530735
    82  H    0.475905
 Sum of Mulliken charges =   1.00000

 Dipole moment (field-independent basis, Debye):
    X=            -45.6007    Y=            -29.6228    Z=            -17.6639  Tot=             57.1747
 Quadrupole moment (field-independent basis, Debye-Ang):
   XX=           -283.1881   YY=           -237.4091   ZZ=            -51.9588
   XY=            -95.0041   XZ=            162.6189   YZ=              0.6774

 Normal termination of Gaussian 16 at Thu May 26 21:41:09 2022.
