 Gaussian 16, Revision C.01,
 Gaussian 16:  ES64L-G16RevC.01  3-Jul-2019

 -------------------------------------------------------------------
 # B3LYP/6-31G* guess=read geom=check nosymm integral(ultrafinegrid)
 -------------------------------------------------------------------

 ------------------------------------------------------
 Candidate Structure: Conf:242 Charge calc in gas phase
 ------------------------------------------------------
 Structure from the checkpoint file:  "conf-242.chk"
 Charge =  1 Multiplicity = 1

                          Input orientation:
 ---------------------------------------------------------------------
 Center     Atomic      Atomic             Coordinates (Angstroms)
 Number     Number       Type             X           Y           Z
 ---------------------------------------------------------------------
      1          7           0       -2.565488   -3.616961   -3.009957
      2          1           0       -3.047982   -4.501728   -2.836715
      3          1           0       -2.129967   -3.600589   -3.951445
      4          1           0       -1.766376   -3.504145   -2.323647
      5          6           0       -3.491157   -2.415387   -2.973254
      6          1           0       -4.400829   -2.701256   -3.511022
      7          6           0       -2.695497   -1.370354   -3.809688
      8          6           0       -3.804729   -2.064454   -1.504898
      9          1           0       -4.120817   -2.993243   -1.009254
     10          1           0       -2.876860   -1.747825   -1.015815
     11          8           0       -1.853811   -1.809365   -4.600305
     12          6           0       -4.882968   -1.011899   -1.316960
     13          6           0       -4.574909    0.214012   -0.707469
     14          1           0       -3.556518    0.418724   -0.383238
     15          6           0       -6.203452   -1.257988   -1.721146
     16          1           0       -6.468740   -2.211910   -2.173367
     17          6           0       -5.569363    1.177297   -0.514986
     18          1           0       -5.317556    2.119539   -0.037550
     19          6           0       -7.193816   -0.296028   -1.528242
     20          1           0       -8.212953   -0.501214   -1.842212
     21          6           0       -6.878080    0.924741   -0.925724
     22          1           0       -7.651247    1.671840   -0.773775
     23          7           0       -2.894036   -0.058282   -3.572056
     24          1           0       -3.566091    0.191453   -2.850385
     25          6           0       -1.736974    0.861757   -3.704024
     26          1           0       -1.217306    0.613007   -4.630356
     27          6           0       -0.878140    0.530391   -2.471380
     28          6           0       -2.133221    2.343273   -3.716805
     29          1           0       -2.773713    2.567776   -2.854709
     30          1           0       -2.700702    2.552069   -4.629787
     31          8           0       -1.054335    1.097146   -1.391355
     32          8           0       -0.966004    3.139297   -3.721658
     33          1           0       -0.713826    3.360014   -2.800616
     34          7           0       -0.048448   -0.531807   -2.624405
     35          1           0        0.127448   -0.879746   -3.559103
     36          6           0        0.739026   -1.067986   -1.517510
     37          1           0        0.184614   -0.854377   -0.599739
     38          6           0        2.083827   -0.333123   -1.430038
     39          6           0        0.909653   -2.578978   -1.617792
     40          1           0        1.671198   -2.889732   -0.902950
     41          1           0        1.204581   -2.899798   -2.620101
     42          8           0        3.149693   -0.858447   -1.715587
     43          8           0       -0.338306   -3.260419   -1.312452
     44          1           0       -0.393986   -3.317645   -0.344162
     45          7           0        1.944293    0.960383   -1.015918
     46          1           0        1.013334    1.289614   -0.771214
     47          6           0        3.107917    1.772486   -0.690971
     48          1           0        3.845141    1.635626   -1.485146
     49          6           0        3.803050    1.282606    0.609352
     50          6           0        2.714095    3.267185   -0.603472
     51          1           0        2.229801    3.485164    0.351907
     52          1           0        3.622662    3.869279   -0.684365
     53          8           0        4.967493    1.578135    0.849086
     54          6           0        1.714984    3.618505   -1.687271
     55          8           0        0.532142    3.816378   -1.462012
     56          8           0        2.236827    3.605900   -2.924325
     57          7           0        3.012837    0.521686    1.411717
     58          1           0        2.136159    0.191490    1.021650
     59          6           0        3.552974   -0.481446    2.312232
     60          1           0        4.539821   -0.762563    1.920903
     61          6           0        2.656196   -1.767125    2.186938
     62          6           0        3.708271    0.001952    3.780902
     63          1           0        3.170498   -0.679859    4.449039
     64          1           0        3.210354    0.972104    3.873038
     65          8           0        1.733639   -1.766051    1.344558
     66          6           0        5.157632    0.164715    4.282663
     67          1           0        5.121050    0.376867    5.357149
     68          1           0        5.620734    1.029465    3.795527
     69          6           0        6.096544   -1.036051    4.031206
     70          1           0        6.556367   -0.951967    3.037955
     71          1           0        6.905822   -1.011967    4.771319
     72          7           0        5.370375   -2.313114    4.114549
     73          1           0        4.355965   -2.304988    3.838093
     74          7           0        7.207768   -3.765701    4.124505
     75          1           0        7.654938   -4.569297    3.711108
     76          1           0        7.806880   -3.041899    4.489143
     77          7           0        5.110674   -4.481601    3.411573
     78          1           0        4.161004   -4.211127    3.133873
     79          1           0        5.343463   -5.455029    3.537018
     80          6           0        5.905467   -3.507136    3.886226
     81          8           0        2.978919   -2.717547    2.970497
     82          1           0        1.508813    3.716752   -3.565055
 ---------------------------------------------------------------------

 SCF Done:  E(RB3LYP) =  -2166.27707266     A.U. after    3 cycles

 Alpha  occ. eigenvalues --  -19.28128 -19.27190 -19.26218 -19.22370 -19.22127
 Alpha  occ. eigenvalues --  -19.21788 -19.19353 -19.16882 -19.16150 -19.15892
 Alpha  occ. eigenvalues --  -14.57840 -14.48967 -14.47739 -14.46762 -14.45759
 Alpha  occ. eigenvalues --  -14.44597 -14.43229 -14.40040 -10.43256 -10.42612
 Alpha  occ. eigenvalues --  -10.40207 -10.40061 -10.39234 -10.36471 -10.33972
 Alpha  occ. eigenvalues --  -10.33914 -10.33756 -10.33542 -10.33447 -10.32321
 Alpha  occ. eigenvalues --  -10.32163 -10.31106 -10.31046 -10.30639 -10.29595
 Alpha  occ. eigenvalues --  -10.29243 -10.28994 -10.28856 -10.28696 -10.27903
 Alpha  occ. eigenvalues --  -10.27729 -10.25748 -10.24618  -1.18578  -1.18316
 Alpha  occ. eigenvalues --   -1.14439  -1.14005  -1.12096  -1.11361  -1.11292
 Alpha  occ. eigenvalues --   -1.09563  -1.09119  -1.09015  -1.08322  -1.05488
 Alpha  occ. eigenvalues --   -1.02926  -1.01164  -1.00469  -0.99935  -0.99375
 Alpha  occ. eigenvalues --   -0.96814  -0.96507  -0.92151  -0.88029  -0.86441
 Alpha  occ. eigenvalues --   -0.86059  -0.85125  -0.84588  -0.84036  -0.80455
 Alpha  occ. eigenvalues --   -0.79078  -0.77236  -0.75398  -0.74287  -0.73341
 Alpha  occ. eigenvalues --   -0.73009  -0.72352  -0.71757  -0.70793  -0.70661
 Alpha  occ. eigenvalues --   -0.68965  -0.68272  -0.68222  -0.67645  -0.67243
 Alpha  occ. eigenvalues --   -0.66783  -0.65126  -0.64130  -0.63812  -0.62777
 Alpha  occ. eigenvalues --   -0.62297  -0.61107  -0.61010  -0.60391  -0.60301
 Alpha  occ. eigenvalues --   -0.60111  -0.59838  -0.59277  -0.58581  -0.57935
 Alpha  occ. eigenvalues --   -0.57563  -0.56583  -0.56185  -0.56010  -0.55755
 Alpha  occ. eigenvalues --   -0.55661  -0.55147  -0.54528  -0.53829  -0.53418
 Alpha  occ. eigenvalues --   -0.52931  -0.52616  -0.52192  -0.52105  -0.51745
 Alpha  occ. eigenvalues --   -0.51472  -0.51437  -0.51339  -0.50581  -0.49897
 Alpha  occ. eigenvalues --   -0.49505  -0.49433  -0.49354  -0.48395  -0.48235
 Alpha  occ. eigenvalues --   -0.47828  -0.47556  -0.46812  -0.46516  -0.46157
 Alpha  occ. eigenvalues --   -0.45944  -0.45755  -0.45529  -0.45108  -0.44583
 Alpha  occ. eigenvalues --   -0.44162  -0.43987  -0.43492  -0.42588  -0.41421
 Alpha  occ. eigenvalues --   -0.41181  -0.40641  -0.40476  -0.40433  -0.39910
 Alpha  occ. eigenvalues --   -0.39607  -0.39338  -0.38243  -0.37309  -0.35987
 Alpha  occ. eigenvalues --   -0.35604  -0.35181  -0.35178  -0.35001  -0.34856
 Alpha  occ. eigenvalues --   -0.34614  -0.32194  -0.31970  -0.31710  -0.30136
 Alpha  occ. eigenvalues --   -0.29881  -0.29421
 Alpha virt. eigenvalues --   -0.13905  -0.10989  -0.10592  -0.08793  -0.07952
 Alpha virt. eigenvalues --   -0.07630  -0.07500  -0.05609  -0.03888  -0.03779
 Alpha virt. eigenvalues --   -0.03634  -0.02677  -0.01329  -0.01172  -0.00957

 Mulliken charges:
               1
     1  N   -0.778751
     2  H    0.401082
     3  H    0.420778
     4  H    0.453542
     5  C   -0.120272
     6  H    0.224780
     7  C    0.651632
     8  C   -0.381594
     9  H    0.179533
    10  H    0.191960
    11  O   -0.534716
    12  C    0.127471
    13  C   -0.228165
    14  H    0.179356
    15  C   -0.175264
    16  H    0.131173
    17  C   -0.123938
    18  H    0.167174
    19  C   -0.123433
    20  H    0.161957
    21  C   -0.121928
    22  H    0.164912
    23  N   -0.599695
    24  H    0.370938
    25  C   -0.084944
    26  H    0.198430
    27  C    0.617188
    28  C   -0.037040
    29  H    0.150840
    30  H    0.167353
    31  O   -0.542316
    32  O   -0.664559
    33  H    0.447849
    34  N   -0.602558
    35  H    0.356042
    36  C   -0.090090
    37  H    0.201679
    38  C    0.640530
    39  C   -0.070408
    40  H    0.223734
    41  H    0.166649
    42  O   -0.510869
    43  O   -0.667190
    44  H    0.434975
    45  N   -0.671484
    46  H    0.377331
    47  C   -0.025646
    48  H    0.210373
    49  C    0.594020
    50  C   -0.363036
    51  H    0.190640
    52  H    0.211095
    53  O   -0.525431
    54  C    0.583607
    55  O   -0.480276
    56  O   -0.548241
    57  N   -0.605781
    58  H    0.347831
    59  C   -0.056027
    60  H    0.164055
    61  C    0.601371
    62  C   -0.306828
    63  H    0.167217
    64  H    0.168818
    65  O   -0.590426
    66  C   -0.284027
    67  H    0.154965
    68  H    0.184807
    69  C   -0.171050
    70  H    0.185143
    71  H    0.155511
    72  N   -0.630453
    73  H    0.422047
    74  N   -0.760760
    75  H    0.368063
    76  H    0.376069
    77  N   -0.786414
    78  H    0.416153
    79  H    0.354530
    80  C    0.788896
    81  O   -0.620008
    82  H    0.429519
 Sum of Mulliken charges =   1.00000

 Dipole moment (field-independent basis, Debye):
    X=             -2.0757    Y=            -15.8782    Z=             -1.9651  Tot=             16.1334
 Quadrupole moment (field-independent basis, Debye-Ang):
   XX=            -90.7563   YY=           -165.3659   ZZ=           -192.2376
   XY=            -27.7856   XZ=             94.7550   YZ=             -0.6617

 Normal termination of Gaussian 16 at Thu May 26 21:41:13 2022.
