 Gaussian 16, Revision C.01,
 Gaussian 16:  ES64L-G16RevC.01  3-Jul-2019

 -------------------------------------------------------------------
 # B3LYP/6-31G* guess=read geom=check nosymm integral(ultrafinegrid)
 -------------------------------------------------------------------

 ------------------------------------------------------
 Candidate Structure: Conf:123 Charge calc in gas phase
 ------------------------------------------------------
 Structure from the checkpoint file:  "conf-123.chk"
 Charge =  1 Multiplicity = 1

                          Input orientation:
 ---------------------------------------------------------------------
 Center     Atomic      Atomic             Coordinates (Angstroms)
 Number     Number       Type             X           Y           Z
 ---------------------------------------------------------------------
      1          7           0       -5.064309   -3.855273   -5.260319
      2          1           0       -4.108635   -3.684673   -5.676286
      3          1           0       -5.028232   -4.723689   -4.697249
      4          1           0       -5.780091   -3.947538   -5.984545
      5          6           0       -5.260227   -2.668226   -4.344770
      6          1           0       -5.885114   -1.948034   -4.882601
      7          6           0       -3.823618   -2.073006   -4.251764
      8          6           0       -5.952747   -3.098502   -3.028779
      9          1           0       -5.979116   -2.231334   -2.360182
     10          1           0       -7.000245   -3.323829   -3.262325
     11          8           0       -2.976139   -2.495388   -5.047004
     12          6           0       -5.294548   -4.287554   -2.358108
     13          6           0       -5.729871   -5.590989   -2.660322
     14          1           0       -6.604902   -5.739966   -3.293589
     15          6           0       -4.231669   -4.119734   -1.459030
     16          1           0       -3.890753   -3.126563   -1.181833
     17          6           0       -5.100885   -6.701591   -2.088612
     18          1           0       -5.456128   -7.701368   -2.320546
     19          6           0       -3.613321   -5.227813   -0.880100
     20          1           0       -2.809656   -5.061371   -0.170032
     21          6           0       -4.040088   -6.519323   -1.201151
     22          1           0       -3.558201   -7.380269   -0.747557
     23          7           0       -3.625395   -1.096986   -3.362409
     24          1           0       -4.309043   -0.903809   -2.634830
     25          6           0       -2.312824   -0.518664   -3.066968
     26          1           0       -1.562507   -1.087267   -3.621654
     27          6           0       -2.125201   -0.651117   -1.546864
     28          6           0       -2.298930    0.976105   -3.494546
     29          1           0       -3.225430    1.440032   -3.144247
     30          1           0       -2.281764    1.029420   -4.591264
     31          8           0       -3.095473   -0.470193   -0.801919
     32          8           0       -1.252067    1.720708   -2.915941
     33          1           0       -0.353949    1.475422   -3.223207
     34          7           0       -0.879997   -0.938915   -1.145354
     35          1           0       -0.153583   -1.155805   -1.819638
     36          6           0       -0.439118   -0.947263    0.251017
     37          1           0       -1.011009   -0.177522    0.780856
     38          6           0        1.057412   -0.601387    0.148607
     39          6           0       -0.662638   -2.317220    0.917516
     40          1           0       -0.407117   -2.236598    1.984676
     41          1           0        0.006879   -3.050413    0.461248
     42          8           0        1.770061   -1.299518   -0.564048
     43          8           0       -1.984411   -2.798638    0.724139
     44          1           0       -2.605982   -2.083981    0.940096
     45          7           0        1.476054    0.522664    0.788413
     46          1           0        0.780893    1.087563    1.261135
     47          6           0        2.733140    1.175431    0.413851
     48          1           0        3.215807    0.485518   -0.283819
     49          6           0        3.712104    1.403123    1.584860
     50          6           0        2.458582    2.516565   -0.317521
     51          1           0        2.190313    3.295902    0.400791
     52          1           0        3.372471    2.820149   -0.830702
     53          8           0        4.687402    2.133492    1.415580
     54          6           0        1.330283    2.331871   -1.308566
     55          8           0        0.164768    2.803435   -0.832737
     56          8           0        1.430582    1.755962   -2.382751
     57          7           0        3.409599    0.756764    2.724212
     58          1           0        2.626668    0.107846    2.790916
     59          6           0        4.271448    0.686945    3.896411
     60          1           0        5.287391    0.421390    3.578810
     61          6           0        3.690840   -0.477548    4.765910
     62          6           0        4.329721    2.070506    4.619753
     63          1           0        3.450207    2.181490    5.268657
     64          1           0        4.228245    2.815007    3.826989
     65          8           0        4.438051   -0.869477    5.731101
     66          6           0        5.631191    2.407755    5.396029
     67          1           0        5.947681    3.425356    5.140861
     68          1           0        6.447913    1.752497    5.067406
     69          6           0        5.541680    2.350937    6.928322
     70          1           0        6.497903    2.676194    7.360847
     71          1           0        4.761732    3.033692    7.292158
     72          7           0        5.232193    0.983708    7.344450
     73          1           0        5.165087    0.266448    6.570833
     74          7           0        4.435346    1.436494    9.492647
     75          1           0        3.876601    1.164594   10.287358
     76          1           0        5.138725    2.143071    9.647114
     77          7           0        3.869146   -0.540982    8.375741
     78          1           0        3.852477   -1.027835    7.460414
     79          1           0        3.577596   -1.008736    9.220395
     80          6           0        4.527426    0.626298    8.409833
     81          8           0        2.573647   -0.922330    4.466056
     82          1           0       -0.547645    2.581724   -1.480431
 ---------------------------------------------------------------------

 SCF Done:  E(RB3LYP) =  -2166.27542642     A.U. after    2 cycles

 Alpha  occ. eigenvalues --  -19.27173 -19.25831 -19.25153 -19.22688 -19.22324
 Alpha  occ. eigenvalues --  -19.21207 -19.19967 -19.15290 -19.13856 -19.12931
 Alpha  occ. eigenvalues --  -14.59396 -14.50363 -14.46474 -14.46015 -14.44602
 Alpha  occ. eigenvalues --  -14.43391 -14.42339 -14.39111 -10.44210 -10.41111
 Alpha  occ. eigenvalues --  -10.40550 -10.39473 -10.39214 -10.37408 -10.34970
 Alpha  occ. eigenvalues --  -10.34524 -10.34281 -10.32978 -10.32474 -10.31654
 Alpha  occ. eigenvalues --  -10.31255 -10.31253 -10.30492 -10.30185 -10.29639
 Alpha  occ. eigenvalues --  -10.29481 -10.29312 -10.29032 -10.28732 -10.26432
 Alpha  occ. eigenvalues --  -10.26190 -10.24739 -10.23515  -1.19613  -1.17148
 Alpha  occ. eigenvalues --   -1.14406  -1.13625  -1.12292  -1.12049  -1.09788
 Alpha  occ. eigenvalues --   -1.09301  -1.08078  -1.07415  -1.06698  -1.06422
 Alpha  occ. eigenvalues --   -1.02634  -1.00922  -0.99120  -0.97728  -0.97242
 Alpha  occ. eigenvalues --   -0.96982  -0.95484  -0.93047  -0.88691  -0.86476
 Alpha  occ. eigenvalues --   -0.85367  -0.84939  -0.84647  -0.83684  -0.79712
 Alpha  occ. eigenvalues --   -0.79311  -0.76668  -0.75812  -0.74384  -0.74133
 Alpha  occ. eigenvalues --   -0.72973  -0.72353  -0.71662  -0.70904  -0.70578
 Alpha  occ. eigenvalues --   -0.69370  -0.69025  -0.67714  -0.66774  -0.66440
 Alpha  occ. eigenvalues --   -0.66162  -0.65375  -0.63912  -0.63016  -0.62736
 Alpha  occ. eigenvalues --   -0.61970  -0.61151  -0.60805  -0.60286  -0.59416
 Alpha  occ. eigenvalues --   -0.59199  -0.58211  -0.57920  -0.57581  -0.57335
 Alpha  occ. eigenvalues --   -0.56865  -0.56585  -0.56443  -0.56108  -0.55419
 Alpha  occ. eigenvalues --   -0.55100  -0.54024  -0.53950  -0.53596  -0.53310
 Alpha  occ. eigenvalues --   -0.53160  -0.52804  -0.52687  -0.52420  -0.51513
 Alpha  occ. eigenvalues --   -0.51338  -0.51115  -0.50683  -0.50148  -0.49774
 Alpha  occ. eigenvalues --   -0.49580  -0.48768  -0.48203  -0.47781  -0.47103
 Alpha  occ. eigenvalues --   -0.46783  -0.46707  -0.46332  -0.45909  -0.45237
 Alpha  occ. eigenvalues --   -0.45082  -0.44694  -0.44590  -0.44531  -0.44145
 Alpha  occ. eigenvalues --   -0.43794  -0.43177  -0.41999  -0.41784  -0.41644
 Alpha  occ. eigenvalues --   -0.40881  -0.40679  -0.39741  -0.39187  -0.38740
 Alpha  occ. eigenvalues --   -0.38268  -0.38056  -0.36753  -0.36465  -0.36126
 Alpha  occ. eigenvalues --   -0.35787  -0.35513  -0.34912  -0.34771  -0.34595
 Alpha  occ. eigenvalues --   -0.33249  -0.33163  -0.30056  -0.29233  -0.28662
 Alpha  occ. eigenvalues --   -0.28125  -0.27169
 Alpha virt. eigenvalues --   -0.13160  -0.11830  -0.11658  -0.09039  -0.08728
 Alpha virt. eigenvalues --   -0.06583  -0.06096  -0.05302  -0.04732  -0.03743
 Alpha virt. eigenvalues --   -0.02079  -0.01781  -0.01606  -0.01272  -0.00782

 Mulliken charges:
               1
     1  N   -0.755507
     2  H    0.434493
     3  H    0.405621
     4  H    0.410960
     5  C   -0.114347
     6  H    0.228284
     7  C    0.658576
     8  C   -0.391848
     9  H    0.201500
    10  H    0.190327
    11  O   -0.527686
    12  C    0.139610
    13  C   -0.239391
    14  H    0.138809
    15  C   -0.193398
    16  H    0.161596
    17  C   -0.117846
    18  H    0.162811
    19  C   -0.130233
    20  H    0.194071
    21  C   -0.123247
    22  H    0.167050
    23  N   -0.599825
    24  H    0.368073
    25  C   -0.124631
    26  H    0.200031
    27  C    0.674479
    28  C   -0.006264
    29  H    0.169881
    30  H    0.164916
    31  O   -0.570738
    32  O   -0.650890
    33  H    0.430732
    34  N   -0.594166
    35  H    0.364099
    36  C   -0.087487
    37  H    0.170060
    38  C    0.601304
    39  C   -0.017303
    40  H    0.167351
    41  H    0.178876
    42  O   -0.509304
    43  O   -0.623900
    44  H    0.408539
    45  N   -0.625703
    46  H    0.346922
    47  C   -0.072680
    48  H    0.231838
    49  C    0.632652
    50  C   -0.336982
    51  H    0.178707
    52  H    0.217427
    53  O   -0.545456
    54  C    0.586406
    55  O   -0.591199
    56  O   -0.502945
    57  N   -0.633716
    58  H    0.356279
    59  C   -0.036388
    60  H    0.167276
    61  C    0.593077
    62  C   -0.281542
    63  H    0.136152
    64  H    0.179747
    65  O   -0.638896
    66  C   -0.303242
    67  H    0.161878
    68  H    0.169504
    69  C   -0.145614
    70  H    0.158641
    71  H    0.159311
    72  N   -0.612241
    73  H    0.418000
    74  N   -0.757935
    75  H    0.361058
    76  H    0.370071
    77  N   -0.780726
    78  H    0.416102
    79  H    0.346066
    80  C    0.769747
    81  O   -0.551754
    82  H    0.446122
 Sum of Mulliken charges =   1.00000

 Dipole moment (field-independent basis, Debye):
    X=            -17.1441    Y=             -8.5914    Z=             -1.8589  Tot=             19.2663
 Quadrupole moment (field-independent basis, Debye-Ang):
   XX=           -119.6354   YY=           -180.5544   ZZ=              8.9073
   XY=             93.5682   XZ=            172.0309   YZ=             92.0163

 Normal termination of Gaussian 16 at Thu May 26 21:40:38 2022.
