 Gaussian 16, Revision C.01,
 Gaussian 16:  ES64L-G16RevC.01  3-Jul-2019

 -------------------------------------------------------------------
 # B3LYP/6-31G* guess=read geom=check nosymm integral(ultrafinegrid)
 -------------------------------------------------------------------

 ------------------------------------------------------
 Candidate Structure: Conf:962 Charge calc in gas phase
 ------------------------------------------------------
 Structure from the checkpoint file:  "conf-962.chk"
 Charge =  1 Multiplicity = 1

                          Input orientation:
 ---------------------------------------------------------------------
 Center     Atomic      Atomic             Coordinates (Angstroms)
 Number     Number       Type             X           Y           Z
 ---------------------------------------------------------------------
      1          7           0       -0.988895    2.810871   -0.829407
      2          1           0       -1.092466    3.222543   -1.761915
      3          1           0       -0.942332    3.551130   -0.125470
      4          1           0       -0.007753    2.184836   -0.734594
      5          6           0       -2.137317    1.882858   -0.563799
      6          1           0       -1.903980    1.391645    0.384419
      7          6           0       -2.117077    0.899209   -1.752432
      8          6           0       -3.471847    2.640192   -0.471670
      9          1           0       -3.368342    3.431689    0.282150
     10          1           0       -3.656585    3.121615   -1.438399
     11          8           0       -2.349388    1.321527   -2.884926
     12          6           0       -4.627386    1.728407   -0.108759
     13          6           0       -5.407708    1.132999   -1.108833
     14          1           0       -5.190984    1.343909   -2.152945
     15          6           0       -4.918086    1.448752    1.233091
     16          1           0       -4.328611    1.914410    2.020662
     17          6           0       -6.457543    0.277018   -0.772688
     18          1           0       -7.060413   -0.170158   -1.558272
     19          6           0       -5.966496    0.592349    1.570458
     20          1           0       -6.185363    0.392040    2.615679
     21          6           0       -6.738958    0.004188    0.567055
     22          1           0       -7.560529   -0.656784    0.828493
     23          7           0       -1.781979   -0.363993   -1.437744
     24          1           0       -1.539194   -0.608747   -0.482196
     25          6           0       -1.557517   -1.448153   -2.381747
     26          1           0       -2.494521   -1.694386   -2.899329
     27          6           0       -1.082290   -2.628777   -1.515343
     28          6           0       -0.475291   -1.121662   -3.444437
     29          1           0       -0.684893   -0.126607   -3.844364
     30          1           0       -0.569971   -1.835998   -4.273140
     31          8           0       -0.902537   -2.477713   -0.296789
     32          8           0        0.830706   -1.159888   -2.885075
     33          1           0        1.326173   -1.886684   -3.314736
     34          7           0       -0.785534   -3.786019   -2.133688
     35          1           0       -0.818437   -3.878084   -3.144201
     36          6           0       -0.101677   -4.884049   -1.444829
     37          1           0       -0.520053   -4.962413   -0.435582
     38          6           0        1.423804   -4.604865   -1.339836
     39          6           0       -0.342012   -6.171574   -2.240200
     40          1           0       -1.411126   -6.400888   -2.244965
     41          1           0        0.194320   -7.000664   -1.765111
     42          8           0        2.260638   -5.396611   -1.770988
     43          8           0        0.045179   -5.992617   -3.593718
     44          1           0        1.017808   -5.954113   -3.586116
     45          7           0        1.754018   -3.416809   -0.767720
     46          1           0        0.996401   -2.833715   -0.418706
     47          6           0        3.127980   -2.936337   -0.677843
     48          1           0        3.762580   -3.763945   -0.354290
     49          6           0        3.167522   -1.871817    0.431578
     50          6           0        3.715636   -2.348894   -1.999968
     51          1           0        3.244997   -1.391875   -2.233005
     52          1           0        4.786224   -2.184540   -1.846805
     53          8           0        3.753493   -2.108147    1.509542
     54          6           0        3.506632   -3.237188   -3.205951
     55          8           0        2.498643   -3.216612   -3.896853
     56          8           0        4.548314   -4.033745   -3.456575
     57          7           0        2.535303   -0.716919    0.188368
     58          1           0        2.034125   -0.538708   -0.684994
     59          6           0        2.355275    0.316234    1.210314
     60          1           0        2.046804   -0.174943    2.138260
     61          6           0        1.212899    1.264207    0.780066
     62          6           0        3.641482    1.158611    1.462694
     63          1           0        3.666077    1.977862    0.737326
     64          1           0        4.528420    0.549174    1.249019
     65          8           0        0.626462    1.923109    1.645428
     66          6           0        3.691573    1.720551    2.902299
     67          1           0        2.668590    1.825576    3.277275
     68          1           0        4.124005    2.726576    2.900140
     69          6           0        4.543012    0.887410    3.877564
     70          1           0        5.610791    1.063768    3.689184
     71          1           0        4.325345    1.207589    4.903283
     72          7           0        4.270789   -0.549535    3.747875
     73          1           0        4.034943   -0.915249    2.812714
     74          7           0        5.052455   -1.222756    5.848932
     75          1           0        5.019765   -1.914290    6.584228
     76          1           0        5.192121   -0.266359    6.137732
     77          7           0        4.259320   -2.779064    4.312854
     78          1           0        4.010304   -2.977371    3.345012
     79          1           0        4.672365   -3.530681    4.845975
     80          6           0        4.534337   -1.499216    4.635761
     81          8           0        1.015614    1.303223   -0.492606
     82          1           0        4.315099   -4.598844   -4.218405
 ---------------------------------------------------------------------

 SCF Done:  E(RB3LYP) =  -2166.31995639     A.U. after    2 cycles

 Alpha  occ. eigenvalues --  -19.29023 -19.24282 -19.23922 -19.22144 -19.22141
 Alpha  occ. eigenvalues --  -19.21885 -19.21343 -19.20270 -19.20174 -19.18359
 Alpha  occ. eigenvalues --  -14.51222 -14.49647 -14.49566 -14.49408 -14.46901
 Alpha  occ. eigenvalues --  -14.46063 -14.45258 -14.44543 -10.46694 -10.42165
 Alpha  occ. eigenvalues --  -10.40735 -10.39122 -10.38255 -10.37577 -10.37029
 Alpha  occ. eigenvalues --  -10.35067 -10.34686 -10.33406 -10.32574 -10.32383
 Alpha  occ. eigenvalues --  -10.32381 -10.31669 -10.31311 -10.30207 -10.29335
 Alpha  occ. eigenvalues --  -10.29178 -10.27947 -10.26570 -10.25473 -10.25239
 Alpha  occ. eigenvalues --  -10.25194 -10.25127 -10.25063  -1.20232  -1.15609
 Alpha  occ. eigenvalues --   -1.14987  -1.14433  -1.13102  -1.12939  -1.12110
 Alpha  occ. eigenvalues --   -1.11207  -1.09554  -1.09129  -1.05128  -1.04550
 Alpha  occ. eigenvalues --   -1.04081  -1.03406  -1.03091  -1.02405  -1.01369
 Alpha  occ. eigenvalues --   -1.01068  -0.92183  -0.90701  -0.89180  -0.87326
 Alpha  occ. eigenvalues --   -0.85991  -0.85137  -0.83168  -0.80644  -0.80541
 Alpha  occ. eigenvalues --   -0.79809  -0.78227  -0.76641  -0.74982  -0.73462
 Alpha  occ. eigenvalues --   -0.72467  -0.72209  -0.71892  -0.70266  -0.69563
 Alpha  occ. eigenvalues --   -0.68624  -0.67954  -0.67821  -0.67117  -0.66323
 Alpha  occ. eigenvalues --   -0.65939  -0.65660  -0.65175  -0.63965  -0.63363
 Alpha  occ. eigenvalues --   -0.63032  -0.62261  -0.60860  -0.60650  -0.60205
 Alpha  occ. eigenvalues --   -0.59502  -0.58994  -0.58293  -0.58138  -0.57718
 Alpha  occ. eigenvalues --   -0.57229  -0.57035  -0.56515  -0.55928  -0.55884
 Alpha  occ. eigenvalues --   -0.55783  -0.55613  -0.54691  -0.54567  -0.53863
 Alpha  occ. eigenvalues --   -0.53684  -0.52997  -0.52311  -0.52220  -0.51963
 Alpha  occ. eigenvalues --   -0.51576  -0.51339  -0.51088  -0.50392  -0.50252
 Alpha  occ. eigenvalues --   -0.49763  -0.49378  -0.49118  -0.48456  -0.48214
 Alpha  occ. eigenvalues --   -0.48196  -0.47932  -0.47698  -0.47235  -0.47005
 Alpha  occ. eigenvalues --   -0.46804  -0.46503  -0.45731  -0.45551  -0.45253
 Alpha  occ. eigenvalues --   -0.45111  -0.44756  -0.44148  -0.41971  -0.41928
 Alpha  occ. eigenvalues --   -0.41548  -0.41324  -0.41145  -0.40675  -0.40285
 Alpha  occ. eigenvalues --   -0.39057  -0.38842  -0.37959  -0.37665  -0.37250
 Alpha  occ. eigenvalues --   -0.36981  -0.35829  -0.35425  -0.35283  -0.34789
 Alpha  occ. eigenvalues --   -0.34609  -0.34103  -0.33506  -0.32738  -0.32295
 Alpha  occ. eigenvalues --   -0.31251  -0.30912
 Alpha virt. eigenvalues --   -0.10736  -0.10695  -0.09074  -0.08398  -0.07462
 Alpha virt. eigenvalues --   -0.06884  -0.06838  -0.06363  -0.05980  -0.04077
 Alpha virt. eigenvalues --   -0.03394  -0.02172  -0.01453  -0.00888  -0.00100

 Mulliken charges:
               1
     1  N   -0.775622
     2  H    0.380838
     3  H    0.380934
     4  H    0.468572
     5  C   -0.088630
     6  H    0.192676
     7  C    0.653552
     8  C   -0.362108
     9  H    0.156155
    10  H    0.180150
    11  O   -0.541898
    12  C    0.152430
    13  C   -0.183595
    14  H    0.152154
    15  C   -0.184053
    16  H    0.128540
    17  C   -0.130749
    18  H    0.143883
    19  C   -0.126966
    20  H    0.141641
    21  C   -0.126392
    22  H    0.144057
    23  N   -0.615848
    24  H    0.370399
    25  C   -0.042505
    26  H    0.191274
    27  C    0.635808
    28  C   -0.068547
    29  H    0.200766
    30  H    0.142973
    31  O   -0.564892
    32  O   -0.674939
    33  H    0.445435
    34  N   -0.598952
    35  H    0.361804
    36  C   -0.093142
    37  H    0.198384
    38  C    0.631473
    39  C   -0.053707
    40  H    0.169337
    41  H    0.166963
    42  O   -0.540214
    43  O   -0.627169
    44  H    0.414946
    45  N   -0.649445
    46  H    0.389497
    47  C   -0.011379
    48  H    0.204565
    49  C    0.598914
    50  C   -0.376667
    51  H    0.201465
    52  H    0.192953
    53  O   -0.587722
    54  C    0.624638
    55  O   -0.491307
    56  O   -0.536945
    57  N   -0.608010
    58  H    0.401866
    59  C   -0.032508
    60  H    0.170239
    61  C    0.589979
    62  C   -0.310349
    63  H    0.183526
    64  H    0.157385
    65  O   -0.557496
    66  C   -0.290260
    67  H    0.200407
    68  H    0.171119
    69  C   -0.162740
    70  H    0.184682
    71  H    0.163704
    72  N   -0.644401
    73  H    0.437081
    74  N   -0.760435
    75  H    0.377201
    76  H    0.382109
    77  N   -0.777099
    78  H    0.409407
    79  H    0.366388
    80  C    0.797437
    81  O   -0.641442
    82  H    0.428430
 Sum of Mulliken charges =   1.00000

 Dipole moment (field-independent basis, Debye):
    X=             12.9694    Y=             -4.4755    Z=             11.5837  Tot=             17.9560
 Quadrupole moment (field-independent basis, Debye-Ang):
   XX=           -149.8298   YY=           -202.0650   ZZ=           -153.2902
   XY=            -21.2840   XZ=             66.9009   YZ=            -12.4961

 Normal termination of Gaussian 16 at Thu May 26 21:40:28 2022.
