 Gaussian 16, Revision C.01,
 Gaussian 16:  ES64L-G16RevC.01  3-Jul-2019

 -------------------------------------------------------------------
 # B3LYP/6-31G* guess=read geom=check nosymm integral(ultrafinegrid)
 -------------------------------------------------------------------

 ------------------------------------------------------
 Candidate Structure: Conf:549 Charge calc in gas phase
 ------------------------------------------------------
 Structure from the checkpoint file:  "conf-549.chk"
 Charge =  1 Multiplicity = 1

                          Input orientation:
 ---------------------------------------------------------------------
 Center     Atomic      Atomic             Coordinates (Angstroms)
 Number     Number       Type             X           Y           Z
 ---------------------------------------------------------------------
      1          7           0       -2.204140    2.377460   -7.217362
      2          1           0       -1.320668    2.612751   -7.678572
      3          1           0       -2.622231    1.547150   -7.711853
      4          1           0       -2.818330    3.206368   -7.238127
      5          6           0       -2.012234    1.877852   -5.803738
      6          1           0       -1.048140    2.240531   -5.441228
      7          6           0       -2.030000    0.337313   -5.964734
      8          6           0       -3.167153    2.387611   -4.905253
      9          1           0       -4.091671    1.875914   -5.198825
     10          1           0       -2.941031    2.069504   -3.881861
     11          8           0       -2.490935   -0.130220   -7.015400
     12          6           0       -3.340267    3.889865   -4.990943
     13          6           0       -2.470872    4.754238   -4.308541
     14          1           0       -1.699063    4.345799   -3.659548
     15          6           0       -4.343624    4.439630   -5.805892
     16          1           0       -5.060399    3.784400   -6.299500
     17          6           0       -2.604041    6.135873   -4.437164
     18          1           0       -1.933612    6.794211   -3.892683
     19          6           0       -4.472753    5.826436   -5.938198
     20          1           0       -5.262644    6.237688   -6.559694
     21          6           0       -3.601579    6.674494   -5.255902
     22          1           0       -3.704402    7.751240   -5.350427
     23          7           0       -1.558142   -0.350525   -4.930543
     24          1           0       -1.275375    0.112858   -4.064419
     25          6           0       -1.553577   -1.809002   -4.803814
     26          1           0       -2.550237   -2.196432   -5.053831
     27          6           0       -1.297692   -2.048306   -3.291236
     28          6           0       -0.545454   -2.449534   -5.779480
     29          1           0       -0.880089   -2.223489   -6.799802
     30          1           0       -0.559325   -3.538704   -5.670193
     31          8           0       -1.388765   -1.095766   -2.509458
     32          8           0        0.790825   -2.020229   -5.587113
     33          1           0        2.139793   -2.146229   -4.343055
     34          7           0       -1.018179   -3.300829   -2.902887
     35          1           0       -0.821949   -4.048356   -3.562360
     36          6           0       -0.684164   -3.643732   -1.514877
     37          1           0       -1.366407   -3.104187   -0.851011
     38          6           0        0.786593   -3.242222   -1.241083
     39          6           0       -0.852638   -5.165020   -1.374788
     40          1           0       -1.909301   -5.430742   -1.473856
     41          1           0       -0.507212   -5.479326   -0.381427
     42          8           0        1.697913   -4.058848   -1.395359
     43          8           0       -0.156283   -5.828791   -2.416332
     44          1           0        0.785081   -5.615462   -2.249115
     45          7           0        0.970277   -1.948405   -0.895173
     46          1           0        0.165846   -1.360024   -0.707829
     47          6           0        2.275263   -1.327786   -0.718495
     48          1           0        3.020553   -2.117964   -0.818855
     49          6           0        2.302987   -0.653573    0.669589
     50          6           0        2.508725   -0.220568   -1.783879
     51          1           0        1.929500    0.669929   -1.528092
     52          1           0        3.570899    0.053773   -1.789248
     53          8           0        1.291613   -0.074876    1.074911
     54          6           0        2.097439   -0.646882   -3.174078
     55          8           0        1.373549    0.027460   -3.905266
     56          8           0        2.582396   -1.838204   -3.514437
     57          7           0        3.477920   -0.705923    1.313552
     58          1           0        4.295705   -1.191397    0.944928
     59          6           0        3.778230   -0.008636    2.560142
     60          1           0        3.326268    0.987745    2.534997
     61          6           0        5.325858    0.091145    2.631031
     62          6           0        3.210753   -0.811153    3.763364
     63          1           0        3.808301   -1.725720    3.876713
     64          1           0        2.202766   -1.129094    3.475289
     65          8           0        5.773855    1.004194    3.408268
     66          6           0        3.070787   -0.086587    5.115139
     67          1           0        2.460618   -0.725757    5.771068
     68          1           0        2.488133    0.833754    4.977320
     69          6           0        4.346124    0.316632    5.870697
     70          1           0        4.914656    1.025938    5.274027
     71          1           0        4.066593    0.787925    6.821783
     72          7           0        5.214098   -0.834893    6.175692
     73          1           0        4.766986   -1.633835    6.607108
     74          7           0        7.216737   -0.119383    5.199183
     75          1           0        8.218474   -0.246501    5.144423
     76          1           0        6.728017    0.419226    4.378312
     77          7           0        7.155381   -2.008860    6.573441
     78          1           0        6.814785   -2.340150    7.464692
     79          1           0        8.132129   -2.179590    6.384896
     80          6           0        6.536791   -0.955159    5.964225
     81          8           0        5.979790   -0.753831    1.999700
     82          1           0        0.811426   -1.069627   -5.338170
 ---------------------------------------------------------------------

 SCF Done:  E(RB3LYP) =  -2166.28277425     A.U. after    1 cycles

 Alpha  occ. eigenvalues --  -19.26573 -19.26469 -19.24653 -19.22617 -19.22336
 Alpha  occ. eigenvalues --  -19.20947 -19.19226 -19.16313 -19.13386 -19.12834
 Alpha  occ. eigenvalues --  -14.59496 -14.49199 -14.46119 -14.45904 -14.45567
 Alpha  occ. eigenvalues --  -14.43199 -14.42405 -14.40194 -10.43308 -10.41210
 Alpha  occ. eigenvalues --  -10.40536 -10.40381 -10.39574 -10.36413 -10.35194
 Alpha  occ. eigenvalues --  -10.34113 -10.33863 -10.33718 -10.32065 -10.31611
 Alpha  occ. eigenvalues --  -10.30980 -10.30821 -10.30711 -10.30387 -10.30351
 Alpha  occ. eigenvalues --  -10.30138 -10.29988 -10.29754 -10.28420 -10.27515
 Alpha  occ. eigenvalues --  -10.26200 -10.24942 -10.23697  -1.18831  -1.18340
 Alpha  occ. eigenvalues --   -1.14555  -1.13523  -1.11926  -1.11239  -1.09596
 Alpha  occ. eigenvalues --   -1.09214  -1.08487  -1.08097  -1.06526  -1.05795
 Alpha  occ. eigenvalues --   -1.02184  -0.99619  -0.99270  -0.98522  -0.97463
 Alpha  occ. eigenvalues --   -0.96788  -0.96279  -0.93052  -0.88729  -0.86633
 Alpha  occ. eigenvalues --   -0.85759  -0.85488  -0.84859  -0.83130  -0.79761
 Alpha  occ. eigenvalues --   -0.79448  -0.77099  -0.76349  -0.73636  -0.73375
 Alpha  occ. eigenvalues --   -0.73076  -0.72126  -0.71494  -0.71032  -0.70557
 Alpha  occ. eigenvalues --   -0.69994  -0.68976  -0.67970  -0.67184  -0.66352
 Alpha  occ. eigenvalues --   -0.65740  -0.65312  -0.63336  -0.63144  -0.62688
 Alpha  occ. eigenvalues --   -0.62316  -0.61535  -0.61497  -0.60084  -0.59791
 Alpha  occ. eigenvalues --   -0.58868  -0.57886  -0.57713  -0.57529  -0.57244
 Alpha  occ. eigenvalues --   -0.57103  -0.56591  -0.55944  -0.55673  -0.55509
 Alpha  occ. eigenvalues --   -0.54821  -0.54325  -0.54078  -0.53598  -0.53348
 Alpha  occ. eigenvalues --   -0.53166  -0.52777  -0.52358  -0.52223  -0.52026
 Alpha  occ. eigenvalues --   -0.51228  -0.50699  -0.50507  -0.49821  -0.49461
 Alpha  occ. eigenvalues --   -0.49118  -0.48851  -0.48790  -0.48372  -0.47731
 Alpha  occ. eigenvalues --   -0.47300  -0.47255  -0.46925  -0.46290  -0.45725
 Alpha  occ. eigenvalues --   -0.45567  -0.45339  -0.45256  -0.44422  -0.43907
 Alpha  occ. eigenvalues --   -0.43625  -0.42943  -0.42460  -0.41697  -0.41161
 Alpha  occ. eigenvalues --   -0.40843  -0.40598  -0.40102  -0.39425  -0.39269
 Alpha  occ. eigenvalues --   -0.38183  -0.37578  -0.37295  -0.36498  -0.36356
 Alpha  occ. eigenvalues --   -0.36265  -0.36030  -0.35721  -0.34362  -0.33628
 Alpha  occ. eigenvalues --   -0.33130  -0.31925  -0.30661  -0.30340  -0.28804
 Alpha  occ. eigenvalues --   -0.27769  -0.27010
 Alpha virt. eigenvalues --   -0.13008  -0.12199  -0.10979  -0.09633  -0.08404
 Alpha virt. eigenvalues --   -0.07711  -0.05807  -0.05320  -0.04312  -0.02925
 Alpha virt. eigenvalues --   -0.02504  -0.02312  -0.01640  -0.01215  -0.00721

 Mulliken charges:
               1
     1  N   -0.750007
     2  H    0.417552
     3  H    0.426176
     4  H    0.405138
     5  C   -0.117116
     6  H    0.226658
     7  C    0.651555
     8  C   -0.386982
     9  H    0.193189
    10  H    0.215703
    11  O   -0.539229
    12  C    0.137325
    13  C   -0.181396
    14  H    0.152787
    15  C   -0.230451
    16  H    0.150365
    17  C   -0.122423
    18  H    0.168874
    19  C   -0.120197
    20  H    0.167115
    21  C   -0.123562
    22  H    0.169194
    23  N   -0.617236
    24  H    0.391996
    25  C   -0.092878
    26  H    0.207899
    27  C    0.647069
    28  C   -0.040275
    29  H    0.179383
    30  H    0.172037
    31  O   -0.551643
    32  O   -0.655742
    33  H    0.447005
    34  N   -0.610021
    35  H    0.361992
    36  C   -0.088321
    37  H    0.182395
    38  C    0.637272
    39  C   -0.054358
    40  H    0.161741
    41  H    0.162692
    42  O   -0.536137
    43  O   -0.636952
    44  H    0.427074
    45  N   -0.597799
    46  H    0.364283
    47  C   -0.063720
    48  H    0.203199
    49  C    0.628302
    50  C   -0.352929
    51  H    0.189054
    52  H    0.202366
    53  O   -0.557589
    54  C    0.604936
    55  O   -0.540762
    56  O   -0.559366
    57  N   -0.610478
    58  H    0.353550
    59  C   -0.027466
    60  H    0.159952
    61  C    0.583074
    62  C   -0.265333
    63  H    0.136447
    64  H    0.165681
    65  O   -0.632419
    66  C   -0.286752
    67  H    0.132195
    68  H    0.164031
    69  C   -0.159628
    70  H    0.233222
    71  H    0.157401
    72  N   -0.601415
    73  H    0.340959
    74  N   -0.763701
    75  H    0.342073
    76  H    0.447203
    77  N   -0.764868
    78  H    0.357654
    79  H    0.362115
    80  C    0.778152
    81  O   -0.555903
    82  H    0.429016
 Sum of Mulliken charges =   1.00000

 Dipole moment (field-independent basis, Debye):
    X=             -2.4300    Y=              6.4241    Z=            -11.9383  Tot=             13.7730
 Quadrupole moment (field-independent basis, Debye-Ang):
   XX=           -158.9403   YY=           -192.4076   ZZ=             15.8259
   XY=            -49.9234   XZ=            145.8945   YZ=           -104.5306

 Normal termination of Gaussian 16 at Thu May 26 21:40:06 2022.
