 Gaussian 16, Revision C.01,
 Gaussian 16:  ES64L-G16RevC.01  3-Jul-2019

 -------------------------------------------------------------------
 # B3LYP/6-31G* guess=read geom=check nosymm integral(ultrafinegrid)
 -------------------------------------------------------------------

 ------------------------------------------------------
 Candidate Structure: Conf:883 Charge calc in gas phase
 ------------------------------------------------------
 Structure from the checkpoint file:  "conf-883.chk"
 Charge =  1 Multiplicity = 1

                          Input orientation:
 ---------------------------------------------------------------------
 Center     Atomic      Atomic             Coordinates (Angstroms)
 Number     Number       Type             X           Y           Z
 ---------------------------------------------------------------------
      1          7           0       -3.505741   -3.480816   -2.185467
      2          1           0       -3.872572   -4.196944   -2.822201
      3          1           0       -2.461311   -3.529986   -2.224544
      4          1           0       -3.860574   -3.662945   -1.227985
      5          6           0       -3.846257   -2.066503   -2.596855
      6          1           0       -4.842790   -2.058970   -3.044393
      7          6           0       -2.723433   -1.676388   -3.575729
      8          6           0       -3.810862   -1.172414   -1.329668
      9          1           0       -2.791832   -1.195610   -0.924119
     10          1           0       -3.981117   -0.135651   -1.639574
     11          8           0       -1.656675   -2.289954   -3.484556
     12          6           0       -4.811294   -1.648527   -0.291203
     13          6           0       -4.358714   -2.303682    0.869817
     14          1           0       -3.289859   -2.419633    1.047482
     15          6           0       -6.195771   -1.489468   -0.487686
     16          1           0       -6.568087   -0.981305   -1.377043
     17          6           0       -5.272661   -2.779928    1.818876
     18          1           0       -4.910266   -3.273920    2.716011
     19          6           0       -7.101950   -1.956988    0.462765
     20          1           0       -8.167750   -1.813862    0.308664
     21          6           0       -6.641505   -2.605254    1.616323
     22          1           0       -7.351010   -2.964653    2.355939
     23          7           0       -2.939491   -0.624605   -4.376017
     24          1           0       -3.874161   -0.240521   -4.468393
     25          6           0       -1.834456    0.018268   -5.113786
     26          1           0       -1.111259   -0.763942   -5.370329
     27          6           0       -1.187788    1.123680   -4.203474
     28          6           0       -2.312848    0.772026   -6.332538
     29          1           0       -1.492241    1.270093   -6.845508
     30          1           0       -3.104161    1.486747   -6.119741
     31          8           0       -1.454729    2.286444   -4.500070
     32          8           0       -2.960238   -0.233177   -7.352995
     33          1           0       -3.115945    0.190245   -8.265840
     34          7           0       -0.496928    0.653398   -3.170562
     35          1           0       -0.172668   -0.311203   -3.144815
     36          6           0        0.064811    1.490176   -2.109175
     37          1           0       -0.091920    2.535412   -2.383657
     38          6           0        1.557810    1.122261   -1.963058
     39          6           0       -0.609044    1.237717   -0.754655
     40          1           0       -0.094480    1.857187   -0.014499
     41          1           0       -0.465613    0.184894   -0.459509
     42          8           0        1.921109   -0.020047   -2.301940
     43          8           0       -2.004833    1.552353   -0.866680
     44          1           0       -2.370050    1.483936    0.031923
     45          7           0        2.250390    2.105097   -1.411603
     46          1           0        1.754653    2.945797   -1.001677
     47          6           0        3.488676    1.944644   -0.668147
     48          1           0        4.255741    1.464129   -1.290994
     49          6           0        3.276120    1.010338    0.561000
     50          6           0        3.918017    3.378721   -0.261701
     51          1           0        4.848000    3.366341    0.308745
     52          1           0        4.078315    3.955901   -1.182358
     53          8           0        2.162677    0.557025    0.865740
     54          6           0        2.801968    4.119608    0.558740
     55          8           0        3.161437    4.663910    1.621452
     56          8           0        1.625099    4.124586    0.059455
     57          7           0        4.418176    0.736451    1.223108
     58          1           0        5.294349    1.259769    1.085163
     59          6           0        4.501822    0.003261    2.471347
     60          1           0        3.695504    0.317418    3.143810
     61          6           0        5.930223    0.302108    3.110829
     62          6           0        4.452825   -1.526535    2.268445
     63          1           0        5.459199   -1.790911    1.905275
     64          1           0        3.726163   -1.826652    1.494615
     65          8           0        6.174360   -0.338862    4.175816
     66          6           0        4.155854   -2.228769    3.597006
     67          1           0        3.082667   -2.164384    3.820908
     68          1           0        4.696803   -1.661401    4.368154
     69          6           0        4.606488   -3.685637    3.645428
     70          1           0        4.303625   -4.175992    4.577430
     71          1           0        4.216375   -4.306611    2.829956
     72          7           0        6.090195   -3.740575    3.629550
     73          1           0        6.520319   -3.282109    4.429502
     74          7           0        6.380331   -4.217518    1.361326
     75          1           0        7.013391   -4.122892    0.576051
     76          1           0        5.449503   -3.867317    1.165799
     77          7           0        8.217659   -3.837188    2.726359
     78          1           0        8.617435   -3.908959    3.652370
     79          1           0        8.817263   -4.179053    1.987697
     80          6           0        6.879053   -3.924736    2.584998
     81          8           0        6.671129    1.060672    2.445941
     82          1           0       -2.398536   -1.069118   -7.494391
 ---------------------------------------------------------------------

 SCF Done:  E(RB3LYP) =  -2165.99690988     A.U. after    3 cycles

 Alpha  occ. eigenvalues --  -19.46431 -19.30059 -19.22277 -19.21346 -19.14084
 Alpha  occ. eigenvalues --  -19.11485 -19.08053 -19.07634 -19.06615 -19.06474
 Alpha  occ. eigenvalues --  -14.62984 -14.54787 -14.48544 -14.48346 -14.48053
 Alpha  occ. eigenvalues --  -14.45475 -14.35503 -14.34423 -10.47244 -10.44598
 Alpha  occ. eigenvalues --  -10.44171 -10.43603 -10.40445 -10.40263 -10.35284
 Alpha  occ. eigenvalues --  -10.33591 -10.32176 -10.32037 -10.31404 -10.31350
 Alpha  occ. eigenvalues --  -10.31126 -10.31108 -10.31073 -10.28557 -10.28385
 Alpha  occ. eigenvalues --  -10.28374 -10.25655 -10.24967 -10.23904 -10.22120
 Alpha  occ. eigenvalues --  -10.21489 -10.21388 -10.18349  -1.30688  -1.22618
 Alpha  occ. eigenvalues --   -1.17039  -1.14521  -1.13286  -1.10564  -1.08057
 Alpha  occ. eigenvalues --   -1.05477  -1.02535  -1.02359  -1.01582  -1.01527
 Alpha  occ. eigenvalues --   -1.00459  -0.99564  -0.98957  -0.96501  -0.94183
 Alpha  occ. eigenvalues --   -0.94114  -0.91792  -0.91418  -0.90476  -0.88548
 Alpha  occ. eigenvalues --   -0.86995  -0.85113  -0.85019  -0.82351  -0.81180
 Alpha  occ. eigenvalues --   -0.79849  -0.78818  -0.77613  -0.76794  -0.76516
 Alpha  occ. eigenvalues --   -0.75767  -0.74461  -0.73056  -0.72678  -0.71390
 Alpha  occ. eigenvalues --   -0.70992  -0.70522  -0.69812  -0.68141  -0.67476
 Alpha  occ. eigenvalues --   -0.66990  -0.66822  -0.65628  -0.65380  -0.64297
 Alpha  occ. eigenvalues --   -0.63560  -0.62938  -0.62189  -0.61099  -0.60882
 Alpha  occ. eigenvalues --   -0.60008  -0.59557  -0.58608  -0.58130  -0.57917
 Alpha  occ. eigenvalues --   -0.57477  -0.57414  -0.57187  -0.56127  -0.55973
 Alpha  occ. eigenvalues --   -0.54970  -0.54446  -0.54434  -0.54072  -0.53603
 Alpha  occ. eigenvalues --   -0.52889  -0.52373  -0.52271  -0.51023  -0.50645
 Alpha  occ. eigenvalues --   -0.50476  -0.50019  -0.49140  -0.48612  -0.47835
 Alpha  occ. eigenvalues --   -0.47107  -0.47024  -0.46620  -0.46396  -0.46259
 Alpha  occ. eigenvalues --   -0.44933  -0.44573  -0.44417  -0.43958  -0.42880
 Alpha  occ. eigenvalues --   -0.42815  -0.41537  -0.40910  -0.40704  -0.40327
 Alpha  occ. eigenvalues --   -0.39952  -0.39174  -0.39124  -0.38541  -0.37944
 Alpha  occ. eigenvalues --   -0.37796  -0.37424  -0.36996  -0.36821  -0.36328
 Alpha  occ. eigenvalues --   -0.36150  -0.35365  -0.35311  -0.34559  -0.34220
 Alpha  occ. eigenvalues --   -0.33704  -0.33291  -0.28623  -0.27653  -0.25347
 Alpha  occ. eigenvalues --   -0.24824  -0.22804  -0.22092  -0.21864  -0.21100
 Alpha  occ. eigenvalues --   -0.20475  -0.20313
 Alpha virt. eigenvalues --   -0.19413  -0.16571  -0.13729  -0.12955  -0.12346
 Alpha virt. eigenvalues --   -0.10791  -0.09953  -0.09281  -0.09089  -0.07942
 Alpha virt. eigenvalues --   -0.06530  -0.05095  -0.04821  -0.04354  -0.03267

 Mulliken charges:
               1
     1  N   -0.736634
     2  H    0.417326
     3  H    0.432466
     4  H    0.412251
     5  C   -0.136080
     6  H    0.204245
     7  C    0.668070
     8  C   -0.382060
     9  H    0.209657
    10  H    0.230029
    11  O   -0.523523
    12  C    0.124879
    13  C   -0.222629
    14  H    0.158744
    15  C   -0.180032
    16  H    0.136839
    17  C   -0.118887
    18  H    0.173373
    19  C   -0.121854
    20  H    0.169945
    21  C   -0.122307
    22  H    0.174220
    23  N   -0.595055
    24  H    0.358170
    25  C   -0.128035
    26  H    0.212388
    27  C    0.671495
    28  C   -0.140337
    29  H    0.259531
    30  H    0.258387
    31  O   -0.510795
    32  O   -0.565594
    33  H    0.422155
    34  N   -0.590956
    35  H    0.355500
    36  C   -0.118506
    37  H    0.214890
    38  C    0.641235
    39  C   -0.050929
    40  H    0.225550
    41  H    0.121219
    42  O   -0.591230
    43  O   -0.642453
    44  H    0.399496
    45  N   -0.617297
    46  H    0.407017
    47  C   -0.080840
    48  H    0.152986
    49  C    0.645047
    50  C   -0.388587
    51  H    0.176263
    52  H    0.154293
    53  O   -0.579568
    54  C    0.589291
    55  O   -0.491424
    56  O   -0.607186
    57  N   -0.628488
    58  H    0.359217
    59  C   -0.042876
    60  H    0.157293
    61  C    0.575169
    62  C   -0.275192
    63  H    0.106482
    64  H    0.129185
    65  O   -0.619530
    66  C   -0.276005
    67  H    0.141991
    68  H    0.223714
    69  C   -0.193976
    70  H    0.181676
    71  H    0.152460
    72  N   -0.558774
    73  H    0.385504
    74  N   -0.736439
    75  H    0.369073
    76  H    0.384634
    77  N   -0.730945
    78  H    0.379346
    79  H    0.370737
    80  C    0.780195
    81  O   -0.576905
    82  H    0.408298
 Sum of Mulliken charges =   1.00000

 Dipole moment (field-independent basis, Debye):
    X=            -23.2645    Y=            -37.0997    Z=            -28.3020  Tot=             52.1405
 Quadrupole moment (field-independent basis, Debye-Ang):
   XX=            -72.9040   YY=           -206.6796   ZZ=            -60.2732
   XY=            -73.3404   XZ=             80.6170   YZ=            -29.8881

 Normal termination of Gaussian 16 at Thu May 26 21:40:32 2022.
