 Gaussian 16, Revision C.01,
 Gaussian 16:  ES64L-G16RevC.01  3-Jul-2019

 -------------------------------------------------------------------
 # B3LYP/6-31G* guess=read geom=check nosymm integral(ultrafinegrid)
 -------------------------------------------------------------------

 ------------------------------------------------------
 Candidate Structure: Conf:126 Charge calc in gas phase
 ------------------------------------------------------
 Structure from the checkpoint file:  "conf-126.chk"
 Charge =  1 Multiplicity = 1

                          Input orientation:
 ---------------------------------------------------------------------
 Center     Atomic      Atomic             Coordinates (Angstroms)
 Number     Number       Type             X           Y           Z
 ---------------------------------------------------------------------
      1          7           0       -5.201447    0.785692   -4.835726
      2          1           0       -4.896182    1.699386   -5.183652
      3          1           0       -4.948097    0.060729   -5.552371
      4          1           0       -6.217373    0.826354   -4.652889
      5          6           0       -4.449945    0.346382   -3.599788
      6          1           0       -4.043958    1.238145   -3.117785
      7          6           0       -3.338612   -0.575841   -4.158504
      8          6           0       -5.411977   -0.402668   -2.641274
      9          1           0       -5.672676   -1.368577   -3.090514
     10          1           0       -4.849697   -0.619412   -1.726667
     11          8           0       -3.465881   -1.006077   -5.312905
     12          6           0       -6.660865    0.400487   -2.342254
     13          6           0       -6.632742    1.457089   -1.419599
     14          1           0       -5.722529    1.667500   -0.861902
     15          6           0       -7.854441    0.131945   -3.033156
     16          1           0       -7.909640   -0.719614   -3.710486
     17          6           0       -7.773270    2.225723   -1.191961
     18          1           0       -7.742899    3.031416   -0.464566
     19          6           0       -8.996544    0.908031   -2.807601
     20          1           0       -9.916920    0.679718   -3.336726
     21          6           0       -8.955180    1.956200   -1.889166
     22          1           0       -9.842262    2.554781   -1.706053
     23          7           0       -2.339742   -0.853459   -3.323991
     24          1           0       -2.331591   -0.533045   -2.351744
     25          6           0       -1.258585   -1.795475   -3.592453
     26          1           0       -1.677955   -2.746583   -3.944518
     27          6           0       -0.566453   -1.988245   -2.221113
     28          6           0       -0.272405   -1.262285   -4.664042
     29          1           0        0.273867   -0.401125   -4.267220
     30          1           0       -0.838488   -0.946886   -5.546280
     31          8           0       -1.032355   -1.427745   -1.225054
     32          8           0        0.692649   -2.256167   -4.992899
     33          1           0        0.333432   -2.825810   -5.691199
     34          7           0        0.554506   -2.740009   -2.218024
     35          1           0        0.950231   -2.949640   -3.134931
     36          6           0        1.436483   -2.791243   -1.048661
     37          1           0        0.816566   -2.612521   -0.164098
     38          6           0        2.482896   -1.649651   -1.070266
     39          6           0        2.103609   -4.174550   -0.943941
     40          1           0        2.594571   -4.430270   -1.893989
     41          1           0        1.346905   -4.934004   -0.733241
     42          8           0        3.685668   -1.885587   -0.917965
     43          8           0        3.058563   -4.200788    0.119666
     44          1           0        3.680466   -3.472931   -0.133300
     45          7           0        1.968563   -0.402405   -1.236284
     46          1           0        0.982616   -0.365195   -0.982848
     47          6           0        2.699362    0.719318   -0.627601
     48          1           0        3.749495    0.636167   -0.910114
     49          6           0        2.533757    0.556256    0.913085
     50          6           0        2.133044    2.051177   -1.143703
     51          1           0        1.070226    2.141210   -0.898659
     52          1           0        2.665527    2.871532   -0.650255
     53          8           0        1.609779   -0.165868    1.326546
     54          6           0        2.355485    2.179136   -2.635770
     55          8           0        1.185618    2.235933   -3.344419
     56          8           0        3.431500    2.210655   -3.181858
     57          7           0        3.452745    1.158486    1.659879
     58          1           0        4.054989    1.953256    1.349445
     59          6           0        3.453194    1.210962    3.119559
     60          1           0        2.422107    1.247472    3.487718
     61          6           0        4.214672    2.552984    3.496404
     62          6           0        4.184282    0.009906    3.746951
     63          1           0        4.082039    0.108106    4.832849
     64          1           0        5.256665    0.093808    3.520145
     65          8           0        4.631976    3.196617    2.490136
     66          6           0        3.670505   -1.339535    3.232955
     67          1           0        3.809915   -1.363257    2.145693
     68          1           0        2.594259   -1.436004    3.413199
     69          6           0        4.399968   -2.552334    3.809909
     70          1           0        5.486987   -2.406626    3.764610
     71          1           0        4.114123   -2.726577    4.855157
     72          7           0        4.050378   -3.738917    2.995231
     73          1           0        3.378098   -3.602845    2.242856
     74          7           0        5.474364   -5.236750    4.054914
     75          1           0        6.157356   -5.973191    3.954879
     76          1           0        5.614873   -4.581523    4.810040
     77          7           0        4.472526   -5.799126    2.033692
     78          1           0        3.940272   -5.508871    1.209354
     79          1           0        4.698156   -6.774356    2.160370
     80          6           0        4.662723   -4.916143    3.027701
     81          8           0        4.321789    2.763862    4.712726
     82          1           0        1.466222    2.354356   -4.272872
 ---------------------------------------------------------------------

 SCF Done:  E(RB3LYP) =  -2166.22109239     A.U. after    3 cycles

 Alpha  occ. eigenvalues --  -19.28212 -19.28074 -19.26856 -19.25774 -19.24633
 Alpha  occ. eigenvalues --  -19.22138 -19.20464 -19.14968 -19.05972 -19.04715
 Alpha  occ. eigenvalues --  -14.61000 -14.51121 -14.49365 -14.48205 -14.48087
 Alpha  occ. eigenvalues --  -14.47950 -14.43600 -14.37098 -10.45131 -10.44975
 Alpha  occ. eigenvalues --  -10.42027 -10.41579 -10.38779 -10.38384 -10.36898
 Alpha  occ. eigenvalues --  -10.36151 -10.35297 -10.34322 -10.33644 -10.33187
 Alpha  occ. eigenvalues --  -10.32004 -10.31892 -10.31466 -10.31427 -10.31120
 Alpha  occ. eigenvalues --  -10.30937 -10.30698 -10.29722 -10.27037 -10.24078
 Alpha  occ. eigenvalues --  -10.23862 -10.21756 -10.21185  -1.20530  -1.17182
 Alpha  occ. eigenvalues --   -1.16777  -1.15136  -1.15001  -1.14293  -1.13526
 Alpha  occ. eigenvalues --   -1.11749  -1.08145  -1.07741  -1.06596  -1.04544
 Alpha  occ. eigenvalues --   -1.02520  -1.01742  -1.00354  -0.99006  -0.98588
 Alpha  occ. eigenvalues --   -0.94490  -0.93916  -0.90404  -0.90244  -0.87611
 Alpha  occ. eigenvalues --   -0.86704  -0.86217  -0.85755  -0.84691  -0.80796
 Alpha  occ. eigenvalues --   -0.78892  -0.78575  -0.76806  -0.75190  -0.75109
 Alpha  occ. eigenvalues --   -0.74479  -0.74290  -0.72993  -0.72563  -0.71583
 Alpha  occ. eigenvalues --   -0.71113  -0.70393  -0.69856  -0.68426  -0.67364
 Alpha  occ. eigenvalues --   -0.66799  -0.66081  -0.65082  -0.64260  -0.63957
 Alpha  occ. eigenvalues --   -0.63303  -0.62791  -0.61957  -0.61645  -0.61360
 Alpha  occ. eigenvalues --   -0.60764  -0.59649  -0.58922  -0.58669  -0.58570
 Alpha  occ. eigenvalues --   -0.57959  -0.57755  -0.57663  -0.57494  -0.57248
 Alpha  occ. eigenvalues --   -0.55796  -0.55615  -0.55203  -0.54741  -0.54328
 Alpha  occ. eigenvalues --   -0.54154  -0.53743  -0.53496  -0.52902  -0.52726
 Alpha  occ. eigenvalues --   -0.52644  -0.52044  -0.51749  -0.51461  -0.51142
 Alpha  occ. eigenvalues --   -0.50084  -0.49370  -0.49202  -0.48345  -0.48152
 Alpha  occ. eigenvalues --   -0.47671  -0.47006  -0.46699  -0.46368  -0.46265
 Alpha  occ. eigenvalues --   -0.46029  -0.45700  -0.45076  -0.44494  -0.43789
 Alpha  occ. eigenvalues --   -0.42894  -0.42770  -0.42570  -0.42565  -0.40306
 Alpha  occ. eigenvalues --   -0.40078  -0.39970  -0.39382  -0.39083  -0.38624
 Alpha  occ. eigenvalues --   -0.38549  -0.38255  -0.37851  -0.37510  -0.37287
 Alpha  occ. eigenvalues --   -0.37075  -0.36438  -0.35832  -0.35025  -0.34116
 Alpha  occ. eigenvalues --   -0.33667  -0.33298  -0.29338  -0.28061  -0.21029
 Alpha  occ. eigenvalues --   -0.20926  -0.19039
 Alpha virt. eigenvalues --   -0.14475  -0.13297  -0.12329  -0.11002  -0.10900
 Alpha virt. eigenvalues --   -0.09066  -0.08040  -0.06143  -0.05931  -0.04949
 Alpha virt. eigenvalues --   -0.04779  -0.03833  -0.02905  -0.02507  -0.01729

 Mulliken charges:
               1
     1  N   -0.748945
     2  H    0.419233
     3  H    0.426485
     4  H    0.407176
     5  C   -0.114900
     6  H    0.221465
     7  C    0.656999
     8  C   -0.386427
     9  H    0.193570
    10  H    0.212801
    11  O   -0.541613
    12  C    0.136739
    13  C   -0.181624
    14  H    0.152816
    15  C   -0.232152
    16  H    0.150633
    17  C   -0.121708
    18  H    0.174096
    19  C   -0.119457
    20  H    0.169975
    21  C   -0.122785
    22  H    0.173533
    23  N   -0.623639
    24  H    0.381999
    25  C   -0.062564
    26  H    0.194808
    27  C    0.611196
    28  C   -0.074672
    29  H    0.193345
    30  H    0.179706
    31  O   -0.530865
    32  O   -0.605248
    33  H    0.419373
    34  N   -0.608170
    35  H    0.377018
    36  C   -0.125636
    37  H    0.236613
    38  C    0.653114
    39  C   -0.043320
    40  H    0.151605
    41  H    0.169799
    42  O   -0.546082
    43  O   -0.666115
    44  H    0.445099
    45  N   -0.589917
    46  H    0.357044
    47  C   -0.087901
    48  H    0.215810
    49  C    0.610374
    50  C   -0.364766
    51  H    0.165362
    52  H    0.230305
    53  O   -0.588887
    54  C    0.587353
    55  O   -0.586764
    56  O   -0.439782
    57  N   -0.600997
    58  H    0.357915
    59  C   -0.077847
    60  H    0.146900
    61  C    0.587016
    62  C   -0.259391
    63  H    0.167011
    64  H    0.139747
    65  O   -0.617489
    66  C   -0.313486
    67  H    0.153409
    68  H    0.171562
    69  C   -0.143452
    70  H    0.174995
    71  H    0.174613
    72  N   -0.620391
    73  H    0.379034
    74  N   -0.760218
    75  H    0.374108
    76  H    0.389339
    77  N   -0.793415
    78  H    0.411641
    79  H    0.363739
    80  C    0.811609
    81  O   -0.583176
    82  H    0.405717
 Sum of Mulliken charges =   1.00000

 Dipole moment (field-independent basis, Debye):
    X=            -21.1995    Y=            -22.1790    Z=            -20.6948  Tot=             37.0081
 Quadrupole moment (field-independent basis, Debye-Ang):
   XX=            -93.6992   YY=           -166.5296   ZZ=           -166.1629
   XY=           -151.3463   XZ=             97.2296   YZ=            -83.0259

 Normal termination of Gaussian 16 at Thu May 26 21:40:58 2022.
