 Gaussian 16, Revision C.01,
 Gaussian 16:  ES64L-G16RevC.01  3-Jul-2019

 -------------------------------------------------------------------
 # B3LYP/6-31G* guess=read geom=check nosymm integral(ultrafinegrid)
 -------------------------------------------------------------------

 ------------------------------------------------------
 Candidate Structure: Conf:472 Charge calc in gas phase
 ------------------------------------------------------
 Structure from the checkpoint file:  "conf-472.chk"
 Charge =  1 Multiplicity = 1

                          Input orientation:
 ---------------------------------------------------------------------
 Center     Atomic      Atomic             Coordinates (Angstroms)
 Number     Number       Type             X           Y           Z
 ---------------------------------------------------------------------
      1          7           0       -4.446081    0.966833   -7.007800
      2          1           0       -3.862773    1.569101   -7.594855
      3          1           0       -4.156018   -0.037920   -7.168428
      4          1           0       -5.436214    1.143979   -7.234737
      5          6           0       -4.180946    1.147924   -5.531080
      6          1           0       -3.717601    2.125778   -5.385140
      7          6           0       -3.215878   -0.021047   -5.202290
      8          6           0       -5.509833    1.045687   -4.740864
      9          1           0       -5.857673    0.006281   -4.775837
     10          1           0       -5.277078    1.264890   -3.693433
     11          8           0       -3.137699   -0.944324   -6.028377
     12          6           0       -6.573710    1.980597   -5.277362
     13          6           0       -6.545263    3.351118   -4.978337
     14          1           0       -5.787420    3.742803   -4.303053
     15          6           0       -7.576268    1.493339   -6.131919
     16          1           0       -7.645649    0.424571   -6.331000
     17          6           0       -7.497687    4.212703   -5.520340
     18          1           0       -7.473012    5.268999   -5.269232
     19          6           0       -8.528409    2.359752   -6.679638
     20          1           0       -9.306713    1.966215   -7.326751
     21          6           0       -8.487782    3.719830   -6.376031
     22          1           0       -9.230386    4.393384   -6.792934
     23          7           0       -2.588462    0.054476   -4.037950
     24          1           0       -2.722285    0.828110   -3.375807
     25          6           0       -1.756840   -0.985464   -3.444382
     26          1           0       -2.219901   -1.965930   -3.592784
     27          6           0       -1.686118   -0.608157   -1.948685
     28          6           0       -0.326196   -1.003210   -4.060869
     29          1           0        0.082363    0.016462   -4.025817
     30          1           0       -0.402852   -1.315579   -5.106346
     31          8           0       -2.032137    0.523579   -1.596517
     32          8           0        0.502570   -1.920029   -3.381471
     33          1           0        2.182544   -2.618690   -3.611103
     34          7           0       -1.197707   -1.568030   -1.146170
     35          1           0       -0.863106   -2.407891   -1.605609
     36          6           0       -0.630147   -1.282214    0.165182
     37          1           0       -1.138123   -0.388214    0.536627
     38          6           0        0.892161   -0.978303    0.041754
     39          6           0       -0.904665   -2.438154    1.127582
     40          1           0       -0.452946   -2.185719    2.092735
     41          1           0       -0.406336   -3.350781    0.756398
     42          8           0        1.404519   -0.843415   -1.120777
     43          8           0       -2.312154   -2.613186    1.214058
     44          1           0       -2.486139   -3.252216    1.921402
     45          7           0        1.505008   -0.872809    1.199067
     46          1           0        1.022150    0.242873    2.436116
     47          6           0        2.918725   -0.487417    1.181628
     48          1           0        3.090459    0.339864    0.476199
     49          6           0        3.790883   -1.681122    0.734035
     50          6           0        3.339117   -0.047886    2.595437
     51          1           0        3.202332   -0.908109    3.263465
     52          1           0        4.392553    0.242762    2.620000
     53          8           0        4.209501   -2.509701    1.568859
     54          6           0        2.535039    1.115514    3.188429
     55          8           0        3.062403    2.017593    3.800219
     56          8           0        1.207748    1.028163    3.033913
     57          7           0        4.049396   -1.701094   -0.592096
     58          1           0        3.427295   -1.062848   -1.095534
     59          6           0        4.582420   -2.763609   -1.480331
     60          1           0        5.224226   -2.249215   -2.204905
     61          6           0        3.357292   -3.291842   -2.246974
     62          6           0        5.371446   -3.899252   -0.826127
     63          1           0        5.508593   -4.670680   -1.592595
     64          1           0        4.748157   -4.362476   -0.058708
     65          8           0        2.681674   -4.232514   -1.896339
     66          6           0        6.757389   -3.461921   -0.298183
     67          1           0        6.733188   -2.413632    0.022019
     68          1           0        7.496415   -3.525247   -1.105198
     69          6           0        7.254513   -4.306213    0.885654
     70          1           0        7.256130   -5.373643    0.634409
     71          1           0        8.275106   -4.019572    1.160721
     72          7           0        6.355677   -4.065477    2.024804
     73          1           0        5.426071   -3.717807    1.743626
     74          7           0        7.887256   -4.007125    3.787063
     75          1           0        8.201997   -3.596555    4.653415
     76          1           0        8.422176   -4.774601    3.409690
     77          7           0        5.846386   -2.892672    3.930401
     78          1           0        5.039304   -2.513640    3.431015
     79          1           0        5.888220   -2.814449    4.935848
     80          6           0        6.702278   -3.664130    3.243925
     81          8           0        3.117312   -2.504311   -3.306098
     82          1           0        0.819029   -1.481890   -2.530740
 ---------------------------------------------------------------------

 SCF Done:  E(RB3LYP) =  -2166.25619249     A.U. after    3 cycles

 Alpha  occ. eigenvalues --  -19.25254 -19.24289 -19.21640 -19.20571 -19.19696
 Alpha  occ. eigenvalues --  -19.19600 -19.19293 -19.19221 -19.16591 -19.14561
 Alpha  occ. eigenvalues --  -14.58519 -14.49361 -14.47857 -14.47739 -14.46866
 Alpha  occ. eigenvalues --  -14.43488 -14.42749 -14.34806 -10.44623 -10.42116
 Alpha  occ. eigenvalues --  -10.39591 -10.37808 -10.36678 -10.36468 -10.33482
 Alpha  occ. eigenvalues --  -10.33089 -10.33008 -10.32352 -10.31793 -10.31713
 Alpha  occ. eigenvalues --  -10.31450 -10.31351 -10.30228 -10.29827 -10.29592
 Alpha  occ. eigenvalues --  -10.29451 -10.29216 -10.28334 -10.28157 -10.28019
 Alpha  occ. eigenvalues --  -10.27955 -10.27175 -10.24003  -1.17667  -1.15636
 Alpha  occ. eigenvalues --   -1.13228  -1.12609  -1.11577  -1.11185  -1.10554
 Alpha  occ. eigenvalues --   -1.09115  -1.07068  -1.06793  -1.06020  -1.04344
 Alpha  occ. eigenvalues --   -1.02517  -1.02507  -1.01322  -0.99996  -0.99308
 Alpha  occ. eigenvalues --   -0.96844  -0.93199  -0.92183  -0.88834  -0.86981
 Alpha  occ. eigenvalues --   -0.85150  -0.84598  -0.84152  -0.82387  -0.79740
 Alpha  occ. eigenvalues --   -0.78440  -0.77800  -0.75192  -0.74354  -0.72746
 Alpha  occ. eigenvalues --   -0.72227  -0.71920  -0.70906  -0.70543  -0.70223
 Alpha  occ. eigenvalues --   -0.70048  -0.69361  -0.68024  -0.67108  -0.66733
 Alpha  occ. eigenvalues --   -0.65478  -0.64291  -0.63792  -0.62054  -0.61926
 Alpha  occ. eigenvalues --   -0.61831  -0.61535  -0.61289  -0.60781  -0.60285
 Alpha  occ. eigenvalues --   -0.58027  -0.57977  -0.57581  -0.57148  -0.57050
 Alpha  occ. eigenvalues --   -0.56887  -0.56227  -0.55884  -0.55681  -0.55334
 Alpha  occ. eigenvalues --   -0.54520  -0.53796  -0.53498  -0.53191  -0.52696
 Alpha  occ. eigenvalues --   -0.52611  -0.52161  -0.51985  -0.51561  -0.51450
 Alpha  occ. eigenvalues --   -0.50839  -0.50273  -0.50110  -0.49936  -0.49484
 Alpha  occ. eigenvalues --   -0.48927  -0.48297  -0.47852  -0.47493  -0.47435
 Alpha  occ. eigenvalues --   -0.46825  -0.46642  -0.46378  -0.45849  -0.45455
 Alpha  occ. eigenvalues --   -0.45231  -0.45005  -0.44696  -0.43943  -0.43792
 Alpha  occ. eigenvalues --   -0.42939  -0.42791  -0.42280  -0.41141  -0.40985
 Alpha  occ. eigenvalues --   -0.40364  -0.39989  -0.39931  -0.38742  -0.38722
 Alpha  occ. eigenvalues --   -0.38206  -0.37462  -0.37168  -0.35931  -0.35695
 Alpha  occ. eigenvalues --   -0.35447  -0.34726  -0.34493  -0.34138  -0.33464
 Alpha  occ. eigenvalues --   -0.32323  -0.32066  -0.31743  -0.30587  -0.29515
 Alpha  occ. eigenvalues --   -0.28415  -0.27682
 Alpha virt. eigenvalues --   -0.12157  -0.11614  -0.09899  -0.09081  -0.08939
 Alpha virt. eigenvalues --   -0.07022  -0.05393  -0.04785  -0.03970  -0.03571
 Alpha virt. eigenvalues --   -0.01731  -0.01572  -0.01132  -0.00925  -0.00515

 Mulliken charges:
               1
     1  N   -0.751675
     2  H    0.413694
     3  H    0.426219
     4  H    0.403332
     5  C   -0.112380
     6  H    0.213307
     7  C    0.655002
     8  C   -0.386034
     9  H    0.194313
    10  H    0.215184
    11  O   -0.544521
    12  C    0.139407
    13  C   -0.181631
    14  H    0.150298
    15  C   -0.230011
    16  H    0.150313
    17  C   -0.122533
    18  H    0.167402
    19  C   -0.120506
    20  H    0.165586
    21  C   -0.123996
    22  H    0.167588
    23  N   -0.615317
    24  H    0.374121
    25  C   -0.076459
    26  H    0.195295
    27  C    0.611646
    28  C   -0.030988
    29  H    0.151337
    30  H    0.170161
    31  O   -0.542597
    32  O   -0.689066
    33  H    0.442344
    34  N   -0.570749
    35  H    0.346071
    36  C   -0.080877
    37  H    0.210326
    38  C    0.590162
    39  C   -0.041637
    40  H    0.163883
    41  H    0.123439
    42  O   -0.656199
    43  O   -0.617723
    44  H    0.398704
    45  N   -0.585243
    46  H    0.430018
    47  C   -0.054063
    48  H    0.155350
    49  C    0.651931
    50  C   -0.393255
    51  H    0.161565
    52  H    0.155141
    53  O   -0.604606
    54  C    0.591476
    55  O   -0.470042
    56  O   -0.590305
    57  N   -0.613460
    58  H    0.384434
    59  C   -0.022521
    60  H    0.175644
    61  C    0.577738
    62  C   -0.294377
    63  H    0.168967
    64  H    0.187704
    65  O   -0.457547
    66  C   -0.298187
    67  H    0.171320
    68  H    0.168957
    69  C   -0.160852
    70  H    0.182212
    71  H    0.165339
    72  N   -0.614207
    73  H    0.425196
    74  N   -0.753816
    75  H    0.375801
    76  H    0.379667
    77  N   -0.782446
    78  H    0.423037
    79  H    0.365985
    80  C    0.779218
    81  O   -0.594589
    82  H    0.468584
 Sum of Mulliken charges =   1.00000

 Dipole moment (field-independent basis, Debye):
    X=              1.1548    Y=             -7.2574    Z=            -17.5202  Tot=             18.9990
 Quadrupole moment (field-independent basis, Debye-Ang):
   XX=             24.9012   YY=           -199.5527   ZZ=            -60.4796
   XY=           -128.6721   XZ=            183.0619   YZ=           -100.0895

 Normal termination of Gaussian 16 at Thu May 26 21:40:35 2022.
