 Gaussian 16, Revision C.01,
 Gaussian 16:  ES64L-G16RevC.01  3-Jul-2019

 -------------------------------------------------------------------
 # B3LYP/6-31G* guess=read geom=check nosymm integral(ultrafinegrid)
 -------------------------------------------------------------------

 ------------------------------------------------------
 Candidate Structure: Conf:684 Charge calc in gas phase
 ------------------------------------------------------
 Structure from the checkpoint file:  "conf-684.chk"
 Charge =  1 Multiplicity = 1

                          Input orientation:
 ---------------------------------------------------------------------
 Center     Atomic      Atomic             Coordinates (Angstroms)
 Number     Number       Type             X           Y           Z
 ---------------------------------------------------------------------
      1          7           0       -5.875808   -2.189895   -4.592899
      2          1           0       -6.131243   -2.131181   -5.583007
      3          1           0       -5.103690   -2.898468   -4.494167
      4          1           0       -6.683199   -2.487388   -4.025327
      5          6           0       -5.248052   -0.922205   -4.055708
      6          1           0       -5.460572   -0.109259   -4.753886
      7          6           0       -3.715888   -1.222285   -4.013230
      8          6           0       -5.850598   -0.608230   -2.652179
      9          1           0       -5.174777    0.094520   -2.152833
     10          1           0       -6.796040   -0.076984   -2.808612
     11          8           0       -3.313984   -2.378922   -4.141723
     12          6           0       -6.084513   -1.844629   -1.805667
     13          6           0       -7.370602   -2.408563   -1.741824
     14          1           0       -8.209214   -1.905533   -2.222421
     15          6           0       -5.032999   -2.468804   -1.116475
     16          1           0       -4.030321   -2.051049   -1.137664
     17          6           0       -7.596478   -3.578195   -1.009451
     18          1           0       -8.597102   -3.997465   -0.958273
     19          6           0       -5.261485   -3.629538   -0.376877
     20          1           0       -4.431989   -4.074535    0.164361
     21          6           0       -6.541961   -4.188410   -0.328504
     22          1           0       -6.719388   -5.090995    0.248816
     23          7           0       -2.921063   -0.161618   -3.822018
     24          1           0       -3.338430    0.745627   -3.637420
     25          6           0       -1.473696   -0.271770   -3.552107
     26          1           0       -1.171147   -1.296307   -3.776654
     27          6           0       -1.351880    0.067621   -2.041303
     28          6           0       -0.643253    0.650213   -4.455443
     29          1           0       -0.965872    1.684071   -4.312713
     30          1           0       -0.795043    0.366357   -5.500408
     31          8           0       -1.293035    1.218665   -1.644769
     32          8           0        0.718660    0.504284   -4.146882
     33          1           0        1.175415    0.144831   -4.939077
     34          7           0       -1.441997   -1.026765   -1.248356
     35          1           0       -1.301194   -1.930729   -1.685463
     36          6           0       -1.274807   -0.999414    0.222804
     37          1           0       -1.494972    0.000141    0.606807
     38          6           0        0.200871   -1.317427    0.490366
     39          6           0       -2.259281   -2.023684    0.794742
     40          1           0       -3.287508   -1.694957    0.614262
     41          1           0       -2.108439   -2.097888    1.880944
     42          8           0        0.619582   -2.477032    0.563286
     43          8           0       -2.101882   -3.280945    0.150732
     44          1           0       -1.173466   -3.536146    0.341806
     45          7           0        0.908883   -0.154557    0.502252
     46          1           0        0.388482    0.724609    0.460215
     47          6           0        2.348456   -0.026471    0.461022
     48          1           0        2.729026   -0.697327   -0.316105
     49          6           0        3.097266   -0.336348    1.783178
     50          6           0        2.545563    1.447272    0.091914
     51          1           0        2.249787    2.080630    0.934689
     52          1           0        3.595308    1.644824   -0.137766
     53          8           0        2.557475   -0.117978    2.870413
     54          6           0        1.646271    1.697893   -1.082818
     55          8           0        0.399174    1.902678   -0.503769
     56          8           0        1.915847    1.651610   -2.263053
     57          7           0        4.347117   -0.781397    1.598720
     58          1           0        4.799216   -0.843017    0.675767
     59          6           0        5.382438   -0.843427    2.608613
     60          1           0        5.474027    0.139384    3.098144
     61          6           0        6.780034   -1.087865    1.878428
     62          6           0        5.243824   -1.914336    3.685960
     63          1           0        6.292639   -2.187923    3.807512
     64          1           0        4.738282   -2.808835    3.302689
     65          8           0        7.731398   -1.338358    2.688921
     66          6           0        4.664598   -1.453561    5.024187
     67          1           0        3.572703   -1.476524    5.053267
     68          1           0        4.939188   -0.409196    5.215955
     69          6           0        5.282624   -2.300901    6.135233
     70          1           0        4.970551   -1.949664    7.127749
     71          1           0        5.016861   -3.362719    6.043179
     72          7           0        6.747970   -2.128700    5.985386
     73          1           0        7.049188   -1.787107    5.062053
     74          7           0        7.398842   -3.150086    7.965719
     75          1           0        8.106741   -3.334981    8.660083
     76          1           0        6.436676   -3.291511    8.233870
     77          7           0        8.982805   -2.328065    6.471915
     78          1           0        9.220038   -1.847970    5.611523
     79          1           0        9.742324   -2.649789    7.051781
     80          6           0        7.697015   -2.532254    6.805571
     81          8           0        6.774489   -0.984912    0.633048
     82          1           0        1.923114    1.190388   -2.971510
 ---------------------------------------------------------------------

 SCF Done:  E(RB3LYP) =  -2166.04769544     A.U. after    1 cycles

 Alpha  occ. eigenvalues --  -19.27141 -19.26917 -19.26670 -19.21118 -19.19207
 Alpha  occ. eigenvalues --  -19.17281 -19.16112 -19.13486 -19.08366 -19.08180
 Alpha  occ. eigenvalues --  -14.60287 -14.50515 -14.48629 -14.47759 -14.46674
 Alpha  occ. eigenvalues --  -14.43696 -14.38766 -14.37019 -10.44094 -10.43931
 Alpha  occ. eigenvalues --  -10.41324 -10.39178 -10.36119 -10.34607 -10.34117
 Alpha  occ. eigenvalues --  -10.34065 -10.33789 -10.31487 -10.31095 -10.30927
 Alpha  occ. eigenvalues --  -10.30301 -10.30067 -10.29578 -10.29500 -10.29129
 Alpha  occ. eigenvalues --  -10.28948 -10.28587 -10.28182 -10.26537 -10.24845
 Alpha  occ. eigenvalues --  -10.23741 -10.22887 -10.20715  -1.21885  -1.19287
 Alpha  occ. eigenvalues --   -1.14599  -1.14359  -1.12726  -1.11660  -1.09206
 Alpha  occ. eigenvalues --   -1.07554  -1.06456  -1.05038  -1.01994  -1.01698
 Alpha  occ. eigenvalues --   -1.01118  -1.00952  -0.99906  -0.96860  -0.95916
 Alpha  occ. eigenvalues --   -0.93878  -0.92985  -0.92473  -0.88233  -0.85945
 Alpha  occ. eigenvalues --   -0.85664  -0.84851  -0.84693  -0.82986  -0.80629
 Alpha  occ. eigenvalues --   -0.79433  -0.78497  -0.75731  -0.75117  -0.74246
 Alpha  occ. eigenvalues --   -0.73429  -0.73022  -0.72690  -0.71642  -0.70753
 Alpha  occ. eigenvalues --   -0.69933  -0.69388  -0.68941  -0.67685  -0.66445
 Alpha  occ. eigenvalues --   -0.65317  -0.64385  -0.63956  -0.63066  -0.62827
 Alpha  occ. eigenvalues --   -0.61342  -0.61163  -0.60818  -0.60201  -0.59745
 Alpha  occ. eigenvalues --   -0.59357  -0.58815  -0.58313  -0.57122  -0.56686
 Alpha  occ. eigenvalues --   -0.56522  -0.56450  -0.56127  -0.55216  -0.54961
 Alpha  occ. eigenvalues --   -0.54301  -0.54074  -0.53719  -0.53441  -0.52445
 Alpha  occ. eigenvalues --   -0.52439  -0.51951  -0.51417  -0.51224  -0.51022
 Alpha  occ. eigenvalues --   -0.50794  -0.50272  -0.49671  -0.48997  -0.48927
 Alpha  occ. eigenvalues --   -0.48377  -0.47598  -0.46840  -0.46759  -0.46441
 Alpha  occ. eigenvalues --   -0.45689  -0.45083  -0.44929  -0.44627  -0.44273
 Alpha  occ. eigenvalues --   -0.44181  -0.43952  -0.43707  -0.43101  -0.41597
 Alpha  occ. eigenvalues --   -0.41285  -0.40925  -0.40791  -0.40479  -0.39452
 Alpha  occ. eigenvalues --   -0.39282  -0.38792  -0.38569  -0.37771  -0.37215
 Alpha  occ. eigenvalues --   -0.36952  -0.35682  -0.35627  -0.35428  -0.35349
 Alpha  occ. eigenvalues --   -0.34999  -0.34422  -0.33893  -0.32576  -0.30257
 Alpha  occ. eigenvalues --   -0.29560  -0.27711  -0.26959  -0.26721  -0.23618
 Alpha  occ. eigenvalues --   -0.22674  -0.22529
 Alpha virt. eigenvalues --   -0.13036  -0.11769  -0.11531  -0.09759  -0.08222
 Alpha virt. eigenvalues --   -0.07360  -0.06862  -0.05080  -0.04768  -0.04221
 Alpha virt. eigenvalues --   -0.03956  -0.02578  -0.01990  -0.01727  -0.01048

 Mulliken charges:
               1
     1  N   -0.752440
     2  H    0.414401
     3  H    0.432091
     4  H    0.409836
     5  C   -0.107211
     6  H    0.213135
     7  C    0.647001
     8  C   -0.390020
     9  H    0.209058
    10  H    0.191309
    11  O   -0.516987
    12  C    0.116317
    13  C   -0.235486
    14  H    0.143304
    15  C   -0.188346
    16  H    0.178027
    17  C   -0.119423
    18  H    0.162328
    19  C   -0.134007
    20  H    0.198852
    21  C   -0.125192
    22  H    0.166193
    23  N   -0.597651
    24  H    0.357635
    25  C   -0.090788
    26  H    0.189963
    27  C    0.591328
    28  C   -0.032119
    29  H    0.177762
    30  H    0.149601
    31  O   -0.447707
    32  O   -0.628764
    33  H    0.424442
    34  N   -0.598553
    35  H    0.344705
    36  C   -0.105494
    37  H    0.192022
    38  C    0.630919
    39  C   -0.047714
    40  H    0.138724
    41  H    0.158291
    42  O   -0.552477
    43  O   -0.648843
    44  H    0.423920
    45  N   -0.624942
    46  H    0.416739
    47  C   -0.048235
    48  H    0.154969
    49  C    0.630142
    50  C   -0.358826
    51  H    0.214097
    52  H    0.170385
    53  O   -0.548695
    54  C    0.586665
    55  O   -0.528035
    56  O   -0.484017
    57  N   -0.614619
    58  H    0.345820
    59  C   -0.031736
    60  H    0.139055
    61  C    0.576774
    62  C   -0.314779
    63  H    0.170857
    64  H    0.147999
    65  O   -0.635293
    66  C   -0.287936
    67  H    0.190606
    68  H    0.157677
    69  C   -0.152653
    70  H    0.159718
    71  H    0.177547
    72  N   -0.614321
    73  H    0.384994
    74  N   -0.770211
    75  H    0.371992
    76  H    0.384632
    77  N   -0.771125
    78  H    0.408937
    79  H    0.370360
    80  C    0.833079
    81  O   -0.579708
    82  H    0.430146
 Sum of Mulliken charges =   1.00000

 Dipole moment (field-independent basis, Debye):
    X=            -13.6720    Y=            -11.3928    Z=             -2.6452  Tot=             17.9921
 Quadrupole moment (field-independent basis, Debye-Ang):
   XX=            -19.8556   YY=           -219.8705   ZZ=             25.9625
   XY=              1.3806   XZ=            242.3188   YZ=            -44.4498

 Normal termination of Gaussian 16 at Thu May 26 21:40:12 2022.
