 Gaussian 16, Revision C.01,
 Gaussian 16:  ES64L-G16RevC.01  3-Jul-2019

 -------------------------------------------------------------------
 # B3LYP/6-31G* guess=read geom=check nosymm integral(ultrafinegrid)
 -------------------------------------------------------------------

 ------------------------------------------------------
 Candidate Structure: Conf:747 Charge calc in gas phase
 ------------------------------------------------------
 Structure from the checkpoint file:  "conf-747.chk"
 Charge =  1 Multiplicity = 1

                          Input orientation:
 ---------------------------------------------------------------------
 Center     Atomic      Atomic             Coordinates (Angstroms)
 Number     Number       Type             X           Y           Z
 ---------------------------------------------------------------------
      1          7           0       -4.840777    0.450605   -5.449887
      2          1           0       -4.223511    1.260933   -5.554903
      3          1           0       -4.460301   -0.306700   -6.036951
      4          1           0       -5.792847    0.699287   -5.750922
      5          6           0       -4.868002   -0.060241   -4.046119
      6          1           0       -4.787005    0.786382   -3.358896
      7          6           0       -3.667844   -0.984750   -3.894091
      8          6           0       -6.200569   -0.793495   -3.783662
      9          1           0       -6.261064   -1.663582   -4.445809
     10          1           0       -6.185185   -1.170507   -2.757112
     11          8           0       -3.149157   -1.475426   -4.931251
     12          6           0       -7.386782    0.117945   -4.010405
     13          6           0       -7.645911    1.180059   -3.135619
     14          1           0       -7.007997    1.326477   -2.268115
     15          6           0       -8.206350   -0.048773   -5.132037
     16          1           0       -8.011884   -0.863931   -5.825425
     17          6           0       -8.716515    2.040880   -3.363280
     18          1           0       -8.910458    2.851641   -2.668647
     19          6           0       -9.272202    0.821075   -5.369725
     20          1           0       -9.898676    0.677385   -6.243767
     21          6           0       -9.530657    1.864654   -4.483601
     22          1           0      -10.362851    2.537423   -4.662652
     23          7           0       -3.239960   -1.262504   -2.662233
     24          1           0       -3.590856   -0.795413   -1.827239
     25          6           0       -2.216502   -2.261338   -2.374619
     26          1           0       -2.498123   -3.220557   -2.824929
     27          6           0       -2.147313   -2.365604   -0.840280
     28          6           0       -0.835682   -1.854610   -2.921337
     29          1           0       -0.022443   -2.405928   -2.441013
     30          1           0       -0.664071   -0.786792   -2.802225
     31          8           0       -2.586785   -1.451335   -0.157893
     32          8           0       -0.779154   -2.110335   -4.394657
     33          1           0       -0.553571   -3.041028   -4.578643
     34          7           0       -1.521789   -3.466355   -0.361008
     35          1           0       -1.026008   -4.040703   -1.030045
     36          6           0       -0.738514   -3.300470    0.861969
     37          1           0       -1.288353   -2.636471    1.530189
     38          6           0        0.570713   -2.613654    0.394103
     39          6           0       -0.507056   -4.633503    1.547836
     40          1           0       -1.477195   -5.076636    1.807589
     41          1           0        0.062045   -4.471900    2.474016
     42          8           0        0.836058   -2.570070   -0.815086
     43          8           0        0.202560   -5.450523    0.622847
     44          1           0        0.485400   -6.255575    1.075058
     45          7           0        1.345255   -2.062900    1.323601
     46          1           0        1.207126   -2.173941    2.325033
     47          6           0        2.586254   -1.381904    0.971482
     48          1           0        3.184743   -2.032605    0.324406
     49          6           0        3.324736   -1.178662    2.309689
     50          6           0        2.315341   -0.072478    0.203772
     51          1           0        1.378110   -0.158405   -0.350201
     52          1           0        2.208660    0.767916    0.898200
     53          8           0        2.819430   -1.558870    3.367959
     54          6           0        3.415008    0.272297   -0.822058
     55          8           0        3.080352    0.938649   -1.820184
     56          8           0        4.590692   -0.127321   -0.584194
     57          7           0        4.505113   -0.557472    2.204861
     58          1           0        4.836463   -0.329886    1.259955
     59          6           0        5.346991   -0.325176    3.369980
     60          1           0        4.715840   -0.010102    4.202756
     61          6           0        6.362729    0.817532    3.071457
     62          6           0        6.207775   -1.554063    3.704816
     63          1           0        6.727445   -1.746371    2.761360
     64          1           0        5.620708   -2.437286    3.965241
     65          8           0        6.211008    1.926821    3.584273
     66          6           0        7.266822   -1.194093    4.768218
     67          1           0        6.914496   -1.345849    5.793064
     68          1           0        7.457042   -0.127942    4.681278
     69          6           0        8.613493   -1.859715    4.479068
     70          1           0        8.654907   -2.907194    4.785621
     71          1           0        8.780400   -1.824062    3.398823
     72          7           0        9.760731   -1.144815    5.076368
     73          1           0        9.972876   -1.340147    6.044972
     74          7           0        9.654436    0.663514    3.566530
     75          1           0        9.934612    1.621638    3.401336
     76          1           0        8.722165    0.471520    3.137125
     77          7           0       11.154993    0.680002    5.346234
     78          1           0       11.767365    0.069373    5.872568
     79          1           0       11.645879    1.431624    4.880852
     80          6           0       10.159609    0.065578    4.636128
     81          8           0        7.373569    0.465311    2.360820
     82          1           0       -1.737649   -1.910417   -4.759508
 ---------------------------------------------------------------------

 SCF Done:  E(RB3LYP) =  -2166.06569164     A.U. after    3 cycles

 Alpha  occ. eigenvalues --  -19.42490 -19.32646 -19.25542 -19.23257 -19.18518
 Alpha  occ. eigenvalues --  -19.12478 -19.07039 -19.06759 -19.06462 -19.06062
 Alpha  occ. eigenvalues --  -14.64552 -14.54134 -14.47300 -14.44384 -14.44125
 Alpha  occ. eigenvalues --  -14.41050 -14.40936 -14.34535 -10.47657 -10.44570
 Alpha  occ. eigenvalues --  -10.42522 -10.40538 -10.40455 -10.39699 -10.36884
 Alpha  occ. eigenvalues --  -10.35357 -10.34142 -10.32820 -10.32472 -10.32437
 Alpha  occ. eigenvalues --  -10.32202 -10.31900 -10.31860 -10.31569 -10.28993
 Alpha  occ. eigenvalues --  -10.27129 -10.24898 -10.24876 -10.24446 -10.20716
 Alpha  occ. eigenvalues --  -10.20618 -10.18714 -10.18563  -1.29456  -1.23928
 Alpha  occ. eigenvalues --   -1.19172  -1.17786  -1.11325  -1.10726  -1.10112
 Alpha  occ. eigenvalues --   -1.08322  -1.04591  -1.04146  -1.00200  -1.00187
 Alpha  occ. eigenvalues --   -1.00115  -0.98035  -0.97476  -0.97006  -0.95839
 Alpha  occ. eigenvalues --   -0.93749  -0.91934  -0.90851  -0.90558  -0.89556
 Alpha  occ. eigenvalues --   -0.87740  -0.86250  -0.84276  -0.82189  -0.82057
 Alpha  occ. eigenvalues --   -0.80120  -0.79025  -0.78120  -0.77466  -0.76733
 Alpha  occ. eigenvalues --   -0.75593  -0.73983  -0.73854  -0.72374  -0.71344
 Alpha  occ. eigenvalues --   -0.70593  -0.70381  -0.69372  -0.68599  -0.67613
 Alpha  occ. eigenvalues --   -0.67518  -0.65893  -0.65076  -0.64965  -0.64145
 Alpha  occ. eigenvalues --   -0.63296  -0.62095  -0.61971  -0.61416  -0.60956
 Alpha  occ. eigenvalues --   -0.60303  -0.59947  -0.59435  -0.59171  -0.58551
 Alpha  occ. eigenvalues --   -0.57302  -0.56974  -0.56730  -0.56429  -0.55870
 Alpha  occ. eigenvalues --   -0.55230  -0.55069  -0.54688  -0.54438  -0.53725
 Alpha  occ. eigenvalues --   -0.53574  -0.53413  -0.51893  -0.51741  -0.51135
 Alpha  occ. eigenvalues --   -0.50807  -0.50161  -0.49588  -0.49400  -0.48944
 Alpha  occ. eigenvalues --   -0.48373  -0.48124  -0.47265  -0.47143  -0.46936
 Alpha  occ. eigenvalues --   -0.46227  -0.45168  -0.45111  -0.44459  -0.44222
 Alpha  occ. eigenvalues --   -0.43346  -0.43041  -0.42721  -0.41921  -0.40605
 Alpha  occ. eigenvalues --   -0.40120  -0.39813  -0.38894  -0.38544  -0.38527
 Alpha  occ. eigenvalues --   -0.38180  -0.37617  -0.37464  -0.37143  -0.36303
 Alpha  occ. eigenvalues --   -0.35988  -0.35525  -0.34723  -0.34370  -0.34130
 Alpha  occ. eigenvalues --   -0.33757  -0.32612  -0.32132  -0.30878  -0.26880
 Alpha  occ. eigenvalues --   -0.25460  -0.22659  -0.22145  -0.21668  -0.21397
 Alpha  occ. eigenvalues --   -0.19898  -0.19597
 Alpha virt. eigenvalues --   -0.18537  -0.14605  -0.13745  -0.13460  -0.13013
 Alpha virt. eigenvalues --   -0.11340  -0.08740  -0.06680  -0.06121  -0.04979
 Alpha virt. eigenvalues --   -0.04836  -0.04476  -0.04401  -0.03505  -0.01922

 Mulliken charges:
               1
     1  N   -0.726461
     2  H    0.431511
     3  H    0.430358
     4  H    0.417017
     5  C   -0.129293
     6  H    0.228826
     7  C    0.652996
     8  C   -0.378597
     9  H    0.189050
    10  H    0.215459
    11  O   -0.636956
    12  C    0.129094
    13  C   -0.185537
    14  H    0.146069
    15  C   -0.216709
    16  H    0.145138
    17  C   -0.121405
    18  H    0.175908
    19  C   -0.120283
    20  H    0.172715
    21  C   -0.122033
    22  H    0.177163
    23  N   -0.605843
    24  H    0.385566
    25  C   -0.110416
    26  H    0.191527
    27  C    0.617626
    28  C   -0.131719
    29  H    0.305774
    30  H    0.255511
    31  O   -0.498070
    32  O   -0.606965
    33  H    0.483947
    34  N   -0.559827
    35  H    0.347716
    36  C   -0.123121
    37  H    0.211758
    38  C    0.662791
    39  C   -0.038526
    40  H    0.151108
    41  H    0.168004
    42  O   -0.578272
    43  O   -0.627628
    44  H    0.416577
    45  N   -0.614786
    46  H    0.352805
    47  C   -0.034360
    48  H    0.195941
    49  C    0.587994
    50  C   -0.367089
    51  H    0.116209
    52  H    0.166007
    53  O   -0.579610
    54  C    0.587556
    55  O   -0.558121
    56  O   -0.559615
    57  N   -0.636209
    58  H    0.399157
    59  C    0.015996
    60  H    0.152173
    61  C    0.517762
    62  C   -0.270901
    63  H    0.163865
    64  H    0.132594
    65  O   -0.548931
    66  C   -0.291371
    67  H    0.134029
    68  H    0.176592
    69  C   -0.173138
    70  H    0.164574
    71  H    0.201067
    72  N   -0.592834
    73  H    0.346199
    74  N   -0.755839
    75  H    0.356224
    76  H    0.457271
    77  N   -0.752889
    78  H    0.352329
    79  H    0.359833
    80  C    0.753038
    81  O   -0.638350
    82  H    0.493281
 Sum of Mulliken charges =   1.00000

 Dipole moment (field-independent basis, Debye):
    X=            -24.2155    Y=            -11.9085    Z=            -18.8313  Tot=             32.9062
 Quadrupole moment (field-independent basis, Debye-Ang):
   XX=             75.1471   YY=           -197.3218   ZZ=            -63.6895
   XY=            -36.9145   XZ=            243.8721   YZ=             -9.6617

 Normal termination of Gaussian 16 at Thu May 26 21:40:27 2022.
