 Gaussian 16, Revision C.01,
 Gaussian 16:  ES64L-G16RevC.01  3-Jul-2019

 -------------------------------------------------------------------
 # B3LYP/6-31G* guess=read geom=check nosymm integral(ultrafinegrid)
 -------------------------------------------------------------------

 ------------------------------------------------------
 Candidate Structure: Conf:433 Charge calc in gas phase
 ------------------------------------------------------
 Structure from the checkpoint file:  "conf-433.chk"
 Charge =  1 Multiplicity = 1

                          Input orientation:
 ---------------------------------------------------------------------
 Center     Atomic      Atomic             Coordinates (Angstroms)
 Number     Number       Type             X           Y           Z
 ---------------------------------------------------------------------
      1          7           0       -6.140887   -3.949089   -3.622796
      2          1           0       -5.582366   -4.341473   -4.384286
      3          1           0       -5.900825   -4.456225   -2.770149
      4          1           0       -7.132801   -4.072959   -3.818344
      5          6           0       -5.781312   -2.525733   -3.475156
      6          1           0       -6.210221   -1.965131   -4.314383
      7          6           0       -4.267674   -2.436980   -3.661264
      8          6           0       -6.325721   -1.915743   -2.178152
      9          1           0       -6.055692   -0.855651   -2.159002
     10          1           0       -7.418120   -1.964087   -2.242688
     11          8           0       -3.696618   -3.292755   -4.355103
     12          6           0       -5.861543   -2.606177   -0.923088
     13          6           0       -6.548525   -3.713149   -0.429599
     14          1           0       -7.446478   -4.054478   -0.936202
     15          6           0       -4.740076   -2.159105   -0.217094
     16          1           0       -4.213215   -1.279592   -0.560711
     17          6           0       -6.101387   -4.392576    0.702968
     18          1           0       -6.645096   -5.262508    1.051770
     19          6           0       -4.293479   -2.828296    0.918645
     20          1           0       -3.411519   -2.459604    1.431122
     21          6           0       -4.967633   -3.953666    1.380348
     22          1           0       -4.618163   -4.480101    2.261293
     23          7           0       -3.610946   -1.421455   -3.104879
     24          1           0       -4.063183   -0.716120   -2.543859
     25          6           0       -2.160656   -1.374955   -3.015979
     26          1           0       -1.775040   -2.357493   -2.726893
     27          6           0       -1.874037   -0.361208   -1.906896
     28          6           0       -1.511763   -0.995450   -4.342261
     29          1           0       -0.471896   -0.704162   -4.211966
     30          1           0       -2.069783   -0.193993   -4.814447
     31          8           0       -2.755978    0.362609   -1.466003
     32          8           0       -1.541596   -2.145567   -5.270811
     33          1           0       -0.757337   -2.706415   -5.142032
     34          7           0       -0.607236   -0.318971   -1.450570
     35          1           0        0.144387   -0.858015   -1.851766
     36          6           0       -0.204619    0.638841   -0.444783
     37          1           0       -0.630274    1.616924   -0.684315
     38          6           0        1.336316    0.679292   -0.506565
     39          6           0       -0.707752    0.245649    0.940902
     40          1           0       -0.163114   -0.633567    1.309029
     41          1           0       -1.767170   -0.011727    0.842355
     42          8           0        1.969661   -0.127196   -1.161265
     43          8           0       -0.532729    1.372901    1.798083
     44          1           0       -0.616687    1.081229    2.709991
     45          7           0        1.912365    1.658844    0.216946
     46          1           0        1.372629    2.188410    0.887080
     47          6           0        3.353506    1.743147    0.350105
     48          1           0        3.754000    0.751546    0.594838
     49          6           0        3.610817    2.699119    1.527023
     50          6           0        4.022822    2.197077   -0.954041
     51          1           0        3.397829    1.908778   -1.798803
     52          1           0        4.139625    3.282477   -0.981937
     53          8           0        2.706342    3.244742    2.133397
     54          6           0        5.423730    1.558975   -1.172927
     55          8           0        5.714986    1.323664   -2.351142
     56          8           0        6.135016    1.378845   -0.158252
     57          7           0        4.913205    2.869808    1.818681
     58          1           0        5.606082    2.379022    1.245150
     59          6           0        5.337222    3.775268    2.851624
     60          1           0        4.541786    4.505270    3.004181
     61          6           0        6.635702    4.498755    2.339992
     62          6           0        5.705469    3.073076    4.146557
     63          1           0        6.104025    3.838540    4.822366
     64          1           0        6.524086    2.383123    3.928777
     65          8           0        6.474936    5.675765    1.984223
     66          6           0        4.529351    2.358790    4.794868
     67          1           0        4.228518    1.516194    4.179935
     68          1           0        3.673461    3.034980    4.851676
     69          6           0        4.850576    1.850154    6.193549
     70          1           0        5.072498    2.690896    6.854558
     71          1           0        3.986655    1.339649    6.629511
     72          7           0        6.028022    0.962220    6.265375
     73          1           0        6.914054    1.448755    6.251722
     74          7           0        4.916484   -0.801183    5.218416
     75          1           0        4.892394   -1.789280    5.024373
     76          1           0        4.044735   -0.393921    5.514685
     77          7           0        7.242420   -0.873428    5.516892
     78          1           0        8.004811   -0.581859    6.113761
     79          1           0        7.222936   -1.860700    5.308661
     80          6           0        6.052184   -0.244629    5.680871
     81          8           0        7.661657    3.789634    2.326190
     82          1           0       -2.363544   -2.688267   -5.011622
 ---------------------------------------------------------------------

 SCF Done:  E(RB3LYP) =  -2165.97123124     A.U. after    3 cycles

 Alpha  occ. eigenvalues --  -19.45255 -19.29710 -19.25797 -19.23479 -19.17794
 Alpha  occ. eigenvalues --  -19.12540 -19.06328 -19.05407 -19.05037 -19.04835
 Alpha  occ. eigenvalues --  -14.62915 -14.51827 -14.51266 -14.50704 -14.50105
 Alpha  occ. eigenvalues --  -14.48390 -14.39367 -14.34274 -10.46993 -10.44074
 Alpha  occ. eigenvalues --  -10.43875 -10.43066 -10.42473 -10.40913 -10.35670
 Alpha  occ. eigenvalues --  -10.34376 -10.33270 -10.32820 -10.32385 -10.32228
 Alpha  occ. eigenvalues --  -10.32104 -10.31474 -10.31333 -10.31275 -10.31130
 Alpha  occ. eigenvalues --  -10.28866 -10.24257 -10.24119 -10.23368 -10.23131
 Alpha  occ. eigenvalues --  -10.21209 -10.20826 -10.16925  -1.32724  -1.22178
 Alpha  occ. eigenvalues --   -1.18608  -1.17995  -1.15477  -1.11182  -1.10313
 Alpha  occ. eigenvalues --   -1.09470  -1.05261  -1.04852  -1.04482  -1.04203
 Alpha  occ. eigenvalues --   -0.99474  -0.99250  -0.98889  -0.96699  -0.96373
 Alpha  occ. eigenvalues --   -0.94370  -0.92107  -0.90400  -0.89882  -0.89003
 Alpha  occ. eigenvalues --   -0.87385  -0.87222  -0.86692  -0.84548  -0.82461
 Alpha  occ. eigenvalues --   -0.81336  -0.80052  -0.78099  -0.77498  -0.76818
 Alpha  occ. eigenvalues --   -0.76501  -0.75829  -0.74991  -0.73400  -0.72904
 Alpha  occ. eigenvalues --   -0.72254  -0.71598  -0.71481  -0.70370  -0.69879
 Alpha  occ. eigenvalues --   -0.68319  -0.67969  -0.67402  -0.66102  -0.64858
 Alpha  occ. eigenvalues --   -0.63904  -0.63607  -0.63230  -0.62941  -0.62496
 Alpha  occ. eigenvalues --   -0.61666  -0.60861  -0.60672  -0.59473  -0.59327
 Alpha  occ. eigenvalues --   -0.58634  -0.58416  -0.58010  -0.57327  -0.56856
 Alpha  occ. eigenvalues --   -0.56526  -0.56071  -0.55598  -0.55467  -0.54639
 Alpha  occ. eigenvalues --   -0.54160  -0.53635  -0.53555  -0.52886  -0.52702
 Alpha  occ. eigenvalues --   -0.52567  -0.51490  -0.50883  -0.50052  -0.49630
 Alpha  occ. eigenvalues --   -0.48926  -0.47899  -0.47171  -0.47056  -0.46733
 Alpha  occ. eigenvalues --   -0.45790  -0.45623  -0.45276  -0.44723  -0.44008
 Alpha  occ. eigenvalues --   -0.43452  -0.43191  -0.42749  -0.42442  -0.42003
 Alpha  occ. eigenvalues --   -0.41219  -0.40482  -0.40350  -0.39288  -0.39035
 Alpha  occ. eigenvalues --   -0.38226  -0.38189  -0.38023  -0.37518  -0.37476
 Alpha  occ. eigenvalues --   -0.36937  -0.36513  -0.35745  -0.35048  -0.34338
 Alpha  occ. eigenvalues --   -0.33879  -0.32963  -0.31834  -0.29517  -0.26853
 Alpha  occ. eigenvalues --   -0.25830  -0.20895  -0.20639  -0.19662  -0.19220
 Alpha  occ. eigenvalues --   -0.18577  -0.18143
 Alpha virt. eigenvalues --   -0.17324  -0.14664  -0.13643  -0.13502  -0.12370
 Alpha virt. eigenvalues --   -0.11896  -0.11253  -0.07257  -0.06978  -0.06646
 Alpha virt. eigenvalues --   -0.06155  -0.04344  -0.03911  -0.03535  -0.03469

 Mulliken charges:
               1
     1  N   -0.684359
     2  H    0.422850
     3  H    0.396682
     4  H    0.383200
     5  C   -0.138822
     6  H    0.208881
     7  C    0.612681
     8  C   -0.402733
     9  H    0.206604
    10  H    0.187346
    11  O   -0.634721
    12  C    0.173213
    13  C   -0.227305
    14  H    0.123386
    15  C   -0.197821
    16  H    0.159241
    17  C   -0.120365
    18  H    0.164307
    19  C   -0.134062
    20  H    0.154957
    21  C   -0.122947
    22  H    0.165288
    23  N   -0.625214
    24  H    0.381587
    25  C   -0.105846
    26  H    0.194424
    27  C    0.625294
    28  C   -0.106413
    29  H    0.249846
    30  H    0.249425
    31  O   -0.513743
    32  O   -0.579939
    33  H    0.475267
    34  N   -0.622219
    35  H    0.347491
    36  C   -0.055009
    37  H    0.211068
    38  C    0.594272
    39  C   -0.033521
    40  H    0.133235
    41  H    0.142938
    42  O   -0.536040
    43  O   -0.601459
    44  H    0.408812
    45  N   -0.619209
    46  H    0.370395
    47  C   -0.026281
    48  H    0.168002
    49  C    0.567688
    50  C   -0.372220
    51  H    0.142594
    52  H    0.170121
    53  O   -0.569962
    54  C    0.589331
    55  O   -0.537908
    56  O   -0.585342
    57  N   -0.619747
    58  H    0.403984
    59  C   -0.019302
    60  H    0.162922
    61  C    0.564966
    62  C   -0.277158
    63  H    0.137300
    64  H    0.153695
    65  O   -0.519323
    66  C   -0.274849
    67  H    0.144622
    68  H    0.184936
    69  C   -0.210398
    70  H    0.199624
    71  H    0.156023
    72  N   -0.557255
    73  H    0.382361
    74  N   -0.713557
    75  H    0.371958
    76  H    0.385672
    77  N   -0.716349
    78  H    0.384290
    79  H    0.371894
    80  C    0.764030
    81  O   -0.561716
    82  H    0.474414
 Sum of Mulliken charges =   1.00000

 Dipole moment (field-independent basis, Debye):
    X=            -34.8295    Y=            -36.0452    Z=              1.8667  Tot=             50.1580
 Quadrupole moment (field-independent basis, Debye-Ang):
   XX=           -185.0613   YY=           -245.4547   ZZ=            -24.7868
   XY=            -28.0826   XZ=            212.0153   YZ=             26.4655

 Normal termination of Gaussian 16 at Thu May 26 21:40:35 2022.
