 Gaussian 16, Revision C.01,
 Gaussian 16:  ES64L-G16RevC.01  3-Jul-2019

 -------------------------------------------------------------------
 # B3LYP/6-31G* guess=read geom=check nosymm integral(ultrafinegrid)
 -------------------------------------------------------------------

 ------------------------------------------------------
 Candidate Structure: Conf:746 Charge calc in gas phase
 ------------------------------------------------------
 Structure from the checkpoint file:  "conf-746.chk"
 Charge =  1 Multiplicity = 1

                          Input orientation:
 ---------------------------------------------------------------------
 Center     Atomic      Atomic             Coordinates (Angstroms)
 Number     Number       Type             X           Y           Z
 ---------------------------------------------------------------------
      1          7           0       -4.488915   -1.786951   -6.291515
      2          1           0       -4.721976   -1.697883   -7.283473
      3          1           0       -3.576861   -2.327193   -6.150158
      4          1           0       -5.251484   -2.285854   -5.822450
      5          6           0       -4.166223   -0.462988   -5.615841
      6          1           0       -3.983628    0.258199   -6.417345
      7          6           0       -2.810374   -0.784286   -4.913355
      8          6           0       -5.336305    0.020028   -4.731564
      9          1           0       -6.267417   -0.163433   -5.285394
     10          1           0       -5.378620   -0.586617   -3.819149
     11          8           0       -2.278014   -1.872828   -5.193117
     12          6           0       -5.250717    1.497364   -4.388427
     13          6           0       -4.956088    1.921753   -3.087132
     14          1           0       -4.781709    1.192887   -2.300178
     15          6           0       -5.480418    2.459815   -5.384265
     16          1           0       -5.737719    2.148752   -6.395682
     17          6           0       -4.875482    3.284511   -2.788763
     18          1           0       -4.630237    3.595841   -1.778628
     19          6           0       -5.407421    3.818411   -5.084764
     20          1           0       -5.594857    4.553343   -5.861989
     21          6           0       -5.101418    4.232710   -3.785018
     22          1           0       -5.042169    5.291652   -3.552443
     23          7           0       -2.302592    0.120254   -4.085017
     24          1           0       -2.803878    0.977813   -3.847920
     25          6           0       -1.046744   -0.064879   -3.355203
     26          1           0       -0.872178   -1.136495   -3.231658
     27          6           0       -1.208472    0.655554   -2.005065
     28          6           0        0.119194    0.594558   -4.155594
     29          1           0       -0.228880    1.572806   -4.500298
     30          1           0        0.349105   -0.021772   -5.033112
     31          8           0       -1.857629    1.699028   -1.951550
     32          8           0        1.262042    0.836425   -3.362110
     33          1           0        1.895207    0.097408   -3.330049
     34          7           0       -0.568437    0.067489   -0.975006
     35          1           0        0.046056   -0.723522   -1.173081
     36          6           0       -0.082892    0.800236    0.190865
     37          1           0       -0.096498    1.872510   -0.026549
     38          6           0        1.367980    0.307042    0.366812
     39          6           0       -0.936852    0.559729    1.455624
     40          1           0       -0.952948   -0.512360    1.697968
     41          1           0       -1.961634    0.875098    1.239984
     42          8           0        1.726803   -0.745593   -0.168426
     43          8           0       -0.482477    1.352484    2.538799
     44          1           0        0.266504    0.905804    2.963343
     45          7           0        2.189801    1.078154    1.106637
     46          1           0        1.864093    1.936484    1.539659
     47          6           0        3.627417    0.857334    1.125087
     48          1           0        3.799785   -0.215517    1.013940
     49          6           0        4.147954    1.383056    2.476037
     50          6           0        4.351458    1.612527   -0.037096
     51          1           0        4.363271    2.683318    0.186580
     52          1           0        5.379453    1.248597   -0.112051
     53          8           0        3.512510    2.243372    3.088266
     54          6           0        3.654837    1.390732   -1.368401
     55          8           0        3.857618    0.459204   -2.123114
     56          8           0        2.725482    2.339616   -1.594636
     57          7           0        5.322812    0.867888    2.880146
     58          1           0        5.835477    0.184102    2.328484
     59          6           0        6.052294    1.335819    4.053518
     60          1           0        5.979759    2.426730    4.098069
     61          6           0        7.522608    0.926160    3.823400
     62          6           0        5.438706    0.732660    5.345955
     63          1           0        5.438843   -0.358838    5.235002
     64          1           0        4.390531    1.053860    5.357118
     65          8           0        8.424155    1.515871    4.589388
     66          6           0        6.090343    1.091757    6.693812
     67          1           0        7.095231    0.659336    6.766598
     68          1           0        5.491692    0.610754    7.477102
     69          6           0        6.179708    2.591174    7.014520
     70          1           0        5.203287    3.063998    6.815153
     71          1           0        6.376628    2.704188    8.093972
     72          7           0        7.238562    3.220806    6.230245
     73          1           0        7.992470    2.203551    5.220575
     74          7           0        6.924398    5.322912    7.295116
     75          1           0        7.492609    6.030045    7.743637
     76          1           0        6.213953    4.931073    7.896723
     77          7           0        8.703231    4.980973    5.851518
     78          1           0        9.117327    4.377647    5.151435
     79          1           0        8.627240    5.945829    5.552651
     80          6           0        7.583317    4.445907    6.460555
     81          8           0        7.810129    0.094190    2.980966
     82          1           0        2.221115    2.072041   -2.397939
 ---------------------------------------------------------------------

 SCF Done:  E(RB3LYP) =  -2166.26901217     A.U. after    2 cycles

 Alpha  occ. eigenvalues --  -19.27677 -19.25740 -19.24744 -19.22195 -19.21605
 Alpha  occ. eigenvalues --  -19.20828 -19.19887 -19.19845 -19.17929 -19.17011
 Alpha  occ. eigenvalues --  -14.60528 -14.50409 -14.44768 -14.43745 -14.42313
 Alpha  occ. eigenvalues --  -14.41889 -14.41284 -14.37251 -10.44548 -10.41691
 Alpha  occ. eigenvalues --  -10.38701 -10.38170 -10.36896 -10.36124 -10.35451
 Alpha  occ. eigenvalues --  -10.35237 -10.34826 -10.34764 -10.34741 -10.31483
 Alpha  occ. eigenvalues --  -10.31274 -10.31243 -10.31156 -10.29904 -10.29554
 Alpha  occ. eigenvalues --  -10.29189 -10.28859 -10.28796 -10.28723 -10.27345
 Alpha  occ. eigenvalues --  -10.26965 -10.24345 -10.24028  -1.20139  -1.16069
 Alpha  occ. eigenvalues --   -1.14476  -1.13675  -1.12659  -1.12540  -1.11957
 Alpha  occ. eigenvalues --   -1.09759  -1.09458  -1.07010  -1.06735  -1.05180
 Alpha  occ. eigenvalues --   -1.04546  -1.01655  -1.00215  -0.98432  -0.97121
 Alpha  occ. eigenvalues --   -0.94527  -0.93777  -0.93266  -0.88498  -0.86547
 Alpha  occ. eigenvalues --   -0.85629  -0.84777  -0.84464  -0.83049  -0.80331
 Alpha  occ. eigenvalues --   -0.79483  -0.76806  -0.76075  -0.75192  -0.73808
 Alpha  occ. eigenvalues --   -0.73104  -0.72550  -0.71311  -0.71006  -0.68807
 Alpha  occ. eigenvalues --   -0.68442  -0.67441  -0.66792  -0.66207  -0.65946
 Alpha  occ. eigenvalues --   -0.65357  -0.64421  -0.64052  -0.63296  -0.62713
 Alpha  occ. eigenvalues --   -0.61873  -0.61542  -0.60615  -0.60262  -0.59879
 Alpha  occ. eigenvalues --   -0.59684  -0.59168  -0.57808  -0.57698  -0.56705
 Alpha  occ. eigenvalues --   -0.56331  -0.56078  -0.55280  -0.54962  -0.54630
 Alpha  occ. eigenvalues --   -0.54547  -0.54364  -0.53836  -0.53670  -0.53489
 Alpha  occ. eigenvalues --   -0.52897  -0.52654  -0.52316  -0.51868  -0.51639
 Alpha  occ. eigenvalues --   -0.51333  -0.51118  -0.50750  -0.50498  -0.50275
 Alpha  occ. eigenvalues --   -0.49884  -0.48988  -0.47955  -0.47840  -0.47360
 Alpha  occ. eigenvalues --   -0.46967  -0.46560  -0.46262  -0.46119  -0.45675
 Alpha  occ. eigenvalues --   -0.45146  -0.44892  -0.44805  -0.44484  -0.44315
 Alpha  occ. eigenvalues --   -0.43890  -0.43227  -0.42600  -0.42357  -0.41632
 Alpha  occ. eigenvalues --   -0.41318  -0.40879  -0.40743  -0.39749  -0.39299
 Alpha  occ. eigenvalues --   -0.37876  -0.37773  -0.36724  -0.35870  -0.35247
 Alpha  occ. eigenvalues --   -0.35037  -0.34484  -0.34312  -0.33964  -0.33779
 Alpha  occ. eigenvalues --   -0.33600  -0.32931  -0.32808  -0.31878  -0.31214
 Alpha  occ. eigenvalues --   -0.30635  -0.29730
 Alpha virt. eigenvalues --   -0.13702  -0.11700  -0.10920  -0.10498  -0.08272
 Alpha virt. eigenvalues --   -0.06793  -0.06614  -0.05407  -0.04334  -0.03338
 Alpha virt. eigenvalues --   -0.02663  -0.02125  -0.02056  -0.01277  -0.00939

 Mulliken charges:
               1
     1  N   -0.762699
     2  H    0.416346
     3  H    0.439413
     4  H    0.414955
     5  C   -0.104909
     6  H    0.231703
     7  C    0.642088
     8  C   -0.386840
     9  H    0.183550
    10  H    0.188833
    11  O   -0.542171
    12  C    0.135226
    13  C   -0.194564
    14  H    0.152731
    15  C   -0.180605
    16  H    0.125758
    17  C   -0.106185
    18  H    0.171786
    19  C   -0.123506
    20  H    0.160925
    21  C   -0.124536
    22  H    0.165192
    23  N   -0.610231
    24  H    0.394109
    25  C   -0.105087
    26  H    0.194862
    27  C    0.628962
    28  C   -0.018927
    29  H    0.173075
    30  H    0.168663
    31  O   -0.534968
    32  O   -0.639010
    33  H    0.435468
    34  N   -0.602582
    35  H    0.361166
    36  C   -0.071652
    37  H    0.197283
    38  C    0.608174
    39  C   -0.038953
    40  H    0.146849
    41  H    0.170408
    42  O   -0.542285
    43  O   -0.606915
    44  H    0.407966
    45  N   -0.606996
    46  H    0.360775
    47  C   -0.071458
    48  H    0.203686
    49  C    0.626833
    50  C   -0.327461
    51  H    0.184623
    52  H    0.192216
    53  O   -0.546272
    54  C    0.581664
    55  O   -0.482726
    56  O   -0.590421
    57  N   -0.619353
    58  H    0.360045
    59  C   -0.070443
    60  H    0.184990
    61  C    0.600922
    62  C   -0.265229
    63  H    0.152429
    64  H    0.167439
    65  O   -0.617489
    66  C   -0.301730
    67  H    0.167781
    68  H    0.149413
    69  C   -0.148494
    70  H    0.148416
    71  H    0.138623
    72  N   -0.568082
    73  H    0.462084
    74  N   -0.761149
    75  H    0.347439
    76  H    0.352838
    77  N   -0.756060
    78  H    0.354769
    79  H    0.338831
    80  C    0.680945
    81  O   -0.485751
    82  H    0.443489
 Sum of Mulliken charges =   1.00000

 Dipole moment (field-independent basis, Debye):
    X=            -14.2950    Y=              4.1497    Z=            -15.4164  Tot=             21.4297
 Quadrupole moment (field-independent basis, Debye-Ang):
   XX=           -142.5822   YY=           -191.5094   ZZ=            -25.9661
   XY=             74.8816   XZ=            166.6705   YZ=             63.8495

 Normal termination of Gaussian 16 at Thu May 26 21:40:16 2022.
