 Gaussian 16, Revision C.01,
 Gaussian 16:  ES64L-G16RevC.01  3-Jul-2019

 -------------------------------------------------------------------
 # B3LYP/6-31G* guess=read geom=check nosymm integral(ultrafinegrid)
 -------------------------------------------------------------------

 ------------------------------------------------------
 Candidate Structure: Conf:197 Charge calc in gas phase
 ------------------------------------------------------
 Structure from the checkpoint file:  "conf-197.chk"
 Charge =  1 Multiplicity = 1

                          Input orientation:
 ---------------------------------------------------------------------
 Center     Atomic      Atomic             Coordinates (Angstroms)
 Number     Number       Type             X           Y           Z
 ---------------------------------------------------------------------
      1          7           0       -4.381967    1.832822   -4.766338
      2          1           0       -4.167200    2.314202   -5.643661
      3          1           0       -4.908480    0.951190   -4.992445
      4          1           0       -4.910766    2.472873   -4.156748
      5          6           0       -3.147916    1.309474   -4.062825
      6          1           0       -2.294176    1.937345   -4.318418
      7          6           0       -3.011581   -0.131374   -4.594230
      8          6           0       -3.384765    1.325254   -2.536980
      9          1           0       -4.225106    0.660970   -2.300093
     10          1           0       -2.480649    0.895827   -2.099300
     11          8           0       -4.031134   -0.680206   -5.040913
     12          6           0       -3.627324    2.730170   -2.032871
     13          6           0       -2.542769    3.607048   -1.869331
     14          1           0       -1.535564    3.237172   -2.050989
     15          6           0       -4.926614    3.196455   -1.780257
     16          1           0       -5.771206    2.510827   -1.848165
     17          6           0       -2.760046    4.922257   -1.462678
     18          1           0       -1.914274    5.590647   -1.327669
     19          6           0       -5.142011    4.519133   -1.376652
     20          1           0       -6.151377    4.864416   -1.171406
     21          6           0       -4.058971    5.382794   -1.220948
     22          1           0       -4.222224    6.408151   -0.902045
     23          7           0       -1.785596   -0.635864   -4.484972
     24          1           0       -1.072585   -0.031052   -4.000288
     25          6           0       -1.501882   -2.056256   -4.574240
     26          1           0       -2.378838   -2.561221   -4.994906
     27          6           0       -1.305634   -2.576754   -3.125796
     28          6           0       -0.299572   -2.244149   -5.513409
     29          1           0        0.558742   -1.711154   -5.088820
     30          1           0       -0.562504   -1.807496   -6.484807
     31          8           0       -1.866591   -2.049161   -2.169960
     32          8           0       -0.037975   -3.649203   -5.651474
     33          1           0        0.751598   -3.751190   -6.204755
     34          7           0       -0.500492   -3.671085   -2.975468
     35          1           0        0.021319   -3.995173   -3.792113
     36          6           0       -0.090570   -4.065887   -1.640717
     37          1           0       -0.960090   -3.996634   -0.980591
     38          6           0        0.967373   -3.072655   -1.144073
     39          6           0        0.419862   -5.504551   -1.634956
     40          1           0       -0.373492   -6.165345   -2.000059
     41          1           0        0.698617   -5.803390   -0.616067
     42          8           0        2.231633   -3.261006   -1.423887
     43          8           0        1.558590   -5.546576   -2.513679
     44          1           0        1.943639   -6.437366   -2.516083
     45          7           0        0.609654   -2.020640   -0.477950
     46          1           0       -0.378110   -1.915962   -0.256044
     47          6           0        1.450828   -0.847977   -0.174675
     48          1           0        2.462065   -1.077745   -0.508343
     49          6           0        1.349225   -0.628657    1.348198
     50          6           0        0.892731    0.388751   -0.913111
     51          1           0       -0.010801    0.737057   -0.401479
     52          1           0        1.630967    1.195170   -0.828160
     53          8           0        0.295193   -0.910681    1.924430
     54          6           0        0.557774    0.154055   -2.405247
     55          8           0        1.070909   -0.832037   -2.980895
     56          8           0       -0.266365    0.981290   -2.909634
     57          7           0        2.431792   -0.085048    1.921150
     58          1           0        3.267238    0.184607    1.397768
     59          6           0        2.478299    0.425452    3.289066
     60          1           0        1.538652    0.944595    3.507128
     61          6           0        3.658673    1.449558    3.302025
     62          6           0        2.639354   -0.759248    4.290943
     63          1           0        3.673052   -1.128314    4.243767
     64          1           0        2.006942   -1.557512    3.892093
     65          8           0        3.672565    2.267988    4.287232
     66          6           0        2.206281   -0.526506    5.762577
     67          1           0        1.649693   -1.405143    6.108630
     68          1           0        1.501619    0.312946    5.823315
     69          6           0        3.331063   -0.302635    6.786401
     70          1           0        2.900204   -0.285503    7.796688
     71          1           0        4.052231   -1.129831    6.745474
     72          7           0        4.011857    0.961135    6.505373
     73          1           0        3.592344    1.538211    5.735342
     74          7           0        6.063532    0.480005    7.515259
     75          1           0        7.041585    0.699102    7.635276
     76          1           0        5.608002    0.036067    8.299150
     77          7           0        5.865769    2.146779    5.878722
     78          1           0        5.295934    2.476526    5.073949
     79          1           0        6.810953    2.467160    6.022523
     80          6           0        5.313952    1.199240    6.642304
     81          8           0        4.485071    1.376410    2.381165
     82          1           0        2.325434   -4.103370   -1.941492
 ---------------------------------------------------------------------

 SCF Done:  E(RB3LYP) =  -2166.26230272     A.U. after    2 cycles

 Alpha  occ. eigenvalues --  -19.31236 -19.29618 -19.24417 -19.22127 -19.20916
 Alpha  occ. eigenvalues --  -19.17527 -19.15103 -19.14676 -19.14614 -19.13888
 Alpha  occ. eigenvalues --  -14.56042 -14.49591 -14.46697 -14.45261 -14.44057
 Alpha  occ. eigenvalues --  -14.43818 -14.43223 -14.41114 -10.43556 -10.41319
 Alpha  occ. eigenvalues --  -10.38674 -10.38032 -10.36744 -10.36247 -10.35643
 Alpha  occ. eigenvalues --  -10.35021 -10.33154 -10.32153 -10.31935 -10.31852
 Alpha  occ. eigenvalues --  -10.31407 -10.30455 -10.28657 -10.28188 -10.27463
 Alpha  occ. eigenvalues --  -10.27423 -10.26965 -10.26646 -10.26568 -10.26370
 Alpha  occ. eigenvalues --  -10.25985 -10.25453 -10.24873  -1.21921  -1.16072
 Alpha  occ. eigenvalues --   -1.14456  -1.13003  -1.11131  -1.10088  -1.09839
 Alpha  occ. eigenvalues --   -1.09800  -1.08147  -1.07538  -1.06465  -1.02283
 Alpha  occ. eigenvalues --   -1.01538  -0.99997  -0.99074  -0.98766  -0.97990
 Alpha  occ. eigenvalues --   -0.97310  -0.93775  -0.89799  -0.88839  -0.86592
 Alpha  occ. eigenvalues --   -0.85536  -0.84738  -0.82278  -0.81704  -0.80138
 Alpha  occ. eigenvalues --   -0.77858  -0.75938  -0.75357  -0.74835  -0.73159
 Alpha  occ. eigenvalues --   -0.72104  -0.71551  -0.69932  -0.69539  -0.69091
 Alpha  occ. eigenvalues --   -0.68066  -0.67892  -0.67401  -0.66579  -0.66258
 Alpha  occ. eigenvalues --   -0.66215  -0.65125  -0.64099  -0.63900  -0.63401
 Alpha  occ. eigenvalues --   -0.62093  -0.60958  -0.60046  -0.59497  -0.58893
 Alpha  occ. eigenvalues --   -0.58747  -0.58659  -0.58361  -0.57088  -0.56918
 Alpha  occ. eigenvalues --   -0.55937  -0.55600  -0.55338  -0.54718  -0.54305
 Alpha  occ. eigenvalues --   -0.54000  -0.53681  -0.53546  -0.53045  -0.52711
 Alpha  occ. eigenvalues --   -0.52329  -0.51871  -0.51207  -0.50771  -0.50642
 Alpha  occ. eigenvalues --   -0.50206  -0.49758  -0.49679  -0.49575  -0.49477
 Alpha  occ. eigenvalues --   -0.48724  -0.48485  -0.48070  -0.47961  -0.47259
 Alpha  occ. eigenvalues --   -0.47022  -0.46646  -0.46583  -0.46157  -0.45639
 Alpha  occ. eigenvalues --   -0.45586  -0.45143  -0.44198  -0.43631  -0.43310
 Alpha  occ. eigenvalues --   -0.42523  -0.42180  -0.41956  -0.41671  -0.41647
 Alpha  occ. eigenvalues --   -0.41339  -0.40816  -0.40564  -0.39688  -0.39409
 Alpha  occ. eigenvalues --   -0.37239  -0.36938  -0.36487  -0.35639  -0.35348
 Alpha  occ. eigenvalues --   -0.34077  -0.33859  -0.33104  -0.32442  -0.32281
 Alpha  occ. eigenvalues --   -0.31532  -0.30504  -0.29854  -0.29776  -0.28971
 Alpha  occ. eigenvalues --   -0.28864  -0.28171
 Alpha virt. eigenvalues --   -0.12507  -0.09321  -0.08801  -0.07332  -0.06408
 Alpha virt. eigenvalues --   -0.06108  -0.05954  -0.05667  -0.03952  -0.02745
 Alpha virt. eigenvalues --   -0.01704  -0.00345  -0.00238  -0.00078   0.00306

 Mulliken charges:
               1
     1  N   -0.748399
     2  H    0.408241
     3  H    0.416748
     4  H    0.399422
     5  C   -0.122513
     6  H    0.229631
     7  C    0.636211
     8  C   -0.377796
     9  H    0.172878
    10  H    0.239939
    11  O   -0.553438
    12  C    0.128699
    13  C   -0.190333
    14  H    0.182248
    15  C   -0.229815
    16  H    0.136224
    17  C   -0.127571
    18  H    0.155840
    19  C   -0.125152
    20  H    0.151644
    21  C   -0.125741
    22  H    0.153675
    23  N   -0.615383
    24  H    0.424032
    25  C   -0.091880
    26  H    0.214494
    27  C    0.657262
    28  C   -0.077809
    29  H    0.202419
    30  H    0.155252
    31  O   -0.541450
    32  O   -0.635941
    33  H    0.417480
    34  N   -0.606799
    35  H    0.384911
    36  C   -0.085025
    37  H    0.213782
    38  C    0.672566
    39  C   -0.081600
    40  H    0.194670
    41  H    0.178369
    42  O   -0.565699
    43  O   -0.642408
    44  H    0.438593
    45  N   -0.503879
    46  H    0.393315
    47  C   -0.093637
    48  H    0.201750
    49  C    0.637307
    50  C   -0.385305
    51  H    0.174451
    52  H    0.191910
    53  O   -0.558749
    54  C    0.625881
    55  O   -0.595299
    56  O   -0.625432
    57  N   -0.617345
    58  H    0.358255
    59  C   -0.045452
    60  H    0.167648
    61  C    0.593371
    62  C   -0.273396
    63  H    0.141565
    64  H    0.170157
    65  O   -0.639713
    66  C   -0.304958
    67  H    0.158416
    68  H    0.170322
    69  C   -0.144413
    70  H    0.161282
    71  H    0.160314
    72  N   -0.612569
    73  H    0.411749
    74  N   -0.755138
    75  H    0.361623
    76  H    0.369353
    77  N   -0.775838
    78  H    0.419929
    79  H    0.349000
    80  C    0.770372
    81  O   -0.546457
    82  H    0.469131
 Sum of Mulliken charges =   1.00000

 Dipole moment (field-independent basis, Debye):
    X=              1.5326    Y=             -6.4546    Z=             -0.7149  Tot=              6.6725
 Quadrupole moment (field-independent basis, Debye-Ang):
   XX=           -133.3669   YY=           -151.3580   ZZ=            -65.9755
   XY=            -51.9208   XZ=            121.5727   YZ=              0.0276

 Normal termination of Gaussian 16 at Thu May 26 21:40:43 2022.
