 Gaussian 16, Revision C.01,
 Gaussian 16:  ES64L-G16RevC.01  3-Jul-2019

 ----------------------------------------------------------------------
 # B3LYP/6-31G* empiricaldispersion=gd3 guess=read geom=check nosymm in
 tegral(ultrafinegrid)
 ----------------------------------------------------------------------

 ------------------------------------------------------
 Candidate Structure: Conf:883 Charge calc in gas phase
 ------------------------------------------------------
 Structure from the checkpoint file:  "conf-883.chk"
 Charge =  1 Multiplicity = 1

                          Input orientation:
 ---------------------------------------------------------------------
 Center     Atomic      Atomic             Coordinates (Angstroms)
 Number     Number       Type             X           Y           Z
 ---------------------------------------------------------------------
      1          7           0       -2.002408    1.682638   -3.560759
      2          1           0       -1.887681    2.593099   -3.095178
      3          1           0       -2.067135    1.758248   -4.578568
      4          1           0       -1.161846    1.089683   -3.290826
      5          6           0       -3.222792    1.019117   -2.967056
      6          1           0       -4.091240    1.583878   -3.324613
      7          6           0       -3.027468    1.288481   -1.448920
      8          6           0       -3.291550   -0.438390   -3.469035
      9          1           0       -2.530244   -1.025108   -2.948864
     10          1           0       -4.271806   -0.841638   -3.208003
     11          8           0       -2.364748    2.286109   -1.146296
     12          6           0       -3.087217   -0.527864   -4.969596
     13          6           0       -4.157248   -0.306520   -5.847438
     14          1           0       -5.152776   -0.120033   -5.449075
     15          6           0       -1.810484   -0.780061   -5.496129
     16          1           0       -0.975325   -0.940669   -4.817483
     17          6           0       -3.960124   -0.342263   -7.228444
     18          1           0       -4.799232   -0.178933   -7.898470
     19          6           0       -1.615488   -0.813986   -6.878872
     20          1           0       -0.625420   -1.016977   -7.277269
     21          6           0       -2.687814   -0.596159   -7.746436
     22          1           0       -2.534937   -0.628076   -8.821203
     23          7           0       -3.465139    0.416527   -0.516319
     24          6           0       -2.983024    0.601318    0.876754
     25          1           0       -3.307483    1.573003    1.258625
     26          6           0       -1.446272    0.609635    0.964130
     27          6           0       -3.649863   -0.563128    1.631360
     28          1           0       -3.017044   -1.456717    1.572906
     29          1           0       -3.799929   -0.323142    2.685687
     30          8           0       -0.868773    1.245034    1.831918
     31          6           0       -4.956459   -0.783397    0.855749
     32          1           0       -5.409832   -1.761273    1.037519
     33          1           0       -5.689383   -0.012354    1.118036
     34          6           0       -4.521045   -0.615761   -0.606804
     35          1           0       -5.334148   -0.285322   -1.258527
     36          1           0       -4.112199   -1.553105   -1.000864
     37          7           0       -0.800026   -0.157230    0.032531
     38          1           0       -1.346761   -0.473019   -0.757413
     39          6           0        0.575671    0.166066   -0.325123
     40          1           0        0.699081    1.253749   -0.200339
     41          6           0        0.766860   -0.121048   -1.840311
     42          6           0        1.602407   -0.527599    0.583820
     43          1           0        1.736794   -1.559019    0.235062
     44          1           0        1.173104   -0.588197    1.586977
     45          8           0       -0.270013   -0.068065   -2.563838
     46          6           0        2.934386    0.246852    0.644532
     47          1           0        3.071631    0.815107   -0.284166
     48          1           0        2.872267    1.001500    1.435796
     49          6           0        4.179536   -0.620345    0.891553
     50          1           0        4.115723   -1.119689    1.865723
     51          1           0        5.069558    0.021523    0.932534
     52          6           0        4.397714   -1.713927   -0.157689
     53          1           0        5.390611   -2.162730   -0.070089
     54          1           0        3.654226   -2.509847   -0.079691
     55          7           0        4.251071   -1.154766   -1.550038
     56          1           0        4.466303   -1.857617   -2.262219
     57          1           0        4.886896   -0.366008   -1.699774
     58          1           0        3.217994   -0.796436   -1.750857
     59          8           0        1.919713   -0.369852   -2.285309
 ---------------------------------------------------------------------

 SCF Done:  E(RB3LYP) =  -1300.62340475     A.U. after    2 cycles

 Alpha  occ. eigenvalues --  -19.23594 -19.21661 -19.21118 -19.19569 -14.54918
 Alpha  occ. eigenvalues --  -14.54532 -14.48097 -14.43342 -10.40975 -10.39300
 Alpha  occ. eigenvalues --  -10.37817 -10.36730 -10.36315 -10.33535 -10.32457
 Alpha  occ. eigenvalues --  -10.31518 -10.31030 -10.30579 -10.29677 -10.29054
 Alpha  occ. eigenvalues --  -10.28736 -10.28646 -10.28497 -10.28096 -10.28088
 Alpha  occ. eigenvalues --  -10.28035 -10.27889 -10.27629  -1.16316  -1.14617
 Alpha  occ. eigenvalues --   -1.11517  -1.10064  -1.09611  -1.05702  -1.05442
 Alpha  occ. eigenvalues --   -1.00221  -0.95206  -0.91309  -0.91079  -0.89101
 Alpha  occ. eigenvalues --   -0.86680  -0.84838  -0.83721  -0.83539  -0.80287
 Alpha  occ. eigenvalues --   -0.77532  -0.75193  -0.74311  -0.70881  -0.70083
 Alpha  occ. eigenvalues --   -0.69668  -0.69326  -0.69177  -0.68490  -0.68338
 Alpha  occ. eigenvalues --   -0.67844  -0.67118  -0.65724  -0.63398  -0.61228
 Alpha  occ. eigenvalues --   -0.60881  -0.60246  -0.59764  -0.59657  -0.58238
 Alpha  occ. eigenvalues --   -0.56661  -0.55886  -0.55636  -0.54943  -0.54681
 Alpha  occ. eigenvalues --   -0.54105  -0.53524  -0.53158  -0.52708  -0.51921
 Alpha  occ. eigenvalues --   -0.51696  -0.51037  -0.50587  -0.50439  -0.50225
 Alpha  occ. eigenvalues --   -0.49894  -0.49588  -0.48672  -0.48196  -0.48088
 Alpha  occ. eigenvalues --   -0.46783  -0.46189  -0.45497  -0.45093  -0.44974
 Alpha  occ. eigenvalues --   -0.43918  -0.43543  -0.43467  -0.43331  -0.43103
 Alpha  occ. eigenvalues --   -0.42307  -0.37868  -0.37342  -0.36355  -0.36123
 Alpha  occ. eigenvalues --   -0.35449  -0.34312  -0.33939  -0.33644  -0.32730
 Alpha virt. eigenvalues --   -0.11272  -0.09713  -0.09574  -0.07884  -0.06961
 Alpha virt. eigenvalues --   -0.06045  -0.04159  -0.02603  -0.02412  -0.00824
 Alpha virt. eigenvalues --   -0.00658  -0.00059   0.00547   0.01051   0.01386

 Mulliken charges:
               1
     1  N   -0.759025
     2  H    0.410396
     3  H    0.398632
     4  H    0.448913
     5  C   -0.103810
     6  H    0.209710
     7  C    0.615995
     8  C   -0.376310
     9  H    0.199447
    10  H    0.179491
    11  O   -0.523704
    12  C    0.108728
    13  C   -0.183467
    14  H    0.134898
    15  C   -0.219188
    16  H    0.176083
    17  C   -0.127580
    18  H    0.156955
    19  C   -0.129798
    20  H    0.152327
    21  C   -0.124959
    22  H    0.156967
    23  N   -0.488082
    24  C   -0.016106
    25  H    0.201147
    26  C    0.607531
    27  C   -0.312351
    28  H    0.166314
    29  H    0.191539
    30  O   -0.510611
    31  C   -0.301346
    32  H    0.176641
    33  H    0.173811
    34  C   -0.138197
    35  H    0.171981
    36  H    0.172165
    37  N   -0.614672
    38  H    0.341598
    39  C   -0.050189
    40  H    0.186248
    41  C    0.605567
    42  C   -0.261738
    43  H    0.125464
    44  H    0.187576
    45  O   -0.603879
    46  C   -0.299828
    47  H    0.137429
    48  H    0.185912
    49  C   -0.289278
    50  H    0.186275
    51  H    0.163187
    52  C   -0.184301
    53  H    0.199413
    54  H    0.204991
    55  N   -0.773027
    56  H    0.396154
    57  H    0.390055
    58  H    0.472132
    59  O   -0.600225
 Sum of Mulliken charges =   1.00000

 Dipole moment (field-independent basis, Debye):
    X=              0.7865    Y=             -2.9098    Z=            -11.9870  Tot=             12.3601
 Quadrupole moment (field-independent basis, Debye-Ang):
   XX=            -50.9135   YY=           -155.1635   ZZ=           -107.3273
   XY=            -17.7590   XZ=             15.6977   YZ=            -13.5994

 Normal termination of Gaussian 16 at Thu Jun  2 02:17:15 2022.
