 Gaussian 16, Revision C.01,
 Gaussian 16:  ES64L-G16RevC.01  3-Jul-2019

 ----------------------------------------------------------------------
 # B3LYP/6-31G* empiricaldispersion=gd3 guess=read geom=check nosymm in
 tegral(ultrafinegrid)
 ----------------------------------------------------------------------

 ------------------------------------------------------
 Candidate Structure: Conf:961 Charge calc in gas phase
 ------------------------------------------------------
 Structure from the checkpoint file:  "conf-961.chk"
 Charge =  1 Multiplicity = 1

                          Input orientation:
 ---------------------------------------------------------------------
 Center     Atomic      Atomic             Coordinates (Angstroms)
 Number     Number       Type             X           Y           Z
 ---------------------------------------------------------------------
      1          7           0       -5.064036    2.118665    3.351444
      2          1           0       -6.000193    2.031182    2.945959
      3          1           0       -5.141659    2.540140    4.280654
      4          1           0       -4.618392    1.149236    3.388200
      5          6           0       -4.083445    2.843532    2.445122
      6          1           0       -4.642019    3.526591    1.803774
      7          6           0       -3.422003    1.655783    1.695611
      8          6           0       -3.052397    3.602922    3.323670
      9          1           0       -3.601072    4.064399    4.158017
     10          1           0       -2.352732    2.873116    3.743110
     11          8           0       -3.476809    0.556020    2.278082
     12          6           0       -2.312966    4.689142    2.570984
     13          6           0       -2.988609    5.864190    2.210063
     14          1           0       -4.026371    6.007951    2.507792
     15          6           0       -0.970481    4.528748    2.208856
     16          1           0       -0.450130    3.613514    2.466993
     17          6           0       -2.340420    6.856836    1.475972
     18          1           0       -2.872393    7.763385    1.202681
     19          6           0       -0.321017    5.528320    1.480223
     20          1           0        0.722073    5.398509    1.205901
     21          6           0       -1.003014    6.687481    1.106479
     22          1           0       -0.494426    7.461210    0.538892
     23          7           0       -2.804790    1.848670    0.535025
     24          6           0       -1.888552    0.806078    0.044139
     25          1           0       -2.420090   -0.145411   -0.049999
     26          6           0       -0.728987    0.630968    1.061803
     27          6           0       -1.411192    1.362759   -1.315282
     28          1           0       -0.405666    1.017605   -1.566972
     29          1           0       -2.089956    1.033623   -2.109663
     30          8           0       -0.566652    1.399424    2.008994
     31          6           0       -1.500864    2.885089   -1.124447
     32          1           0       -0.657707    3.248998   -0.528661
     33          1           0       -1.524968    3.437648   -2.066538
     34          6           0       -2.793610    3.056304   -0.322753
     35          1           0       -3.674073    3.033167   -0.977733
     36          1           0       -2.806563    3.970726    0.266559
     37          7           0        0.072268   -0.414260    0.795094
     38          1           0       -0.056211   -0.996484   -0.027846
     39          6           0        1.280470   -0.707961    1.555070
     40          1           0        1.837294    0.221046    1.717974
     41          6           0        2.103695   -1.678937    0.720162
     42          6           0        0.975718   -1.341670    2.937174
     43          1           0        0.247973   -0.678593    3.415970
     44          1           0        1.893071   -1.293778    3.533057
     45          8           0        3.255157   -1.978425    1.288312
     46          6           0        0.434619   -2.790971    2.925020
     47          1           0       -0.186759   -2.900432    3.820648
     48          1           0       -0.253667   -2.920512    2.078528
     49          6           0        1.490892   -3.938981    2.942211
     50          1           0        1.175845   -4.671151    3.693182
     51          1           0        2.446716   -3.538872    3.300490
     52          6           0        1.736406   -4.701204    1.610978
     53          1           0        1.467129   -5.758774    1.731387
     54          1           0        1.110270   -4.297872    0.812620
     55          7           0        3.143554   -4.572070    1.140581
     56          1           0        3.244834   -5.006131    0.223776
     57          1           0        3.773325   -5.067313    1.772043
     58          1           0        3.443590   -2.980179    1.072555
     59          8           0        1.653202   -2.199083   -0.292990
 ---------------------------------------------------------------------

 SCF Done:  E(RB3LYP) =  -1300.60465672     A.U. after    3 cycles

 Alpha  occ. eigenvalues --  -19.26123 -19.23310 -19.21225 -19.20738 -14.59778
 Alpha  occ. eigenvalues --  -14.49780 -14.44863 -14.42328 -10.42936 -10.40654
 Alpha  occ. eigenvalues --  -10.38504 -10.38398 -10.34331 -10.33792 -10.33484
 Alpha  occ. eigenvalues --  -10.31234 -10.30462 -10.29962 -10.29547 -10.29326
 Alpha  occ. eigenvalues --  -10.28930 -10.28791 -10.28541 -10.28439 -10.28279
 Alpha  occ. eigenvalues --  -10.26191 -10.26004 -10.25852  -1.18954  -1.15978
 Alpha  occ. eigenvalues --   -1.13804  -1.12778  -1.07452  -1.07278  -1.01497
 Alpha  occ. eigenvalues --   -0.97585  -0.96363  -0.92987  -0.90742  -0.88051
 Alpha  occ. eigenvalues --   -0.86242  -0.85108  -0.84194  -0.82513  -0.79539
 Alpha  occ. eigenvalues --   -0.77439  -0.76435  -0.73588  -0.73057  -0.71603
 Alpha  occ. eigenvalues --   -0.70805  -0.70368  -0.69756  -0.68018  -0.67196
 Alpha  occ. eigenvalues --   -0.66279  -0.64386  -0.64187  -0.62901  -0.62026
 Alpha  occ. eigenvalues --   -0.60817  -0.58591  -0.57988  -0.57791  -0.57597
 Alpha  occ. eigenvalues --   -0.57013  -0.55807  -0.55457  -0.55333  -0.54515
 Alpha  occ. eigenvalues --   -0.53915  -0.53433  -0.53113  -0.52551  -0.51896
 Alpha  occ. eigenvalues --   -0.51580  -0.51192  -0.50863  -0.50385  -0.49756
 Alpha  occ. eigenvalues --   -0.49325  -0.48853  -0.48219  -0.47660  -0.46799
 Alpha  occ. eigenvalues --   -0.45837  -0.45196  -0.45163  -0.44760  -0.44344
 Alpha  occ. eigenvalues --   -0.44243  -0.43577  -0.43354  -0.40888  -0.40727
 Alpha  occ. eigenvalues --   -0.40566  -0.40008  -0.37806  -0.37374  -0.35202
 Alpha  occ. eigenvalues --   -0.34828  -0.34770  -0.34650  -0.34294  -0.33728
 Alpha virt. eigenvalues --   -0.12661  -0.11110  -0.10754  -0.09969  -0.07551
 Alpha virt. eigenvalues --   -0.06206  -0.06116  -0.02892  -0.01461  -0.00843
 Alpha virt. eigenvalues --   -0.00267  -0.00051   0.00815   0.01311   0.02148

 Mulliken charges:
               1
     1  N   -0.753258
     2  H    0.413192
     3  H    0.408863
     4  H    0.433757
     5  C   -0.117740
     6  H    0.208670
     7  C    0.658937
     8  C   -0.377900
     9  H    0.167187
    10  H    0.218985
    11  O   -0.554906
    12  C    0.124509
    13  C   -0.185783
    14  H    0.123315
    15  C   -0.181143
    16  H    0.198051
    17  C   -0.127556
    18  H    0.157136
    19  C   -0.140668
    20  H    0.157358
    21  C   -0.124979
    22  H    0.159719
    23  N   -0.435350
    24  C   -0.076379
    25  H    0.195415
    26  C    0.653325
    27  C   -0.309987
    28  H    0.186953
    29  H    0.172482
    30  O   -0.545755
    31  C   -0.303397
    32  H    0.183566
    33  H    0.178502
    34  C   -0.152446
    35  H    0.171181
    36  H    0.198848
    37  N   -0.613884
    38  H    0.356303
    39  C   -0.036597
    40  H    0.186196
    41  C    0.607017
    42  C   -0.267761
    43  H    0.166282
    44  H    0.166176
    45  O   -0.603826
    46  C   -0.286740
    47  H    0.148921
    48  H    0.141889
    49  C   -0.285179
    50  H    0.152608
    51  H    0.161220
    52  C   -0.160681
    53  H    0.152660
    54  H    0.183915
    55  N   -0.777559
    56  H    0.341772
    57  H    0.333285
    58  H    0.461200
    59  O   -0.509923
 Sum of Mulliken charges =   1.00000

 Dipole moment (field-independent basis, Debye):
    X=            -15.4507    Y=              7.1854    Z=              9.5907  Tot=             19.5534
 Quadrupole moment (field-independent basis, Debye-Ang):
   XX=            -64.3675   YY=            -83.2042   ZZ=           -124.3465
   XY=            -64.9612   XZ=            -44.3508   YZ=             10.5365

 Normal termination of Gaussian 16 at Thu Jun  2 02:17:33 2022.
