 Gaussian 16, Revision C.01,
 Gaussian 16:  ES64L-G16RevC.01  3-Jul-2019

 ----------------------------------------------------------------------
 # B3LYP/6-31G* empiricaldispersion=gd3 guess=read geom=check nosymm in
 tegral(ultrafinegrid)
 ----------------------------------------------------------------------

 ------------------------------------------------------
 Candidate Structure: Conf:217 Charge calc in gas phase
 ------------------------------------------------------
 Structure from the checkpoint file:  "conf-217.chk"
 Charge =  1 Multiplicity = 1

                          Input orientation:
 ---------------------------------------------------------------------
 Center     Atomic      Atomic             Coordinates (Angstroms)
 Number     Number       Type             X           Y           Z
 ---------------------------------------------------------------------
      1          7           0       -4.436977    2.510643    3.558031
      2          1           0       -5.361795    2.140344    3.790989
      3          1           0       -4.269859    3.370100    4.104172
      4          1           0       -3.716943    1.762114    3.748127
      5          6           0       -4.253330    2.765549    2.079171
      6          1           0       -5.237151    2.932047    1.638396
      7          6           0       -3.537330    1.491186    1.586083
      8          6           0       -3.333050    4.000013    1.878793
      9          1           0       -2.306067    3.710640    2.123684
     10          1           0       -3.332701    4.231008    0.810636
     11          8           0       -2.983393    0.791351    2.448553
     12          6           0       -3.801411    5.179846    2.699553
     13          6           0       -4.914811    5.934610    2.301359
     14          1           0       -5.404176    5.714581    1.354678
     15          6           0       -3.173055    5.487265    3.917328
     16          1           0       -2.283258    4.936357    4.217959
     17          6           0       -5.384862    6.977398    3.098097
     18          1           0       -6.239005    7.563453    2.771814
     19          6           0       -3.648449    6.530425    4.719587
     20          1           0       -3.144247    6.766723    5.651935
     21          6           0       -4.755120    7.274288    4.311249
     22          1           0       -5.121742    8.088685    4.928684
     23          7           0       -3.475753    1.250459    0.275684
     24          6           0       -2.413046    0.365384   -0.227977
     25          1           0       -2.552787   -0.640499    0.178443
     26          6           0       -1.048962    0.951805    0.207781
     27          6           0       -2.580466    0.419858   -1.770750
     28          1           0       -1.808394    1.065613   -2.201345
     29          1           0       -2.478727   -0.568209   -2.224592
     30          8           0       -0.943601    2.139862    0.514095
     31          6           0       -3.970645    1.042861   -1.992001
     32          1           0       -4.061910    1.546803   -2.957339
     33          1           0       -4.753754    0.279942   -1.926825
     34          6           0       -4.098218    2.016012   -0.815999
     35          1           0       -5.133640    2.273635   -0.576555
     36          1           0       -3.528119    2.934284   -1.005008
     37          7           0       -0.022772    0.088786    0.140825
     38          1           0       -0.163392   -0.896122   -0.061541
     39          6           0        1.356311    0.464853    0.420649
     40          1           0        1.559006    1.439537   -0.028458
     41          6           0        2.266092   -0.585292   -0.198899
     42          6           0        1.622992    0.537584    1.958878
     43          1           0        1.038103   -0.262252    2.429654
     44          1           0        1.192845    1.484286    2.300333
     45          8           0        3.461656   -0.096032   -0.475638
     46          6           0        3.102452    0.415473    2.389081
     47          1           0        3.735706    0.929853    1.660275
     48          1           0        3.232155    0.949519    3.337217
     49          6           0        3.576336   -1.054647    2.580302
     50          1           0        2.893738   -1.745127    2.070175
     51          1           0        3.499569   -1.306839    3.644243
     52          6           0        5.011766   -1.373494    2.115677
     53          1           0        5.650608   -0.488783    2.212948
     54          1           0        5.443108   -2.153612    2.757601
     55          7           0        5.052554   -1.797432    0.689875
     56          1           0        6.016259   -1.934528    0.387280
     57          1           0        4.174455   -0.817450   -0.246399
     58          1           0        4.580772   -2.696434    0.584986
     59          8           0        1.927713   -1.756738   -0.293964
 ---------------------------------------------------------------------

 SCF Done:  E(RB3LYP) =  -1300.60755166     A.U. after    3 cycles

 Alpha  occ. eigenvalues --  -19.25841 -19.22901 -19.20739 -19.20184 -14.58930
 Alpha  occ. eigenvalues --  -14.49443 -14.44905 -14.42266 -10.42630 -10.40183
 Alpha  occ. eigenvalues --  -10.38062 -10.38046 -10.34510 -10.34137 -10.32896
 Alpha  occ. eigenvalues --  -10.31892 -10.30920 -10.30716 -10.30478 -10.30183
 Alpha  occ. eigenvalues --  -10.30109 -10.30027 -10.29898 -10.29823 -10.29289
 Alpha  occ. eigenvalues --  -10.26433 -10.25727 -10.25473  -1.18533  -1.15385
 Alpha  occ. eigenvalues --   -1.13386  -1.12386  -1.07309  -1.06938  -1.01367
 Alpha  occ. eigenvalues --   -0.97662  -0.97407  -0.93233  -0.90754  -0.88059
 Alpha  occ. eigenvalues --   -0.86749  -0.85804  -0.85567  -0.82352  -0.79325
 Alpha  occ. eigenvalues --   -0.77532  -0.76295  -0.73387  -0.72726  -0.71493
 Alpha  occ. eigenvalues --   -0.71006  -0.70608  -0.70005  -0.69688  -0.66888
 Alpha  occ. eigenvalues --   -0.66488  -0.64356  -0.63518  -0.63284  -0.62219
 Alpha  occ. eigenvalues --   -0.61827  -0.59694  -0.58228  -0.57641  -0.57072
 Alpha  occ. eigenvalues --   -0.56665  -0.56137  -0.56015  -0.55072  -0.54117
 Alpha  occ. eigenvalues --   -0.53895  -0.53195  -0.53035  -0.52700  -0.52610
 Alpha  occ. eigenvalues --   -0.51991  -0.51176  -0.50870  -0.50580  -0.49974
 Alpha  occ. eigenvalues --   -0.49725  -0.48601  -0.48364  -0.47869  -0.47086
 Alpha  occ. eigenvalues --   -0.46521  -0.46083  -0.45507  -0.45256  -0.44685
 Alpha  occ. eigenvalues --   -0.44306  -0.43726  -0.43134  -0.41072  -0.40542
 Alpha  occ. eigenvalues --   -0.40517  -0.40272  -0.37640  -0.36594  -0.36555
 Alpha  occ. eigenvalues --   -0.36033  -0.34914  -0.34745  -0.34129  -0.33100
 Alpha virt. eigenvalues --   -0.12979  -0.12172  -0.10782  -0.09533  -0.07000
 Alpha virt. eigenvalues --   -0.05741  -0.04902  -0.02147  -0.01488  -0.01130
 Alpha virt. eigenvalues --   -0.00980  -0.00071   0.00033   0.00780   0.01369

 Mulliken charges:
               1
     1  N   -0.751613
     2  H    0.411274
     3  H    0.404167
     4  H    0.426268
     5  C   -0.116903
     6  H    0.201266
     7  C    0.651228
     8  C   -0.386028
     9  H    0.224608
    10  H    0.206280
    11  O   -0.545395
    12  C    0.131674
    13  C   -0.180657
    14  H    0.140892
    15  C   -0.229053
    16  H    0.154554
    17  C   -0.122620
    18  H    0.165870
    19  C   -0.119826
    20  H    0.166325
    21  C   -0.124967
    22  H    0.168154
    23  N   -0.432212
    24  C   -0.053775
    25  H    0.189187
    26  C    0.640485
    27  C   -0.317093
    28  H    0.185802
    29  H    0.184201
    30  O   -0.552016
    31  C   -0.289977
    32  H    0.181563
    33  H    0.172888
    34  C   -0.154092
    35  H    0.165412
    36  H    0.187370
    37  N   -0.614575
    38  H    0.352201
    39  C   -0.007771
    40  H    0.189195
    41  C    0.576516
    42  C   -0.279511
    43  H    0.149528
    44  H    0.162972
    45  O   -0.599240
    46  C   -0.285370
    47  H    0.172717
    48  H    0.145592
    49  C   -0.293587
    50  H    0.163306
    51  H    0.152543
    52  C   -0.143414
    53  H    0.166806
    54  H    0.153286
    55  N   -0.781280
    56  H    0.338252
    57  H    0.460865
    58  H    0.343970
    59  O   -0.506238
 Sum of Mulliken charges =   1.00000

 Dipole moment (field-independent basis, Debye):
    X=            -14.5636    Y=             10.4560    Z=             11.2285  Tot=             21.1543
 Quadrupole moment (field-independent basis, Debye-Ang):
   XX=            -32.8493   YY=           -105.0363   ZZ=           -108.4582
   XY=            -76.0170   XZ=            -33.3869   YZ=             40.0942

 Normal termination of Gaussian 16 at Thu Jun  2 02:11:43 2022.
