 Gaussian 16, Revision C.01,
 Gaussian 16:  ES64L-G16RevC.01  3-Jul-2019

 ----------------------------------------------------------------------
 # B3LYP/6-31G* empiricaldispersion=gd3 guess=read geom=check nosymm in
 tegral(ultrafinegrid)
 ----------------------------------------------------------------------

 ------------------------------------------------------
 Candidate Structure: Conf:367 Charge calc in gas phase
 ------------------------------------------------------
 Structure from the checkpoint file:  "conf-367.chk"
 Charge =  1 Multiplicity = 1

                          Input orientation:
 ---------------------------------------------------------------------
 Center     Atomic      Atomic             Coordinates (Angstroms)
 Number     Number       Type             X           Y           Z
 ---------------------------------------------------------------------
      1          7           0       -0.536215   -0.687262   -3.792294
      2          1           0        0.137101   -1.310725   -3.142376
      3          1           0        0.070997   -0.034021   -4.290824
      4          1           0       -1.076677   -1.266306   -4.441841
      5          6           0       -1.467758    0.041578   -2.878365
      6          1           0       -0.829523    0.597449   -2.191509
      7          6           0       -2.281114   -1.054885   -2.173280
      8          6           0       -2.362654    1.043595   -3.650121
      9          1           0       -3.060350    1.484897   -2.928741
     10          1           0       -1.718527    1.860640   -3.997152
     11          8           0       -2.555633   -2.084332   -2.784961
     12          6           0       -3.110172    0.434856   -4.815833
     13          6           0       -2.559635    0.475257   -6.104285
     14          1           0       -1.619328    0.997957   -6.271980
     15          6           0       -4.337856   -0.212891   -4.627600
     16          1           0       -4.775437   -0.255101   -3.633571
     17          6           0       -3.217595   -0.122454   -7.181228
     18          1           0       -2.781225   -0.075438   -8.174934
     19          6           0       -4.999256   -0.807080   -5.700905
     20          1           0       -5.951950   -1.303082   -5.539292
     21          6           0       -4.439256   -0.766007   -6.980063
     22          1           0       -4.956260   -1.227724   -7.816261
     23          7           0       -2.680435   -0.835402   -0.891480
     24          6           0       -2.415191    0.342967   -0.048335
     25          1           0       -2.640655    1.273117   -0.577333
     26          6           0       -0.948963    0.502534    0.418797
     27          6           0       -3.379029    0.137246    1.140111
     28          1           0       -3.018258    0.645286    2.037314
     29          1           0       -4.361694    0.550391    0.886965
     30          8           0       -0.576794    1.585430    0.844131
     31          6           0       -3.458813   -1.392107    1.264178
     32          1           0       -2.559857   -1.773809    1.763163
     33          1           0       -4.330930   -1.732679    1.827903
     34          6           0       -3.488026   -1.858826   -0.195826
     35          1           0       -4.504666   -1.866679   -0.607300
     36          1           0       -3.057583   -2.849042   -0.363457
     37          7           0       -0.147314   -0.608054    0.321754
     38          1           0       -0.544931   -1.384704   -0.198518
     39          6           0        1.283762   -0.446455   -0.001835
     40          1           0        1.569458    0.570861    0.270192
     41          6           0        1.348017   -0.610777   -1.543446
     42          6           0        2.141064   -1.478797    0.731874
     43          1           0        3.173691   -1.352682    0.376838
     44          1           0        1.817492   -2.480640    0.419455
     45          8           0        1.676374    0.348132   -2.252740
     46          6           0        2.058152   -1.333150    2.255322
     47          1           0        2.446165   -0.353010    2.563401
     48          1           0        1.005149   -1.352474    2.554880
     49          6           0        2.791729   -2.443235    3.030995
     50          1           0        2.375105   -3.421137    2.750714
     51          1           0        2.627526   -2.309283    4.109547
     52          6           0        4.287659   -2.429374    2.742643
     53          1           0        4.519506   -2.648141    1.698866
     54          1           0        4.756988   -1.482668    3.022376
     55          7           0        4.999834   -3.512323    3.562587
     56          1           0        6.012883   -3.529220    3.391809
     57          1           0        4.628247   -4.443085    3.335464
     58          1           0        4.853177   -3.365745    4.569006
     59          8           0        0.866622   -1.739386   -1.946924
 ---------------------------------------------------------------------

 SCF Done:  E(RB3LYP) =  -1300.58057849     A.U. after    1 cycles

 Alpha  occ. eigenvalues --  -19.19899 -19.19001 -19.17119 -19.16068 -14.65354
 Alpha  occ. eigenvalues --  -14.48935 -14.45138 -14.43019 -10.42010 -10.37251
 Alpha  occ. eigenvalues --  -10.36075 -10.34593 -10.34172 -10.33253 -10.31761
 Alpha  occ. eigenvalues --  -10.30349 -10.29941 -10.29588 -10.28472 -10.28418
 Alpha  occ. eigenvalues --  -10.27425 -10.27160 -10.26840 -10.25905 -10.25601
 Alpha  occ. eigenvalues --  -10.25502 -10.25347 -10.25263  -1.19192  -1.12457
 Alpha  occ. eigenvalues --   -1.11030  -1.10089  -1.04449  -1.03010  -1.01105
 Alpha  occ. eigenvalues --   -0.99205  -0.95585  -0.92432  -0.88453  -0.88041
 Alpha  occ. eigenvalues --   -0.86346  -0.83810  -0.82222  -0.81016  -0.80592
 Alpha  occ. eigenvalues --   -0.78192  -0.77801  -0.75044  -0.74409  -0.71838
 Alpha  occ. eigenvalues --   -0.69605  -0.67912  -0.67284  -0.67267  -0.66082
 Alpha  occ. eigenvalues --   -0.65847  -0.64619  -0.64415  -0.62942  -0.62341
 Alpha  occ. eigenvalues --   -0.60496  -0.58379  -0.58120  -0.57594  -0.57065
 Alpha  occ. eigenvalues --   -0.55470  -0.55138  -0.53756  -0.53562  -0.53063
 Alpha  occ. eigenvalues --   -0.52819  -0.52319  -0.51513  -0.51422  -0.50549
 Alpha  occ. eigenvalues --   -0.50016  -0.49350  -0.48986  -0.48577  -0.48544
 Alpha  occ. eigenvalues --   -0.47693  -0.47367  -0.46639  -0.46390  -0.46066
 Alpha  occ. eigenvalues --   -0.45502  -0.45103  -0.44079  -0.43645  -0.43370
 Alpha  occ. eigenvalues --   -0.42892  -0.42276  -0.42007  -0.41658  -0.40720
 Alpha  occ. eigenvalues --   -0.40564  -0.35110  -0.34833  -0.33989  -0.32421
 Alpha  occ. eigenvalues --   -0.32006  -0.31590  -0.31332  -0.30719  -0.29146
 Alpha virt. eigenvalues --   -0.15737  -0.09083  -0.09014  -0.07498  -0.07003
 Alpha virt. eigenvalues --   -0.06875  -0.06481  -0.06443  -0.02976  -0.02503
 Alpha virt. eigenvalues --   -0.01739  -0.00943  -0.00155   0.00240   0.01938

 Mulliken charges:
               1
     1  N   -0.751215
     2  H    0.446697
     3  H    0.385763
     4  H    0.394320
     5  C   -0.114912
     6  H    0.211050
     7  C    0.629355
     8  C   -0.382348
     9  H    0.179094
    10  H    0.179649
    11  O   -0.521199
    12  C    0.158268
    13  C   -0.209861
    14  H    0.126427
    15  C   -0.152373
    16  H    0.129359
    17  C   -0.123942
    18  H    0.146875
    19  C   -0.126461
    20  H    0.146736
    21  C   -0.126063
    22  H    0.148662
    23  N   -0.489744
    24  C   -0.053665
    25  H    0.183882
    26  C    0.582707
    27  C   -0.298266
    28  H    0.183784
    29  H    0.167504
    30  O   -0.500912
    31  C   -0.309810
    32  H    0.150942
    33  H    0.169881
    34  C   -0.117632
    35  H    0.172718
    36  H    0.182241
    37  N   -0.610636
    38  H    0.347656
    39  C   -0.034679
    40  H    0.186064
    41  C    0.568948
    42  C   -0.291075
    43  H    0.139716
    44  H    0.159452
    45  O   -0.555711
    46  C   -0.269970
    47  H    0.162879
    48  H    0.188225
    49  C   -0.295308
    50  H    0.167663
    51  H    0.164837
    52  C   -0.205502
    53  H    0.236847
    54  H    0.229876
    55  N   -0.732006
    56  H    0.432154
    57  H    0.427665
    58  H    0.426524
    59  O   -0.641132
 Sum of Mulliken charges =   1.00000

 Dipole moment (field-independent basis, Debye):
    X=             13.7955    Y=            -15.0265    Z=             11.2256  Tot=             23.2836
 Quadrupole moment (field-independent basis, Debye-Ang):
   XX=            -38.7194   YY=           -122.5463   ZZ=            -72.8361
   XY=            -70.8822   XZ=             88.1615   YZ=            -58.4829

 Normal termination of Gaussian 16 at Thu Jun  2 02:17:18 2022.
