 Gaussian 16, Revision C.01,
 Gaussian 16:  ES64L-G16RevC.01  3-Jul-2019

 ----------------------------------------------------------------------
 # B3LYP/6-31G* empiricaldispersion=gd3 guess=read geom=check nosymm in
 tegral(ultrafinegrid)
 ----------------------------------------------------------------------

 ------------------------------------------------------
 Candidate Structure: Conf:315 Charge calc in gas phase
 ------------------------------------------------------
 Structure from the checkpoint file:  "conf-315.chk"
 Charge =  1 Multiplicity = 1

                          Input orientation:
 ---------------------------------------------------------------------
 Center     Atomic      Atomic             Coordinates (Angstroms)
 Number     Number       Type             X           Y           Z
 ---------------------------------------------------------------------
      1          7           0       -0.623601   -0.205756   -3.619769
      2          1           0        0.274293   -0.346463   -3.087440
      3          1           0       -0.501290    0.457783   -4.392726
      4          1           0       -0.960643   -1.123691   -3.953911
      5          6           0       -1.637757    0.291448   -2.630263
      6          1           0       -1.097492    0.958664   -1.962920
      7          6           0       -2.141846   -0.977918   -1.924066
      8          6           0       -2.767301    1.051487   -3.349990
      9          1           0       -3.274418    0.371420   -4.044743
     10          1           0       -3.506726    1.342746   -2.595887
     11          8           0       -2.145319   -2.037668   -2.554457
     12          6           0       -2.217860    2.268925   -4.062532
     13          6           0       -1.726108    3.351111   -3.315249
     14          1           0       -1.779300    3.327547   -2.227788
     15          6           0       -2.124762    2.303743   -5.459965
     16          1           0       -2.520868    1.478080   -6.048386
     17          6           0       -1.165148    4.451688   -3.960112
     18          1           0       -0.795666    5.288138   -3.373999
     19          6           0       -1.559199    3.408338   -6.105235
     20          1           0       -1.502462    3.429068   -7.189676
     21          6           0       -1.080348    4.482537   -5.356041
     22          1           0       -0.645098    5.343096   -5.855455
     23          7           0       -2.579278   -0.860563   -0.652456
     24          6           0       -2.611516    0.378897    0.148872
     25          1           0       -3.167693    1.168413   -0.362407
     26          6           0       -1.216570    0.980326    0.406418
     27          6           0       -3.342495   -0.060563    1.442096
     28          1           0       -2.996517    0.499094    2.314389
     29          1           0       -4.414306    0.130960    1.325940
     30          8           0       -1.057415    2.194379    0.342343
     31          6           0       -3.079399   -1.572827    1.534556
     32          1           0       -2.089792   -1.761411    1.966357
     33          1           0       -3.816873   -2.091449    2.151824
     34          6           0       -3.120724   -2.029000    0.072676
     35          1           0       -4.143758   -2.230131   -0.266931
     36          1           0       -2.515954   -2.911419   -0.147354
     37          7           0       -0.223666    0.090937    0.705442
     38          1           0       -0.419494   -0.869786    0.453828
     39          6           0        1.177711    0.490170    0.600366
     40          1           0        1.150847    1.572149    0.421289
     41          6           0        1.803978   -0.150320   -0.674306
     42          6           0        1.983299    0.234025    1.884040
     43          1           0        2.311149   -0.814572    1.906011
     44          1           0        1.318110    0.352606    2.744854
     45          8           0        3.055245   -0.358489   -0.709492
     46          6           0        3.178653    1.208362    2.019559
     47          1           0        3.484296    1.553691    1.024549
     48          1           0        2.834890    2.100101    2.553593
     49          6           0        4.410656    0.623885    2.739711
     50          1           0        4.104987   -0.105264    3.502774
     51          1           0        4.948862    1.412865    3.277101
     52          6           0        5.429266   -0.006979    1.790408
     53          1           0        5.804859    0.736843    1.081864
     54          1           0        6.280282   -0.429030    2.333006
     55          7           0        4.815990   -1.095672    0.952353
     56          1           0        5.506214   -1.505952    0.317469
     57          1           0        3.965990   -0.714914    0.296242
     58          1           0        4.459581   -1.853790    1.539507
     59          8           0        1.009897   -0.392969   -1.607921
 ---------------------------------------------------------------------

 SCF Done:  E(RB3LYP) =  -1300.63035409     A.U. after    1 cycles

 Alpha  occ. eigenvalues --  -19.23290 -19.21776 -19.21548 -19.20894 -14.54211
 Alpha  occ. eigenvalues --  -14.54134 -14.48041 -14.45770 -10.40381 -10.39177
 Alpha  occ. eigenvalues --  -10.38677 -10.36296 -10.36189 -10.34135 -10.32254
 Alpha  occ. eigenvalues --  -10.32204 -10.31109 -10.30822 -10.29635 -10.29496
 Alpha  occ. eigenvalues --  -10.29194 -10.29162 -10.29148 -10.28405 -10.27920
 Alpha  occ. eigenvalues --  -10.27893 -10.27768 -10.27614  -1.15727  -1.14681
 Alpha  occ. eigenvalues --   -1.13473  -1.09587  -1.09253  -1.05949  -1.05602
 Alpha  occ. eigenvalues --   -1.01970  -0.95063  -0.91610  -0.91115  -0.89189
 Alpha  occ. eigenvalues --   -0.87368  -0.85451  -0.83516  -0.83174  -0.80536
 Alpha  occ. eigenvalues --   -0.77461  -0.75125  -0.74013  -0.70776  -0.70677
 Alpha  occ. eigenvalues --   -0.69931  -0.69582  -0.69224  -0.68670  -0.68106
 Alpha  occ. eigenvalues --   -0.67633  -0.67209  -0.66995  -0.64248  -0.61658
 Alpha  occ. eigenvalues --   -0.60875  -0.60258  -0.59414  -0.59202  -0.58050
 Alpha  occ. eigenvalues --   -0.56588  -0.56073  -0.55504  -0.55354  -0.54989
 Alpha  occ. eigenvalues --   -0.54128  -0.53860  -0.53338  -0.53009  -0.52329
 Alpha  occ. eigenvalues --   -0.51632  -0.51420  -0.50821  -0.50771  -0.50174
 Alpha  occ. eigenvalues --   -0.49783  -0.49356  -0.49152  -0.48992  -0.48103
 Alpha  occ. eigenvalues --   -0.47119  -0.46372  -0.45773  -0.45595  -0.44733
 Alpha  occ. eigenvalues --   -0.44696  -0.44112  -0.43952  -0.43640  -0.43143
 Alpha  occ. eigenvalues --   -0.42948  -0.37951  -0.37548  -0.37221  -0.36970
 Alpha  occ. eigenvalues --   -0.35116  -0.34440  -0.34203  -0.34128  -0.33621
 Alpha virt. eigenvalues --   -0.10604  -0.09424  -0.08974  -0.08717  -0.07892
 Alpha virt. eigenvalues --   -0.06436  -0.03526  -0.02686  -0.02300  -0.00989
 Alpha virt. eigenvalues --   -0.00581   0.00713   0.00972   0.01400   0.01761

 Mulliken charges:
               1
     1  N   -0.753807
     2  H    0.441619
     3  H    0.392576
     4  H    0.404717
     5  C   -0.118825
     6  H    0.228771
     7  C    0.637733
     8  C   -0.378481
     9  H    0.180939
    10  H    0.193549
    11  O   -0.530166
    12  C    0.134521
    13  C   -0.190489
    14  H    0.167354
    15  C   -0.213288
    16  H    0.141141
    17  C   -0.128987
    18  H    0.157279
    19  C   -0.124141
    20  H    0.156599
    21  C   -0.124544
    22  H    0.157098
    23  N   -0.480485
    24  C   -0.055051
    25  H    0.182011
    26  C    0.593914
    27  C   -0.305843
    28  H    0.186998
    29  H    0.178395
    30  O   -0.518190
    31  C   -0.310410
    32  H    0.157728
    33  H    0.181479
    34  C   -0.130657
    35  H    0.183512
    36  H    0.191064
    37  N   -0.576824
    38  H    0.336696
    39  C   -0.080557
    40  H    0.209065
    41  C    0.610308
    42  C   -0.271947
    43  H    0.107285
    44  H    0.173395
    45  O   -0.615358
    46  C   -0.292639
    47  H    0.163684
    48  H    0.175640
    49  C   -0.285939
    50  H    0.160242
    51  H    0.185837
    52  C   -0.183951
    53  H    0.205993
    54  H    0.195226
    55  N   -0.775176
    56  H    0.394400
    57  H    0.478862
    58  H    0.380800
    59  O   -0.580675
 Sum of Mulliken charges =   1.00000

 Dipole moment (field-independent basis, Debye):
    X=              6.7212    Y=             -1.3039    Z=             -1.6569  Tot=              7.0442
 Quadrupole moment (field-independent basis, Debye-Ang):
   XX=            -78.5586   YY=           -152.1001   ZZ=           -108.9311
   XY=             -9.1200   XZ=             27.3313   YZ=            -20.7227

 Normal termination of Gaussian 16 at Thu Jun  2 02:11:25 2022.
