 Gaussian 16, Revision C.01,
 Gaussian 16:  ES64L-G16RevC.01  3-Jul-2019

 ----------------------------------------------------------------------
 # B3LYP/6-31G* empiricaldispersion=gd3 guess=read geom=check nosymm in
 tegral(ultrafinegrid)
 ----------------------------------------------------------------------

 -----------------------------------------------------
 Candidate Structure: Conf:34 Charge calc in gas phase
 -----------------------------------------------------
 Structure from the checkpoint file:  "conf-34.chk"
 Charge =  1 Multiplicity = 1

                          Input orientation:
 ---------------------------------------------------------------------
 Center     Atomic      Atomic             Coordinates (Angstroms)
 Number     Number       Type             X           Y           Z
 ---------------------------------------------------------------------
      1          7           0       -4.367267    0.731434    4.486806
      2          1           0       -5.266505    0.244781    4.522042
      3          1           0       -4.283857    1.346823    5.310917
      4          1           0       -3.596561    0.011436    4.437697
      5          6           0       -4.161910    1.510280    3.207336
      6          1           0       -5.142712    1.762511    2.801999
      7          6           0       -3.335857    0.544477    2.333070
      8          6           0       -3.334569    2.788867    3.509338
      9          1           0       -2.296691    2.494508    3.695347
     10          1           0       -3.317274    3.384763    2.593406
     11          8           0       -2.752924   -0.381261    2.919244
     12          6           0       -3.919907    3.567249    4.665391
     13          6           0       -3.357605    3.457888    5.947633
     14          1           0       -2.437598    2.891995    6.085469
     15          6           0       -5.075221    4.344574    4.495494
     16          1           0       -5.514643    4.447210    3.505306
     17          6           0       -3.939146    4.114665    7.037702
     18          1           0       -3.485725    4.033193    8.021117
     19          6           0       -5.651167    5.003404    5.580563
     20          1           0       -6.537360    5.613694    5.433284
     21          6           0       -5.086636    4.885788    6.854903
     22          1           0       -5.535826    5.402006    7.697890
     23          7           0       -3.220677    0.792783    1.027698
     24          6           0       -2.079620    0.215078    0.299400
     25          1           0       -2.150619   -0.876322    0.316472
     26          6           0       -0.776940    0.693662    0.984005
     27          6           0       -2.211080    0.804762   -1.131147
     28          1           0       -1.479275    1.607717   -1.266061
     29          1           0       -2.023167    0.051273   -1.898969
     30          8           0       -0.772980    1.696464    1.698647
     31          6           0       -3.638390    1.378562   -1.188707
     32          1           0       -3.742383    2.187343   -1.916184
     33          1           0       -4.362553    0.595848   -1.438694
     34          6           0       -3.870809    1.857612    0.247537
     35          1           0       -4.928873    1.947874    0.508596
     36          1           0       -3.368008    2.816393    0.426230
     37          7           0        0.315486   -0.018729    0.665373
     38          1           0        0.258036   -0.870953    0.116561
     39          6           0        1.654305    0.322731    1.126420
     40          1           0        1.787108    1.405163    1.067292
     41          6           0        2.657107   -0.368161    0.214518
     42          6           0        1.884158   -0.147689    2.598969
     43          1           0        1.355902   -1.101079    2.723297
     44          1           0        1.373291    0.580309    3.236885
     45          8           0        3.814894    0.267646    0.188672
     46          6           0        3.359997   -0.317069    3.025641
     47          1           0        3.964048    0.467793    2.561013
     48          1           0        3.428042   -0.154922    4.107337
     49          6           0        3.946245   -1.721024    2.697753
     50          1           0        3.331079   -2.224397    1.942079
     51          1           0        3.869274   -2.345842    3.595047
     52          6           0        5.411364   -1.752078    2.217661
     53          1           0        5.975116   -0.921114    2.655808
     54          1           0        5.891519   -2.680216    2.556341
     55          7           0        5.513626   -1.628210    0.738246
     56          1           0        6.490914   -1.580732    0.452320
     57          1           0        4.578545   -0.438115    0.176698
     58          1           0        5.117883   -2.458414    0.295616
     59          8           0        2.415420   -1.445750   -0.311034
 ---------------------------------------------------------------------

 SCF Done:  E(RB3LYP) =  -1300.60755302     A.U. after    2 cycles

 Alpha  occ. eigenvalues --  -19.25835 -19.22894 -19.20738 -19.20181 -14.58935
 Alpha  occ. eigenvalues --  -14.49440 -14.44901 -14.42268 -10.42626 -10.40180
 Alpha  occ. eigenvalues --  -10.38060 -10.38041 -10.34510 -10.34134 -10.32897
 Alpha  occ. eigenvalues --  -10.31889 -10.30916 -10.30714 -10.30474 -10.30181
 Alpha  occ. eigenvalues --  -10.30106 -10.30026 -10.29898 -10.29820 -10.29288
 Alpha  occ. eigenvalues --  -10.26429 -10.25722 -10.25468  -1.18528  -1.15379
 Alpha  occ. eigenvalues --   -1.13387  -1.12384  -1.07308  -1.06932  -1.01364
 Alpha  occ. eigenvalues --   -0.97663  -0.97405  -0.93233  -0.90753  -0.88056
 Alpha  occ. eigenvalues --   -0.86746  -0.85801  -0.85563  -0.82349  -0.79325
 Alpha  occ. eigenvalues --   -0.77529  -0.76294  -0.73387  -0.72729  -0.71490
 Alpha  occ. eigenvalues --   -0.71004  -0.70605  -0.70001  -0.69685  -0.66886
 Alpha  occ. eigenvalues --   -0.66486  -0.64352  -0.63519  -0.63280  -0.62215
 Alpha  occ. eigenvalues --   -0.61828  -0.59692  -0.58226  -0.57635  -0.57069
 Alpha  occ. eigenvalues --   -0.56664  -0.56134  -0.56009  -0.55073  -0.54114
 Alpha  occ. eigenvalues --   -0.53893  -0.53193  -0.53031  -0.52697  -0.52611
 Alpha  occ. eigenvalues --   -0.51987  -0.51174  -0.50861  -0.50580  -0.49974
 Alpha  occ. eigenvalues --   -0.49729  -0.48598  -0.48361  -0.47864  -0.47083
 Alpha  occ. eigenvalues --   -0.46520  -0.46082  -0.45504  -0.45254  -0.44683
 Alpha  occ. eigenvalues --   -0.44304  -0.43726  -0.43129  -0.41065  -0.40537
 Alpha  occ. eigenvalues --   -0.40513  -0.40267  -0.37639  -0.36591  -0.36552
 Alpha  occ. eigenvalues --   -0.36028  -0.34910  -0.34747  -0.34126  -0.33095
 Alpha virt. eigenvalues --   -0.12976  -0.12173  -0.10776  -0.09530  -0.06993
 Alpha virt. eigenvalues --   -0.05736  -0.04899  -0.02145  -0.01480  -0.01139
 Alpha virt. eigenvalues --   -0.00986  -0.00070   0.00033   0.00778   0.01367

 Mulliken charges:
               1
     1  N   -0.751565
     2  H    0.411298
     3  H    0.404137
     4  H    0.426260
     5  C   -0.117062
     6  H    0.201255
     7  C    0.651398
     8  C   -0.385990
     9  H    0.224226
    10  H    0.206580
    11  O   -0.545367
    12  C    0.132254
    13  C   -0.229288
    14  H    0.154482
    15  C   -0.180680
    16  H    0.140864
    17  C   -0.119839
    18  H    0.166309
    19  C   -0.122608
    20  H    0.165860
    21  C   -0.124964
    22  H    0.168139
    23  N   -0.432202
    24  C   -0.054111
    25  H    0.189361
    26  C    0.640266
    27  C   -0.317099
    28  H    0.185777
    29  H    0.184195
    30  O   -0.551879
    31  C   -0.289888
    32  H    0.181546
    33  H    0.172872
    34  C   -0.154162
    35  H    0.165378
    36  H    0.187357
    37  N   -0.614435
    38  H    0.352173
    39  C   -0.007931
    40  H    0.189186
    41  C    0.576486
    42  C   -0.279421
    43  H    0.149537
    44  H    0.162981
    45  O   -0.599287
    46  C   -0.285363
    47  H    0.172673
    48  H    0.145670
    49  C   -0.293617
    50  H    0.163323
    51  H    0.152607
    52  C   -0.143430
    53  H    0.166833
    54  H    0.153326
    55  N   -0.781326
    56  H    0.338266
    57  H    0.460898
    58  H    0.343998
    59  O   -0.506258
 Sum of Mulliken charges =   1.00000

 Dipole moment (field-independent basis, Debye):
    X=            -13.9443    Y=              4.5632    Z=             15.8206  Tot=             21.5768
 Quadrupole moment (field-independent basis, Debye-Ang):
   XX=            -29.5341   YY=           -139.9378   ZZ=            -72.7343
   XY=            -51.1217   XZ=            -59.7481   YZ=             26.0928

 Normal termination of Gaussian 16 at Thu Jun  2 02:09:27 2022.
