 Gaussian 16, Revision C.01,
 Gaussian 16:  ES64L-G16RevC.01  3-Jul-2019

 ----------------------------------------------------------------------
 # B3LYP/6-31G* empiricaldispersion=gd3 guess=read geom=check nosymm in
 tegral(ultrafinegrid)
 ----------------------------------------------------------------------

 ------------------------------------------------------
 Candidate Structure: Conf:102 Charge calc in gas phase
 ------------------------------------------------------
 Structure from the checkpoint file:  "conf-102.chk"
 Charge =  1 Multiplicity = 1

                          Input orientation:
 ---------------------------------------------------------------------
 Center     Atomic      Atomic             Coordinates (Angstroms)
 Number     Number       Type             X           Y           Z
 ---------------------------------------------------------------------
      1          7           0       -4.664243    1.821889    4.466224
      2          1           0       -5.674027    1.972995    4.419462
      3          1           0       -4.295903    2.107708    5.384009
      4          1           0       -4.439934    0.790661    4.302196
      5          6           0       -3.903247    2.450629    3.321381
      6          1           0       -4.540732    3.198017    2.847625
      7          6           0       -3.618953    1.241455    2.401652
      8          6           0       -2.563844    3.088232    3.823726
      9          1           0       -1.847899    3.021914    2.999877
     10          1           0       -2.745184    4.145129    4.043828
     11          8           0       -3.677474    0.115135    2.931612
     12          6           0       -2.007909    2.385626    5.044231
     13          6           0       -2.278946    2.888446    6.328083
     14          1           0       -2.795889    3.841181    6.436682
     15          6           0       -1.296296    1.182961    4.913792
     16          1           0       -1.070368    0.805689    3.920578
     17          6           0       -1.854627    2.199060    7.468464
     18          1           0       -2.061614    2.604205    8.454700
     19          6           0       -0.876077    0.501159    6.055659
     20          1           0       -0.328893   -0.431953    5.947726
     21          6           0       -1.156885    0.998823    7.331603
     22          1           0       -0.829373    0.458129    8.215075
     23          7           0       -3.296487    1.480179    1.137542
     24          6           0       -2.610586    0.452484    0.341605
     25          1           0       -3.122759   -0.507360    0.438675
     26          6           0       -1.146393    0.342384    0.854012
     27          6           0       -2.656763    1.038654   -1.083730
     28          1           0       -1.879427    0.622913   -1.733119
     29          1           0       -3.636713    0.835633   -1.530533
     30          8           0       -0.726429    1.092344    1.749312
     31          6           0       -2.473247    2.541805   -0.822998
     32          1           0       -1.415400    2.760796   -0.647328
     33          1           0       -2.816944    3.168032   -1.649359
     34          6           0       -3.275934    2.800808    0.464148
     35          1           0       -4.307060    3.105056    0.246554
     36          1           0       -2.809737    3.565427    1.090917
     37          7           0       -0.414228   -0.558338    0.184237
     38          1           0       -0.808904   -0.898958   -0.713808
     39          6           0        1.003258   -0.335429   -0.123164
     40          1           0        1.277845    0.678605    0.188672
     41          6           0        1.124209   -0.427994   -1.713356
     42          6           0        1.949594   -1.338176    0.521617
     43          1           0        2.918532   -1.188797    0.031262
     44          1           0        1.616912   -2.357332    0.279385
     45          8           0        2.276075   -0.300531   -2.146658
     46          6           0        2.086888   -1.186889    2.039536
     47          1           0        2.361191   -0.151489    2.283031
     48          1           0        1.123942   -1.381271    2.530036
     49          6           0        3.163630   -2.146200    2.576115
     50          1           0        4.103022   -1.956678    2.036952
     51          1           0        2.869924   -3.183714    2.361903
     52          6           0        3.392169   -1.973231    4.066762
     53          1           0        3.713359   -0.961612    4.327177
     54          1           0        2.517196   -2.238147    4.665588
     55          7           0        4.523069   -2.905316    4.536288
     56          1           0        4.719953   -2.824109    5.541097
     57          1           0        5.390659   -2.697231    4.026331
     58          1           0        4.287542   -3.885320    4.337088
     59          8           0        0.022606   -0.636176   -2.302027
 ---------------------------------------------------------------------

 SCF Done:  E(RB3LYP) =  -1300.52289153     A.U. after    2 cycles

 Alpha  occ. eigenvalues --  -19.23978 -19.18233 -19.09323 -19.08178 -14.64265
 Alpha  occ. eigenvalues --  -14.57140 -14.47143 -14.39238 -10.40971 -10.40453
 Alpha  occ. eigenvalues --  -10.38587 -10.34567 -10.32556 -10.32022 -10.31714
 Alpha  occ. eigenvalues --  -10.30825 -10.30710 -10.29896 -10.29509 -10.29374
 Alpha  occ. eigenvalues --  -10.29311 -10.28554 -10.27895 -10.27119 -10.26629
 Alpha  occ. eigenvalues --  -10.25536 -10.24688 -10.23828  -1.18076  -1.16535
 Alpha  occ. eigenvalues --   -1.11257  -1.09303  -1.04814  -1.02292  -0.96759
 Alpha  occ. eigenvalues --   -0.96285  -0.93988  -0.93489  -0.91410  -0.88273
 Alpha  occ. eigenvalues --   -0.85741  -0.85245  -0.84666  -0.83201  -0.79464
 Alpha  occ. eigenvalues --   -0.77893  -0.76685  -0.76500  -0.74016  -0.71861
 Alpha  occ. eigenvalues --   -0.71637  -0.71388  -0.70024  -0.68592  -0.68202
 Alpha  occ. eigenvalues --   -0.67498  -0.65688  -0.63773  -0.62239  -0.61667
 Alpha  occ. eigenvalues --   -0.61552  -0.61277  -0.59801  -0.59122  -0.56827
 Alpha  occ. eigenvalues --   -0.55973  -0.55250  -0.54975  -0.54616  -0.54414
 Alpha  occ. eigenvalues --   -0.54134  -0.52416  -0.51981  -0.51531  -0.50773
 Alpha  occ. eigenvalues --   -0.50481  -0.50247  -0.49275  -0.48867  -0.48433
 Alpha  occ. eigenvalues --   -0.47455  -0.46772  -0.46336  -0.45911  -0.45498
 Alpha  occ. eigenvalues --   -0.44602  -0.44436  -0.43871  -0.42930  -0.42473
 Alpha  occ. eigenvalues --   -0.41874  -0.40763  -0.40502  -0.39643  -0.38648
 Alpha  occ. eigenvalues --   -0.38496  -0.36568  -0.35741  -0.35595  -0.34756
 Alpha  occ. eigenvalues --   -0.32162  -0.31139  -0.24393  -0.24106  -0.22267
 Alpha virt. eigenvalues --   -0.14792  -0.11489  -0.11312  -0.09635  -0.08173
 Alpha virt. eigenvalues --   -0.08050  -0.07984  -0.05891  -0.04670  -0.02769
 Alpha virt. eigenvalues --   -0.02492  -0.01074  -0.00733   0.00019   0.00561

 Mulliken charges:
               1
     1  N   -0.764402
     2  H    0.404234
     3  H    0.401561
     4  H    0.429824
     5  C   -0.101734
     6  H    0.203544
     7  C    0.639696
     8  C   -0.386671
     9  H    0.242653
    10  H    0.177156
    11  O   -0.557633
    12  C    0.085229
    13  C   -0.226263
    14  H    0.145607
    15  C   -0.166161
    16  H    0.213749
    17  C   -0.123327
    18  H    0.158327
    19  C   -0.133640
    20  H    0.123982
    21  C   -0.124871
    22  H    0.148588
    23  N   -0.417701
    24  C   -0.097699
    25  H    0.195886
    26  C    0.607340
    27  C   -0.320124
    28  H    0.243778
    29  H    0.157102
    30  O   -0.567507
    31  C   -0.317757
    32  H    0.187532
    33  H    0.175278
    34  C   -0.138254
    35  H    0.168558
    36  H    0.167335
    37  N   -0.581392
    38  H    0.355508
    39  C   -0.099944
    40  H    0.146657
    41  C    0.589981
    42  C   -0.258403
    43  H    0.174918
    44  H    0.137014
    45  O   -0.566517
    46  C   -0.267353
    47  H    0.153430
    48  H    0.155085
    49  C   -0.291015
    50  H    0.169791
    51  H    0.166102
    52  C   -0.205689
    53  H    0.226254
    54  H    0.219185
    55  N   -0.731009
    56  H    0.425075
    57  H    0.427813
    58  H    0.425882
    59  O   -0.604587
 Sum of Mulliken charges =   1.00000

 Dipole moment (field-independent basis, Debye):
    X=             -0.3342    Y=             -1.8469    Z=             36.2424  Tot=             36.2909
 Quadrupole moment (field-independent basis, Debye-Ang):
   XX=            -15.3051   YY=           -102.3431   ZZ=            -27.2574
   XY=            -94.2043   XZ=             38.1338   YZ=            -27.2099

 Normal termination of Gaussian 16 at Thu Jun  2 02:15:00 2022.
