 Gaussian 16, Revision C.01,
 Gaussian 16:  ES64L-G16RevC.01  3-Jul-2019

 ----------------------------------------------------------------------
 # B3LYP/6-31G* empiricaldispersion=gd3 guess=read geom=check nosymm in
 tegral(ultrafinegrid)
 ----------------------------------------------------------------------

 ------------------------------------------------------
 Candidate Structure: Conf:962 Charge calc in gas phase
 ------------------------------------------------------
 Structure from the checkpoint file:  "conf-962.chk"
 Charge =  1 Multiplicity = 1

                          Input orientation:
 ---------------------------------------------------------------------
 Center     Atomic      Atomic             Coordinates (Angstroms)
 Number     Number       Type             X           Y           Z
 ---------------------------------------------------------------------
      1          7           0       -1.928138    3.318443   -1.844522
      2          1           0       -2.094348    3.761058   -0.934062
      3          1           0       -1.854295    4.007041   -2.595470
      4          1           0       -0.952441    2.791049   -1.709245
      5          6           0       -3.048438    2.349871   -2.109294
      6          1           0       -3.953612    2.951140   -2.261567
      7          6           0       -3.188642    1.586499   -0.764295
      8          6           0       -2.742142    1.535243   -3.386890
      9          1           0       -2.032306    0.742778   -3.137217
     10          1           0       -3.675220    1.080896   -3.728649
     11          8           0       -2.761930    2.146223    0.247368
     12          6           0       -2.167542    2.405824   -4.486669
     13          6           0       -2.997460    3.227046   -5.262780
     14          1           0       -4.075737    3.198442   -5.114769
     15          6           0       -0.780107    2.442312   -4.692679
     16          1           0       -0.142490    1.809167   -4.079708
     17          6           0       -2.453882    4.068734   -6.234672
     18          1           0       -3.107477    4.694712   -6.835788
     19          6           0       -0.238975    3.285867   -5.665345
     20          1           0        0.836324    3.306782   -5.820448
     21          6           0       -1.071779    4.099564   -6.436767
     22          1           0       -0.647789    4.753692   -7.193424
     23          7           0       -3.702721    0.333784   -0.710107
     24          6           0       -3.612232   -0.393426    0.582919
     25          1           0       -4.184634    0.134720    1.350303
     26          6           0       -2.159257   -0.439451    1.104638
     27          6           0       -4.227733   -1.763224    0.246527
     28          1           0       -3.454786   -2.435823   -0.145999
     29          1           0       -4.666126   -2.234439    1.128937
     30          8           0       -1.896930   -0.248369    2.277678
     31          6           0       -5.250862   -1.433376   -0.850070
     32          1           0       -5.558204   -2.303973   -1.435985
     33          1           0       -6.147872   -0.986274   -0.407197
     34          6           0       -4.514587   -0.392523   -1.705281
     35          1           0       -5.196128    0.285837   -2.225933
     36          1           0       -3.873296   -0.878831   -2.450146
     37          7           0       -1.214207   -0.707670    0.138800
     38          1           0       -1.563614   -0.802176   -0.809124
     39          6           0        0.066666    0.024693    0.144812
     40          1           0        0.038870    0.732572    0.974726
     41          6           0        0.071247    0.816017   -1.194082
     42          6           0        1.278595   -0.899524    0.330028
     43          1           0        1.206837   -1.351135    1.328334
     44          1           0        2.185925   -0.279420    0.317808
     45          8           0        0.194429    2.076612   -1.111211
     46          6           0        1.386575   -2.003028   -0.728021
     47          1           0        0.481929   -2.623182   -0.686697
     48          1           0        1.414011   -1.552226   -1.725225
     49          6           0        2.626808   -2.881162   -0.501422
     50          1           0        2.578527   -3.350557    0.491852
     51          1           0        3.529823   -2.253910   -0.523417
     52          6           0        2.724213   -3.952399   -1.575289
     53          1           0        1.878667   -4.644351   -1.556196
     54          1           0        2.817055   -3.529228   -2.578456
     55          7           0        3.978132   -4.814689   -1.363597
     56          1           0        4.076652   -5.550632   -2.073467
     57          1           0        3.955198   -5.266870   -0.441313
     58          1           0        4.824914   -4.233509   -1.392797
     59          8           0       -0.146427    0.147762   -2.235834
 ---------------------------------------------------------------------

 SCF Done:  E(RB3LYP) =  -1300.57392458     A.U. after    1 cycles

 Alpha  occ. eigenvalues --  -19.20651 -19.17525 -19.16380 -19.16072 -14.64752
 Alpha  occ. eigenvalues --  -14.49733 -14.45525 -14.41070 -10.41400 -10.38071
 Alpha  occ. eigenvalues --  -10.34677 -10.34507 -10.34013 -10.33434 -10.31549
 Alpha  occ. eigenvalues --  -10.30485 -10.28572 -10.28257 -10.27637 -10.27479
 Alpha  occ. eigenvalues --  -10.27478 -10.26932 -10.26620 -10.26120 -10.25866
 Alpha  occ. eigenvalues --  -10.25658 -10.25603 -10.25181  -1.18572  -1.13328
 Alpha  occ. eigenvalues --   -1.09795  -1.09145  -1.05196  -1.03032  -1.00719
 Alpha  occ. eigenvalues --   -0.97667  -0.94635  -0.92566  -0.88710  -0.86957
 Alpha  occ. eigenvalues --   -0.86463  -0.83636  -0.81133  -0.81040  -0.80721
 Alpha  occ. eigenvalues --   -0.77381  -0.77190  -0.74904  -0.73188  -0.72174
 Alpha  occ. eigenvalues --   -0.69252  -0.68551  -0.67394  -0.66237  -0.65699
 Alpha  occ. eigenvalues --   -0.65267  -0.65120  -0.63000  -0.62486  -0.62203
 Alpha  occ. eigenvalues --   -0.60870  -0.58136  -0.57808  -0.57024  -0.56528
 Alpha  occ. eigenvalues --   -0.55866  -0.55014  -0.54120  -0.53021  -0.52587
 Alpha  occ. eigenvalues --   -0.52214  -0.52013  -0.51008  -0.50618  -0.50112
 Alpha  occ. eigenvalues --   -0.49642  -0.49156  -0.48597  -0.48119  -0.48060
 Alpha  occ. eigenvalues --   -0.47500  -0.47412  -0.46469  -0.46071  -0.45948
 Alpha  occ. eigenvalues --   -0.45261  -0.44174  -0.43823  -0.43244  -0.42991
 Alpha  occ. eigenvalues --   -0.42420  -0.42274  -0.42137  -0.40913  -0.40649
 Alpha  occ. eigenvalues --   -0.40248  -0.34837  -0.33953  -0.33217  -0.32284
 Alpha  occ. eigenvalues --   -0.31886  -0.31416  -0.30824  -0.29916  -0.29171
 Alpha virt. eigenvalues --   -0.15225  -0.08544  -0.08462  -0.08428  -0.07082
 Alpha virt. eigenvalues --   -0.07057  -0.05915  -0.05205  -0.02397  -0.02062
 Alpha virt. eigenvalues --   -0.01460  -0.00899  -0.00383   0.00646   0.01570

 Mulliken charges:
               1
     1  N   -0.768530
     2  H    0.401120
     3  H    0.386398
     4  H    0.460001
     5  C   -0.102053
     6  H    0.194252
     7  C    0.628228
     8  C   -0.389720
     9  H    0.223283
    10  H    0.160995
    11  O   -0.515891
    12  C    0.102066
    13  C   -0.187814
    14  H    0.126516
    15  C   -0.201412
    16  H    0.185903
    17  C   -0.130338
    18  H    0.146705
    19  C   -0.133966
    20  H    0.143492
    21  C   -0.127165
    22  H    0.146631
    23  N   -0.483823
    24  C   -0.023040
    25  H    0.194466
    26  C    0.600637
    27  C   -0.313295
    28  H    0.151971
    29  H    0.182834
    30  O   -0.493333
    31  C   -0.299247
    32  H    0.165790
    33  H    0.170497
    34  C   -0.135042
    35  H    0.168119
    36  H    0.168560
    37  N   -0.615269
    38  H    0.328622
    39  C   -0.012966
    40  H    0.189066
    41  C    0.564205
    42  C   -0.276314
    43  H    0.156061
    44  H    0.147272
    45  O   -0.616793
    46  C   -0.275596
    47  H    0.153876
    48  H    0.188231
    49  C   -0.291086
    50  H    0.164121
    51  H    0.164104
    52  C   -0.206438
    53  H    0.226465
    54  H    0.231558
    55  N   -0.731880
    56  H    0.429097
    57  H    0.426532
    58  H    0.426830
    59  O   -0.573490
 Sum of Mulliken charges =   1.00000

 Dipole moment (field-independent basis, Debye):
    X=              7.8358    Y=            -16.2591    Z=            -12.0126  Tot=             21.6809
 Quadrupole moment (field-independent basis, Debye-Ang):
   XX=            -55.2811   YY=            -40.3043   ZZ=           -148.5033
   XY=            -87.9981   XZ=              0.7962   YZ=              5.0096

 Normal termination of Gaussian 16 at Thu Jun  2 02:17:08 2022.
