 Gaussian 16, Revision C.01,
 Gaussian 16:  ES64L-G16RevC.01  3-Jul-2019

 ----------------------------------------------------------------------
 # B3LYP/6-31G* empiricaldispersion=gd3 guess=read geom=check nosymm in
 tegral(ultrafinegrid)
 ----------------------------------------------------------------------

 ------------------------------------------------------
 Candidate Structure: Conf:549 Charge calc in gas phase
 ------------------------------------------------------
 Structure from the checkpoint file:  "conf-549.chk"
 Charge =  1 Multiplicity = 1

                          Input orientation:
 ---------------------------------------------------------------------
 Center     Atomic      Atomic             Coordinates (Angstroms)
 Number     Number       Type             X           Y           Z
 ---------------------------------------------------------------------
      1          7           0       -3.267563    1.271347    2.653182
      2          1           0       -2.303241    0.890293    2.846349
      3          1           0       -3.997267    0.794396    3.187684
      4          1           0       -3.276631    2.282718    2.879122
      5          6           0       -3.477704    1.191585    1.167762
      6          1           0       -2.965468    0.292135    0.830638
      7          6           0       -2.797682    2.468427    0.634917
      8          6           0       -4.988282    1.129174    0.808991
      9          1           0       -5.089040    1.409144   -0.245480
     10          1           0       -5.307540    0.083883    0.884446
     11          8           0       -2.746747    3.460513    1.367332
     12          6           0       -5.861152    1.997558    1.690385
     13          6           0       -6.582056    1.414760    2.743209
     14          1           0       -6.570328    0.333070    2.870914
     15          6           0       -5.922252    3.387045    1.515443
     16          1           0       -5.365155    3.856017    0.710259
     17          6           0       -7.346610    2.202487    3.607231
     18          1           0       -7.907707    1.735019    4.411188
     19          6           0       -6.686754    4.173879    2.376245
     20          1           0       -6.728605    5.248782    2.226920
     21          6           0       -7.397807    3.584783    3.425174
     22          1           0       -7.994505    4.200476    4.091661
     23          7           0       -2.323397    2.452226   -0.627076
     24          6           0       -2.249210    1.281083   -1.521265
     25          1           0       -3.218977    0.786826   -1.616509
     26          6           0       -1.280991    0.183229   -1.033580
     27          6           0       -1.809087    1.906009   -2.865147
     28          1           0       -1.262326    1.190165   -3.483292
     29          1           0       -2.699122    2.220332   -3.420967
     30          8           0       -1.524025   -0.987682   -1.291782
     31          6           0       -0.978477    3.129799   -2.446447
     32          1           0        0.032640    2.818235   -2.162365
     33          1           0       -0.891176    3.874806   -3.240839
     34          6           0       -1.732117    3.670210   -1.225323
     35          1           0       -2.535317    4.361166   -1.506884
     36          1           0       -1.101519    4.176003   -0.490280
     37          7           0       -0.170920    0.608667   -0.355267
     38          1           0       -0.230678    1.545688    0.022422
     39          6           0        0.586123   -0.332453    0.464366
     40          1           0        0.215154   -1.323787    0.177737
     41          6           0        0.218706   -0.129934    1.965839
     42          6           0        2.101613   -0.275361    0.194772
     43          1           0        2.540147    0.528878    0.799190
     44          1           0        2.260666    0.007766   -0.850130
     45          8           0        0.981263   -0.600682    2.861261
     46          6           0        2.787074   -1.631022    0.473147
     47          1           0        2.191071   -2.195893    1.199855
     48          1           0        2.773648   -2.235812   -0.440080
     49          6           0        4.238254   -1.539481    0.973390
     50          1           0        4.874359   -1.047394    0.227841
     51          1           0        4.641724   -2.552907    1.099934
     52          6           0        4.403803   -0.768598    2.286145
     53          1           0        5.407679   -0.897938    2.699332
     54          1           0        4.223797    0.301169    2.157988
     55          7           0        3.399276   -1.230887    3.306258
     56          1           0        3.554654   -0.786461    4.214808
     57          1           0        3.455143   -2.243073    3.449932
     58          1           0        2.344984   -0.975564    2.996369
     59          8           0       -0.848655    0.484348    2.187669
 ---------------------------------------------------------------------

 SCF Done:  E(RB3LYP) =  -1300.62754678     A.U. after    3 cycles

 Alpha  occ. eigenvalues --  -19.23367 -19.21248 -19.21037 -19.20688 -14.54407
 Alpha  occ. eigenvalues --  -14.54068 -14.47951 -14.45137 -10.40376 -10.38898
 Alpha  occ. eigenvalues --  -10.38071 -10.36603 -10.36354 -10.33843 -10.32139
 Alpha  occ. eigenvalues --  -10.31897 -10.31233 -10.30941 -10.29432 -10.29328
 Alpha  occ. eigenvalues --  -10.29280 -10.28805 -10.28799 -10.28352 -10.27913
 Alpha  occ. eigenvalues --  -10.27833 -10.27664 -10.27547  -1.15806  -1.14392
 Alpha  occ. eigenvalues --   -1.12900  -1.09703  -1.09225  -1.05814  -1.05344
 Alpha  occ. eigenvalues --   -1.01407  -0.94933  -0.91707  -0.90983  -0.88966
 Alpha  occ. eigenvalues --   -0.86974  -0.85208  -0.83457  -0.83215  -0.80682
 Alpha  occ. eigenvalues --   -0.77440  -0.75334  -0.74123  -0.70490  -0.70009
 Alpha  occ. eigenvalues --   -0.69780  -0.69207  -0.68953  -0.68596  -0.68295
 Alpha  occ. eigenvalues --   -0.67906  -0.67156  -0.66656  -0.64165  -0.61475
 Alpha  occ. eigenvalues --   -0.60721  -0.60491  -0.59782  -0.58354  -0.57880
 Alpha  occ. eigenvalues --   -0.56229  -0.56023  -0.55567  -0.55242  -0.54766
 Alpha  occ. eigenvalues --   -0.54396  -0.53984  -0.53642  -0.52629  -0.52034
 Alpha  occ. eigenvalues --   -0.51254  -0.51222  -0.50863  -0.50603  -0.49956
 Alpha  occ. eigenvalues --   -0.49600  -0.49299  -0.48963  -0.48539  -0.47884
 Alpha  occ. eigenvalues --   -0.47107  -0.46589  -0.45492  -0.45330  -0.44749
 Alpha  occ. eigenvalues --   -0.44340  -0.44141  -0.43769  -0.43309  -0.43072
 Alpha  occ. eigenvalues --   -0.42799  -0.37693  -0.37541  -0.37173  -0.36759
 Alpha  occ. eigenvalues --   -0.34965  -0.34024  -0.33943  -0.33778  -0.33386
 Alpha virt. eigenvalues --   -0.10273  -0.09547  -0.09189  -0.08061  -0.07663
 Alpha virt. eigenvalues --   -0.05945  -0.04364  -0.02466  -0.02050  -0.00963
 Alpha virt. eigenvalues --   -0.00083   0.00232   0.00871   0.01074   0.01589

 Mulliken charges:
               1
     1  N   -0.756796
     2  H    0.437451
     3  H    0.390416
     4  H    0.414781
     5  C   -0.094481
     6  H    0.221399
     7  C    0.635836
     8  C   -0.393490
     9  H    0.192339
    10  H    0.184795
    11  O   -0.533582
    12  C    0.137849
    13  C   -0.218120
    14  H    0.136722
    15  C   -0.162002
    16  H    0.145356
    17  C   -0.123635
    18  H    0.155423
    19  C   -0.128278
    20  H    0.157142
    21  C   -0.125562
    22  H    0.157916
    23  N   -0.480941
    24  C   -0.064223
    25  H    0.183015
    26  C    0.595408
    27  C   -0.301150
    28  H    0.190161
    29  H    0.174797
    30  O   -0.510529
    31  C   -0.312679
    32  H    0.163777
    33  H    0.179768
    34  C   -0.129921
    35  H    0.180433
    36  H    0.188384
    37  N   -0.582398
    38  H    0.337666
    39  C   -0.087372
    40  H    0.208523
    41  C    0.613704
    42  C   -0.272044
    43  H    0.131032
    44  H    0.171489
    45  O   -0.615474
    46  C   -0.293377
    47  H    0.146944
    48  H    0.177793
    49  C   -0.290604
    50  H    0.183423
    51  H    0.164864
    52  C   -0.181241
    53  H    0.199433
    54  H    0.201330
    55  N   -0.773069
    56  H    0.395001
    57  H    0.387486
    58  H    0.474801
    59  O   -0.585686
 Sum of Mulliken charges =   1.00000

 Dipole moment (field-independent basis, Debye):
    X=              0.4296    Y=              2.8284    Z=              9.1127  Tot=              9.5512
 Quadrupole moment (field-independent basis, Debye-Ang):
   XX=            -61.6276   YY=           -143.3430   ZZ=           -116.1105
   XY=            -36.3553   XZ=              5.0930   YZ=            -15.1820

 Normal termination of Gaussian 16 at Thu Jun  2 02:17:36 2022.
