 Gaussian 16, Revision C.01,
 Gaussian 16:  ES64L-G16RevC.01  3-Jul-2019

 ----------------------------------------------------------------------
 # B3LYP/6-31G* empiricaldispersion=gd3 guess=read geom=check nosymm in
 tegral(ultrafinegrid)
 ----------------------------------------------------------------------

 ------------------------------------------------------
 Candidate Structure: Conf:772 Charge calc in gas phase
 ------------------------------------------------------
 Structure from the checkpoint file:  "conf-772.chk"
 Charge =  1 Multiplicity = 1

                          Input orientation:
 ---------------------------------------------------------------------
 Center     Atomic      Atomic             Coordinates (Angstroms)
 Number     Number       Type             X           Y           Z
 ---------------------------------------------------------------------
      1          7           0       -1.819433   -3.245954   -1.904445
      2          1           0       -2.014233   -2.828402   -2.813687
      3          1           0       -1.908780   -4.255983   -1.988684
      4          1           0       -0.028773   -2.242233   -1.825352
      5          6           0       -2.771718   -2.717036   -0.921477
      6          1           0       -3.781568   -3.147852   -1.013858
      7          6           0       -2.796908   -1.187538   -1.191290
      8          6           0       -2.230132   -2.966332    0.512773
      9          1           0       -1.433566   -2.229296    0.670710
     10          1           0       -3.020132   -2.735122    1.229788
     11          8           0       -2.326106   -0.775440   -2.256463
     12          6           0       -1.688014   -4.345264    0.835121
     13          6           0       -2.343129   -5.154657    1.779118
     14          1           0       -3.291146   -4.825097    2.197970
     15          6           0       -0.467420   -4.805719    0.298610
     16          1           0        0.044778   -4.211437   -0.450239
     17          6           0       -1.795656   -6.373338    2.193756
     18          1           0       -2.325654   -6.984835    2.918607
     19          6           0        0.081184   -6.023725    0.708391
     20          1           0        1.016633   -6.364052    0.273008
     21          6           0       -0.574247   -6.809123    1.666059
     22          1           0       -0.152108   -7.760756    1.976110
     23          7           0       -3.097653   -0.327382   -0.184009
     24          6           0       -2.430832    0.999453   -0.144838
     25          1           0       -2.429331    1.431260   -1.149021
     26          6           0       -0.963098    0.747656    0.329076
     27          6           0       -3.262371    1.815888    0.862657
     28          1           0       -2.704263    1.900379    1.799135
     29          1           0       -3.456164    2.826988    0.498418
     30          8           0       -0.526078    1.169556    1.390428
     31          6           0       -4.555030    0.998876    1.057745
     32          1           0       -5.030883    1.179913    2.025444
     33          1           0       -5.282070    1.224176    0.270307
     34          6           0       -4.071065   -0.449443    0.907294
     35          1           0       -4.859984   -1.158435    0.642044
     36          1           0       -3.590692   -0.784608    1.837815
     37          7           0       -0.258053   -0.082444   -0.503025
     38          1           0       -0.636033   -0.186678   -1.440113
     39          6           0        1.134738   -0.478287   -0.311214
     40          1           0        1.757312    0.404056   -0.136447
     41          6           0        1.660279   -1.153969   -1.595323
     42          6           0        1.410731   -1.512812    0.810969
     43          1           0        2.487109   -1.722260    0.740095
     44          1           0        0.901644   -2.446697    0.543041
     45          8           0        2.775052   -0.940305   -1.997866
     46          6           0        1.077622   -1.126569    2.258558
     47          1           0        1.324845   -0.077412    2.434045
     48          1           0       -0.006005   -1.180099    2.431176
     49          6           0        1.849471   -1.980001    3.285495
     50          1           0        1.561107   -1.696753    4.307019
     51          1           0        2.920670   -1.758185    3.203447
     52          6           0        1.730579   -3.494542    3.126307
     53          1           0        2.019038   -3.837261    2.130757
     54          1           0        2.323984   -4.032956    3.868939
     55          7           0        0.296962   -3.961259    3.309716
     56          1           0        0.190857   -4.976957    3.159241
     57          1           0       -0.326401   -3.532824    2.613361
     58          1           0       -0.059813   -3.728398    4.242285
     59          8           0        0.875469   -2.080596   -2.190156
 ---------------------------------------------------------------------

 SCF Done:  E(RB3LYP) =  -1300.58145444     A.U. after    1 cycles

 Alpha  occ. eigenvalues --  -19.26835 -19.23207 -19.22376 -19.21392 -14.62046
 Alpha  occ. eigenvalues --  -14.47288 -14.45969 -14.43981 -10.40438 -10.40251
 Alpha  occ. eigenvalues --  -10.40248 -10.39145 -10.35141 -10.34090 -10.34064
 Alpha  occ. eigenvalues --  -10.33743 -10.33592 -10.33299 -10.33244 -10.33144
 Alpha  occ. eigenvalues --  -10.33130 -10.33089 -10.32680 -10.32239 -10.31206
 Alpha  occ. eigenvalues --  -10.31167 -10.28873 -10.28080  -1.17514  -1.16593
 Alpha  occ. eigenvalues --   -1.15573  -1.13886  -1.09474  -1.05336  -1.02596
 Alpha  occ. eigenvalues --   -1.01260  -0.99326  -0.94838  -0.91465  -0.89677
 Alpha  occ. eigenvalues --   -0.89525  -0.88408  -0.86100  -0.84585  -0.83509
 Alpha  occ. eigenvalues --   -0.78547  -0.77804  -0.75485  -0.74502  -0.74354
 Alpha  occ. eigenvalues --   -0.73914  -0.72026  -0.71336  -0.70496  -0.69152
 Alpha  occ. eigenvalues --   -0.67911  -0.67098  -0.64789  -0.64661  -0.64101
 Alpha  occ. eigenvalues --   -0.62741  -0.61592  -0.60796  -0.60501  -0.60224
 Alpha  occ. eigenvalues --   -0.59231  -0.58206  -0.57403  -0.56924  -0.56413
 Alpha  occ. eigenvalues --   -0.55872  -0.55419  -0.55133  -0.54188  -0.53288
 Alpha  occ. eigenvalues --   -0.53024  -0.52484  -0.52401  -0.51696  -0.51407
 Alpha  occ. eigenvalues --   -0.51337  -0.50494  -0.49953  -0.49169  -0.49013
 Alpha  occ. eigenvalues --   -0.47877  -0.47627  -0.47584  -0.47240  -0.46914
 Alpha  occ. eigenvalues --   -0.46342  -0.45478  -0.45275  -0.44927  -0.44216
 Alpha  occ. eigenvalues --   -0.43128  -0.39619  -0.39276  -0.39244  -0.37579
 Alpha  occ. eigenvalues --   -0.37237  -0.36832  -0.36451  -0.34450  -0.33745
 Alpha virt. eigenvalues --   -0.15243  -0.14713  -0.12425  -0.11952  -0.08208
 Alpha virt. eigenvalues --   -0.07071  -0.06921  -0.05547  -0.04290  -0.03898
 Alpha virt. eigenvalues --   -0.02795  -0.01430  -0.01128  -0.01017  -0.00522

 Mulliken charges:
               1
     1  N   -0.763342
     2  H    0.361781
     3  H    0.328257
     4  H    0.445583
     5  C   -0.050411
     6  H    0.168429
     7  C    0.588287
     8  C   -0.374770
     9  H    0.170267
    10  H    0.159114
    11  O   -0.524506
    12  C    0.093360
    13  C   -0.204355
    14  H    0.160458
    15  C   -0.210469
    16  H    0.193373
    17  C   -0.145824
    18  H    0.175453
    19  C   -0.150437
    20  H    0.178925
    21  C   -0.171398
    22  H    0.177674
    23  N   -0.435769
    24  C   -0.062881
    25  H    0.206128
    26  C    0.601750
    27  C   -0.317104
    28  H    0.190032
    29  H    0.179289
    30  O   -0.501308
    31  C   -0.287758
    32  H    0.168879
    33  H    0.172652
    34  C   -0.144051
    35  H    0.172688
    36  H    0.145590
    37  N   -0.672335
    38  H    0.386072
    39  C   -0.005619
    40  H    0.199435
    41  C    0.566070
    42  C   -0.299972
    43  H    0.178359
    44  H    0.117993
    45  O   -0.426720
    46  C   -0.283485
    47  H    0.215734
    48  H    0.131490
    49  C   -0.302696
    50  H    0.168984
    51  H    0.203597
    52  C   -0.205229
    53  H    0.223868
    54  H    0.218605
    55  N   -0.748522
    56  H    0.414579
    57  H    0.422052
    58  H    0.409928
    59  O   -0.605775
 Sum of Mulliken charges =   1.00000

 Dipole moment (field-independent basis, Debye):
    X=             -6.7016    Y=            -18.8319    Z=             14.6372  Tot=             24.7750
 Quadrupole moment (field-independent basis, Debye-Ang):
   XX=           -136.3286   YY=            -69.8332   ZZ=           -125.7454
   XY=              4.5704   XZ=             11.3018   YZ=            -54.7241

 Normal termination of Gaussian 16 at Thu Jun  2 02:17:09 2022.
