 Gaussian 16, Revision C.01,
 Gaussian 16:  ES64L-G16RevC.01  3-Jul-2019

 ----------------------------------------------------------------------
 # B3LYP/6-31G* empiricaldispersion=gd3 guess=read geom=check nosymm in
 tegral(ultrafinegrid)
 ----------------------------------------------------------------------

 ------------------------------------------------------
 Candidate Structure: Conf:950 Charge calc in gas phase
 ------------------------------------------------------
 Structure from the checkpoint file:  "conf-950.chk"
 Charge =  1 Multiplicity = 1

                          Input orientation:
 ---------------------------------------------------------------------
 Center     Atomic      Atomic             Coordinates (Angstroms)
 Number     Number       Type             X           Y           Z
 ---------------------------------------------------------------------
      1          7           0       -3.479129    3.436618   -2.867001
      2          1           0       -3.097359    3.459850   -1.876520
      3          1           0       -4.357790    3.953643   -2.934300
      4          1           0       -2.774342    3.849752   -3.503284
      5          6           0       -3.610499    1.952749   -3.129750
      6          1           0       -4.677180    1.728699   -3.220137
      7          6           0       -3.094780    1.322814   -1.800607
      8          6           0       -2.872124    1.576552   -4.444767
      9          1           0       -2.727002    0.493874   -4.457526
     10          1           0       -3.537185    1.814967   -5.282128
     11          8           0       -2.695743    2.100792   -0.921287
     12          6           0       -1.552587    2.299214   -4.597156
     13          6           0       -1.472463    3.476367   -5.362463
     14          1           0       -2.336880    3.814139   -5.933300
     15          6           0       -0.415394    1.848055   -3.918239
     16          1           0       -0.444146    0.940612   -3.326322
     17          6           0       -0.269042    4.185065   -5.442484
     18          1           0       -0.212766    5.085009   -6.047804
     19          6           0        0.786585    2.548480   -4.006338
     20          1           0        1.654370    2.156598   -3.486308
     21          6           0        0.859227    3.721097   -4.763950
     22          1           0        1.795835    4.266120   -4.834641
     23          7           0       -3.174287   -0.001829   -1.620928
     24          6           0       -3.021171   -0.545620   -0.238284
     25          1           0       -3.741067   -0.034802    0.407738
     26          6           0       -1.658185   -0.339745    0.434707
     27          6           0       -3.370930   -2.035241   -0.411638
     28          1           0       -2.466836   -2.597024   -0.673220
     29          1           0       -3.775371   -2.455253    0.511259
     30          8           0       -1.609353   -0.154172    1.643638
     31          6           0       -4.364837   -2.044639   -1.580230
     32          1           0       -4.463210   -3.022765   -2.057466
     33          1           0       -5.357795   -1.728617   -1.241215
     34          6           0       -3.782085   -0.996560   -2.536511
     35          1           0       -4.540279   -0.540339   -3.178744
     36          1           0       -3.004835   -1.431372   -3.176179
     37          7           0       -0.563215   -0.499256   -0.348395
     38          1           0       -0.627230   -0.467158   -1.358759
     39          6           0        0.764751   -0.254956    0.197639
     40          1           0        0.739042    0.712378    0.721194
     41          6           0        1.721522   -0.087700   -0.996597
     42          6           0        1.216679   -1.333915    1.212475
     43          1           0        1.845043   -2.069599    0.698297
     44          1           0        0.331814   -1.869893    1.561091
     45          8           0        3.020545   -0.065479   -0.777747
     46          6           0        1.939904   -0.709123    2.421417
     47          1           0        2.435518    0.220182    2.113725
     48          1           0        1.185859   -0.407753    3.156885
     49          6           0        2.987274   -1.614089    3.082823
     50          1           0        2.515463   -2.504453    3.516887
     51          1           0        3.441240   -1.068386    3.920921
     52          6           0        4.091826   -2.073959    2.119566
     53          1           0        4.922533   -2.510047    2.691202
     54          1           0        3.719729   -2.859623    1.453567
     55          7           0        4.537787   -0.956886    1.253191
     56          1           0        5.304593   -1.265495    0.655094
     57          1           0        4.917498   -0.203111    1.827765
     58          1           0        3.396556   -0.365748    0.124503
     59          8           0        1.276256    0.062100   -2.126098
 ---------------------------------------------------------------------

 SCF Done:  E(RB3LYP) =  -1300.60498313     A.U. after    3 cycles

 Alpha  occ. eigenvalues --  -19.27012 -19.24898 -19.21232 -19.20056 -14.58732
 Alpha  occ. eigenvalues --  -14.50746 -14.44445 -14.43093 -10.43728 -10.41056
 Alpha  occ. eigenvalues --  -10.39798 -10.37600 -10.35573 -10.34156 -10.34017
 Alpha  occ. eigenvalues --  -10.32014 -10.31459 -10.30647 -10.30414 -10.30088
 Alpha  occ. eigenvalues --  -10.29816 -10.29639 -10.29083 -10.29077 -10.28720
 Alpha  occ. eigenvalues --  -10.26698 -10.26379 -10.26074  -1.19486  -1.16742
 Alpha  occ. eigenvalues --   -1.13301  -1.12185  -1.08466  -1.08008  -1.00984
 Alpha  occ. eigenvalues --   -0.98641  -0.97004  -0.93477  -0.91224  -0.88603
 Alpha  occ. eigenvalues --   -0.87083  -0.85875  -0.84916  -0.82986  -0.79848
 Alpha  occ. eigenvalues --   -0.77768  -0.76692  -0.73888  -0.72395  -0.71981
 Alpha  occ. eigenvalues --   -0.71393  -0.70621  -0.70458  -0.69223  -0.68597
 Alpha  occ. eigenvalues --   -0.66497  -0.65268  -0.64527  -0.63049  -0.62969
 Alpha  occ. eigenvalues --   -0.61426  -0.60228  -0.59428  -0.59298  -0.57518
 Alpha  occ. eigenvalues --   -0.56990  -0.56194  -0.55978  -0.55579  -0.54610
 Alpha  occ. eigenvalues --   -0.54337  -0.54155  -0.53398  -0.52884  -0.52793
 Alpha  occ. eigenvalues --   -0.52031  -0.51632  -0.51324  -0.50791  -0.50695
 Alpha  occ. eigenvalues --   -0.50085  -0.49237  -0.48312  -0.47597  -0.47182
 Alpha  occ. eigenvalues --   -0.46681  -0.46053  -0.45844  -0.45291  -0.44696
 Alpha  occ. eigenvalues --   -0.44625  -0.44227  -0.43381  -0.41786  -0.41334
 Alpha  occ. eigenvalues --   -0.40789  -0.40624  -0.38762  -0.38277  -0.36371
 Alpha  occ. eigenvalues --   -0.35809  -0.35515  -0.34768  -0.34017  -0.33574
 Alpha virt. eigenvalues --   -0.13290  -0.11783  -0.11317  -0.09128  -0.07196
 Alpha virt. eigenvalues --   -0.06445  -0.05576  -0.04162  -0.01735  -0.01393
 Alpha virt. eigenvalues --   -0.01086  -0.00770   0.00200   0.00699   0.01441

 Mulliken charges:
               1
     1  N   -0.764560
     2  H    0.436378
     3  H    0.408038
     4  H    0.405939
     5  C   -0.105014
     6  H    0.212314
     7  C    0.636531
     8  C   -0.381681
     9  H    0.205501
    10  H    0.186256
    11  O   -0.526600
    12  C    0.114517
    13  C   -0.233041
    14  H    0.143602
    15  C   -0.176382
    16  H    0.166514
    17  C   -0.117607
    18  H    0.162477
    19  C   -0.133783
    20  H    0.188660
    21  C   -0.125852
    22  H    0.164889
    23  N   -0.472098
    24  C   -0.036962
    25  H    0.195273
    26  C    0.635760
    27  C   -0.313792
    28  H    0.174579
    29  H    0.197500
    30  O   -0.514574
    31  C   -0.300085
    32  H    0.184682
    33  H    0.171473
    34  C   -0.154373
    35  H    0.168262
    36  H    0.188406
    37  N   -0.635858
    38  H    0.353104
    39  C   -0.040288
    40  H    0.195073
    41  C    0.590595
    42  C   -0.287148
    43  H    0.146032
    44  H    0.179711
    45  O   -0.610096
    46  C   -0.277552
    47  H    0.133305
    48  H    0.176467
    49  C   -0.282881
    50  H    0.158890
    51  H    0.150403
    52  C   -0.142564
    53  H    0.157125
    54  H    0.162378
    55  N   -0.780042
    56  H    0.341635
    57  H    0.332151
    58  H    0.485903
    59  O   -0.497488
 Sum of Mulliken charges =   1.00000

 Dipole moment (field-independent basis, Debye):
    X=             -9.5898    Y=              5.9390    Z=            -10.8949  Tot=             15.6824
 Quadrupole moment (field-independent basis, Debye-Ang):
   XX=            -67.3406   YY=           -111.0263   ZZ=           -117.0164
   XY=            -30.8910   XZ=             64.9356   YZ=            -42.2857

 Normal termination of Gaussian 16 at Thu Jun  2 02:17:28 2022.
