 Gaussian 16, Revision C.01,
 Gaussian 16:  ES64L-G16RevC.01  3-Jul-2019

 ----------------------------------------------------------------------
 # B3LYP/6-31G* empiricaldispersion=gd3 guess=read geom=check nosymm in
 tegral(ultrafinegrid)
 ----------------------------------------------------------------------

 ------------------------------------------------------
 Candidate Structure: Conf:472 Charge calc in gas phase
 ------------------------------------------------------
 Structure from the checkpoint file:  "conf-472.chk"
 Charge =  1 Multiplicity = 1

                          Input orientation:
 ---------------------------------------------------------------------
 Center     Atomic      Atomic             Coordinates (Angstroms)
 Number     Number       Type             X           Y           Z
 ---------------------------------------------------------------------
      1          7           0       -3.623796    4.674045   -0.443811
      2          1           0       -3.956437    4.575933    0.520999
      3          1           0       -4.001791    5.516395   -0.885273
      4          1           0       -2.533803    4.766661   -0.340278
      5          6           0       -4.040794    3.444907   -1.214772
      6          1           0       -5.138262    3.432843   -1.183783
      7          6           0       -3.588132    2.269173   -0.307678
      8          6           0       -3.588858    3.580995   -2.681588
      9          1           0       -2.505267    3.458700   -2.717923
     10          1           0       -4.061670    2.778615   -3.255124
     11          8           0       -3.591220    2.498601    0.908515
     12          6           0       -3.985735    4.926017   -3.257030
     13          6           0       -5.292198    5.165704   -3.704612
     14          1           0       -6.023686    4.359851   -3.688359
     15          6           0       -3.050222    5.971478   -3.295183
     16          1           0       -2.034472    5.789999   -2.949467
     17          6           0       -5.656761    6.422950   -4.188127
     18          1           0       -6.669592    6.593222   -4.541883
     19          6           0       -3.415675    7.230605   -3.776825
     20          1           0       -2.680587    8.029667   -3.808408
     21          6           0       -4.718770    7.457895   -4.224066
     22          1           0       -5.001818    8.435365   -4.603485
     23          7           0       -3.270629    1.033532   -0.763852
     24          6           0       -2.909047    0.029442    0.261639
     25          1           0       -3.720154   -0.082692    0.983396
     26          6           0       -1.704377    0.506163    1.098614
     27          6           0       -2.668652   -1.250555   -0.562337
     28          1           0       -1.951019   -1.923069   -0.084573
     29          1           0       -3.615529   -1.791611   -0.660782
     30          8           0       -1.695286    0.275286    2.323621
     31          6           0       -2.199620   -0.733123   -1.930799
     32          1           0       -1.127624   -0.507693   -1.909567
     33          1           0       -2.366075   -1.452188   -2.736563
     34          6           0       -3.004215    0.560715   -2.140715
     35          1           0       -3.948783    0.367201   -2.662022
     36          1           0       -2.428662    1.300682   -2.692975
     37          7           0       -0.722203    1.162904    0.443731
     38          1           0       -0.874424    1.279861   -0.561747
     39          6           0       -0.221771    2.481218    0.909269
     40          1           0       -0.725537    2.718496    1.847482
     41          6           0       -0.759679    3.484438   -0.160130
     42          6           0        1.301032    2.534662    1.061012
     43          1           0        1.576642    3.555326    1.353725
     44          1           0        1.760082    2.345378    0.083889
     45          8           0       -1.112112    4.621149    0.261583
     46          6           0        1.828764    1.516966    2.083239
     47          1           0        1.484255    0.527906    1.749276
     48          1           0        2.923825    1.483489    2.054128
     49          6           0        1.357123    1.815360    3.521025
     50          1           0        0.366144    2.281383    3.512168
     51          1           0        2.027459    2.541039    3.994865
     52          6           0        1.278321    0.595897    4.433463
     53          1           0        2.246238    0.109366    4.580913
     54          1           0        0.870624    0.861420    5.411365
     55          7           0        0.339536   -0.442862    3.839382
     56          1           0       -0.078268   -1.036768    4.560867
     57          1           0        0.838495   -1.060118    3.194157
     58          1           0       -0.464253   -0.006902    3.256343
     59          8           0       -0.887835    3.031118   -1.323567
 ---------------------------------------------------------------------

 SCF Done:  E(RB3LYP) =  -1300.61298034     A.U. after    1 cycles

 Alpha  occ. eigenvalues --  -19.24786 -19.22990 -19.18594 -19.18559 -14.57241
 Alpha  occ. eigenvalues --  -14.52078 -14.47969 -14.45312 -10.40734 -10.40569
 Alpha  occ. eigenvalues --  -10.37848 -10.36495 -10.36395 -10.34049 -10.32843
 Alpha  occ. eigenvalues --  -10.31677 -10.31292 -10.30189 -10.29901 -10.29659
 Alpha  occ. eigenvalues --  -10.29051 -10.28533 -10.28326 -10.27476 -10.27224
 Alpha  occ. eigenvalues --  -10.27156 -10.27073 -10.26910  -1.16129  -1.15083
 Alpha  occ. eigenvalues --   -1.12282  -1.11869  -1.07552  -1.05402  -1.03627
 Alpha  occ. eigenvalues --   -1.01834  -0.94120  -0.92397  -0.90832  -0.88404
 Alpha  occ. eigenvalues --   -0.87691  -0.85658  -0.82832  -0.82563  -0.80962
 Alpha  occ. eigenvalues --   -0.77166  -0.75666  -0.74355  -0.71598  -0.71393
 Alpha  occ. eigenvalues --   -0.70158  -0.69671  -0.68884  -0.68011  -0.67459
 Alpha  occ. eigenvalues --   -0.67028  -0.66647  -0.64947  -0.63495  -0.62518
 Alpha  occ. eigenvalues --   -0.60490  -0.59639  -0.59341  -0.58614  -0.58150
 Alpha  occ. eigenvalues --   -0.56981  -0.56450  -0.56003  -0.55520  -0.54625
 Alpha  occ. eigenvalues --   -0.53936  -0.53609  -0.53513  -0.52898  -0.52391
 Alpha  occ. eigenvalues --   -0.51360  -0.50707  -0.50298  -0.50232  -0.50094
 Alpha  occ. eigenvalues --   -0.49924  -0.49389  -0.48611  -0.48031  -0.47470
 Alpha  occ. eigenvalues --   -0.47190  -0.46071  -0.45803  -0.45416  -0.44876
 Alpha  occ. eigenvalues --   -0.44595  -0.44079  -0.43815  -0.42859  -0.42440
 Alpha  occ. eigenvalues --   -0.42130  -0.39515  -0.37836  -0.37158  -0.35580
 Alpha  occ. eigenvalues --   -0.34225  -0.33355  -0.33080  -0.32835  -0.32273
 Alpha virt. eigenvalues --   -0.11415  -0.10078  -0.09640  -0.08718  -0.08552
 Alpha virt. eigenvalues --   -0.04817  -0.04351  -0.02692  -0.02006  -0.01525
 Alpha virt. eigenvalues --   -0.00048   0.00286   0.01032   0.01263   0.01349

 Mulliken charges:
               1
     1  N   -0.765899
     2  H    0.401657
     3  H    0.392339
     4  H    0.448498
     5  C   -0.096766
     6  H    0.202674
     7  C    0.656468
     8  C   -0.394940
     9  H    0.237818
    10  H    0.168960
    11  O   -0.547392
    12  C    0.112402
    13  C   -0.182074
    14  H    0.132142
    15  C   -0.211117
    16  H    0.167961
    17  C   -0.127498
    18  H    0.153384
    19  C   -0.126071
    20  H    0.155918
    21  C   -0.126292
    22  H    0.155345
    23  N   -0.479036
    24  C   -0.042094
    25  H    0.202436
    26  C    0.613406
    27  C   -0.304448
    28  H    0.165612
    29  H    0.180263
    30  O   -0.580207
    31  C   -0.324210
    32  H    0.172885
    33  H    0.181968
    34  C   -0.141551
    35  H    0.171763
    36  H    0.209294
    37  N   -0.596997
    38  H    0.373501
    39  C   -0.068631
    40  H    0.178468
    41  C    0.594691
    42  C   -0.271335
    43  H    0.175265
    44  H    0.167087
    45  O   -0.604873
    46  C   -0.282238
    47  H    0.120512
    48  H    0.169014
    49  C   -0.295641
    50  H    0.181169
    51  H    0.190990
    52  C   -0.186117
    53  H    0.204067
    54  H    0.211029
    55  N   -0.773329
    56  H    0.404650
    57  H    0.399165
    58  H    0.457700
    59  O   -0.581746
 Sum of Mulliken charges =   1.00000

 Dipole moment (field-independent basis, Debye):
    X=             -7.3264    Y=              4.3519    Z=              6.4212  Tot=             10.6699
 Quadrupole moment (field-independent basis, Debye-Ang):
   XX=           -107.1425   YY=           -113.5504   ZZ=           -103.9393
   XY=            -38.5772   XZ=             38.3661   YZ=            -21.8802

 Normal termination of Gaussian 16 at Thu Jun  2 02:11:31 2022.
