 Gaussian 16, Revision C.01,
 Gaussian 16:  ES64L-G16RevC.01  3-Jul-2019

 ----------------------------------------------------------------------
 # B3LYP/6-31G* empiricaldispersion=gd3 guess=read geom=check nosymm in
 tegral(ultrafinegrid)
 ----------------------------------------------------------------------

 ------------------------------------------------------
 Candidate Structure: Conf:746 Charge calc in gas phase
 ------------------------------------------------------
 Structure from the checkpoint file:  "conf-746.chk"
 Charge =  1 Multiplicity = 1

                          Input orientation:
 ---------------------------------------------------------------------
 Center     Atomic      Atomic             Coordinates (Angstroms)
 Number     Number       Type             X           Y           Z
 ---------------------------------------------------------------------
      1          7           0       -3.845241   -3.267413   -1.302635
      2          1           0       -4.789366   -3.303224   -1.694563
      3          1           0       -3.405086   -4.199783   -1.315980
      4          1           0       -3.256960   -2.605026   -1.882264
      5          6           0       -3.778361   -2.634332    0.067983
      6          1           0       -4.786639   -2.588172    0.484158
      7          6           0       -3.222064   -1.220067   -0.217099
      8          6           0       -2.835536   -3.470730    0.992528
      9          1           0       -2.455425   -2.798123    1.767108
     10          1           0       -3.430771   -4.239777    1.494468
     11          8           0       -2.685561   -1.032865   -1.323251
     12          6           0       -1.697632   -4.114690    0.224147
     13          6           0       -1.738920   -5.493995   -0.041992
     14          1           0       -2.536317   -6.103351    0.380384
     15          6           0       -0.645977   -3.350142   -0.302198
     16          1           0       -0.599331   -2.282869   -0.123395
     17          6           0       -0.739908   -6.098245   -0.811934
     18          1           0       -0.776821   -7.167289   -0.999807
     19          6           0        0.350100   -3.953753   -1.069323
     20          1           0        1.150096   -3.339395   -1.469343
     21          6           0        0.303516   -5.327426   -1.325904
     22          1           0        1.080040   -5.794412   -1.924432
     23          7           0       -3.294455   -0.311633    0.755580
     24          6           0       -2.642480    1.018265    0.603132
     25          1           0       -2.712509    1.307384   -0.448526
     26          6           0       -1.157292    0.895978    1.036327
     27          6           0       -3.443393    1.900504    1.562982
     28          1           0       -2.855248    2.751286    1.908269
     29          1           0       -4.344822    2.266381    1.059377
     30          8           0       -0.768978    1.316090    2.123354
     31          6           0       -3.802429    0.935894    2.707916
     32          1           0       -2.930725    0.818123    3.355529
     33          1           0       -4.649379    1.273066    3.309757
     34          6           0       -4.109226   -0.389943    1.992099
     35          1           0       -5.169881   -0.461603    1.719759
     36          1           0       -3.846383   -1.265200    2.592745
     37          7           0       -0.360359    0.226416    0.174783
     38          1           0       -0.652059   -0.015708   -0.770490
     39          6           0        1.059093    0.069483    0.443775
     40          1           0        1.491624    1.060290    0.633958
     41          6           0        1.698479   -0.504018   -0.835989
     42          6           0        1.379729   -0.820980    1.688974
     43          1           0        1.866579   -1.730361    1.322391
     44          1           0        0.433358   -1.139072    2.133315
     45          8           0        3.001262   -0.593643   -0.864201
     46          6           0        2.218008   -0.113425    2.791543
     47          1           0        2.612030    0.836194    2.417864
     48          1           0        1.537311    0.131783    3.611862
     49          6           0        3.380989   -0.950839    3.360973
     50          1           0        2.977246   -1.828976    3.879944
     51          1           0        3.920376   -0.370707    4.121964
     52          6           0        4.384681   -1.409457    2.297498
     53          1           0        5.281514   -1.830756    2.768998
     54          1           0        3.953819   -2.209700    1.686836
     55          7           0        4.698587   -0.278262    1.395548
     56          1           0        5.490528   -0.503517    0.791124
     57          1           0        4.965167    0.549388    1.928897
     58          1           0        3.638338   -0.259388    0.266367
     59          8           0        0.989295   -0.898270   -1.753687
 ---------------------------------------------------------------------

 SCF Done:  E(RB3LYP) =  -1300.58575202     A.U. after    1 cycles

 Alpha  occ. eigenvalues --  -19.26613 -19.22833 -19.20877 -19.19106 -14.59178
 Alpha  occ. eigenvalues --  -14.50423 -14.47873 -14.44450 -10.43216 -10.40834
 Alpha  occ. eigenvalues --  -10.37964 -10.37460 -10.34912 -10.34061 -10.34036
 Alpha  occ. eigenvalues --  -10.32013 -10.31463 -10.31441 -10.30277 -10.29539
 Alpha  occ. eigenvalues --  -10.29246 -10.29163 -10.29056 -10.28883 -10.28677
 Alpha  occ. eigenvalues --  -10.27975 -10.27671 -10.27094  -1.19055  -1.13743
 Alpha  occ. eigenvalues --   -1.13465  -1.12627  -1.07745  -1.04948  -1.02334
 Alpha  occ. eigenvalues --   -1.00926  -0.96924  -0.93333  -0.90585  -0.88908
 Alpha  occ. eigenvalues --   -0.87106  -0.85673  -0.84867  -0.83676  -0.79579
 Alpha  occ. eigenvalues --   -0.78495  -0.76446  -0.73687  -0.73201  -0.72504
 Alpha  occ. eigenvalues --   -0.70938  -0.70547  -0.69386  -0.69097  -0.66915
 Alpha  occ. eigenvalues --   -0.66263  -0.64518  -0.63513  -0.63168  -0.62643
 Alpha  occ. eigenvalues --   -0.61577  -0.60977  -0.60187  -0.58632  -0.58018
 Alpha  occ. eigenvalues --   -0.57221  -0.56488  -0.56037  -0.55646  -0.55358
 Alpha  occ. eigenvalues --   -0.54901  -0.53824  -0.53224  -0.52475  -0.52272
 Alpha  occ. eigenvalues --   -0.52042  -0.51535  -0.51251  -0.50440  -0.50210
 Alpha  occ. eigenvalues --   -0.49900  -0.48969  -0.48296  -0.48061  -0.46992
 Alpha  occ. eigenvalues --   -0.46676  -0.46293  -0.45697  -0.45019  -0.44650
 Alpha  occ. eigenvalues --   -0.44500  -0.44132  -0.43812  -0.42245  -0.41770
 Alpha  occ. eigenvalues --   -0.41746  -0.40993  -0.38846  -0.36711  -0.35864
 Alpha  occ. eigenvalues --   -0.35697  -0.35495  -0.34341  -0.34123  -0.32873
 Alpha virt. eigenvalues --   -0.13194  -0.11620  -0.11331  -0.09620  -0.07785
 Alpha virt. eigenvalues --   -0.04745  -0.04509  -0.04345  -0.03863  -0.01818
 Alpha virt. eigenvalues --   -0.01705  -0.00148  -0.00021   0.00486   0.00876

 Mulliken charges:
               1
     1  N   -0.759186
     2  H    0.409794
     3  H    0.409569
     4  H    0.439565
     5  C   -0.091680
     6  H    0.207666
     7  C    0.633357
     8  C   -0.381172
     9  H    0.205669
    10  H    0.187372
    11  O   -0.545199
    12  C    0.086657
    13  C   -0.218922
    14  H    0.144691
    15  C   -0.180776
    16  H    0.168406
    17  C   -0.120675
    18  H    0.161754
    19  C   -0.140653
    20  H    0.198003
    21  C   -0.128160
    22  H    0.165024
    23  N   -0.436128
    24  C   -0.091667
    25  H    0.198305
    26  C    0.624735
    27  C   -0.286443
    28  H    0.200359
    29  H    0.160170
    30  O   -0.516417
    31  C   -0.315315
    32  H    0.200429
    33  H    0.176321
    34  C   -0.151914
    35  H    0.173373
    36  H    0.174157
    37  N   -0.641531
    38  H    0.382340
    39  C   -0.036885
    40  H    0.178399
    41  C    0.623046
    42  C   -0.293152
    43  H    0.153997
    44  H    0.154894
    45  O   -0.610192
    46  C   -0.264461
    47  H    0.142667
    48  H    0.174296
    49  C   -0.295308
    50  H    0.161059
    51  H    0.155290
    52  C   -0.148296
    53  H    0.174396
    54  H    0.178217
    55  N   -0.771193
    56  H    0.367624
    57  H    0.357062
    58  H    0.407086
    59  O   -0.510424
 Sum of Mulliken charges =   1.00000

 Dipole moment (field-independent basis, Debye):
    X=             -9.1664    Y=            -11.9205    Z=              4.5120  Tot=             15.6997
 Quadrupole moment (field-independent basis, Debye-Ang):
   XX=            -46.5652   YY=           -106.0341   ZZ=           -154.9594
   XY=             37.4777   XZ=             22.3760   YZ=              6.8668

 Normal termination of Gaussian 16 at Thu Jun  2 02:17:09 2022.
