 Gaussian 16, Revision C.01,
 Gaussian 16:  ES64L-G16RevC.01  3-Jul-2019

 ----------------------------------------------------------------------
 # B3LYP/6-31G* empiricaldispersion=gd3 guess=read geom=check nosymm in
 tegral(ultrafinegrid)
 ----------------------------------------------------------------------

 ------------------------------------------------------
 Candidate Structure: Conf:304 Charge calc in gas phase
 ------------------------------------------------------
 Structure from the checkpoint file:  "conf-304.chk"
 Charge =  1 Multiplicity = 1

                          Input orientation:
 ---------------------------------------------------------------------
 Center     Atomic      Atomic             Coordinates (Angstroms)
 Number     Number       Type             X           Y           Z
 ---------------------------------------------------------------------
      1          7           0       -3.829000    4.194699    0.659802
      2          1           0       -4.802024    4.275118    0.963532
      3          1           0       -3.365201    5.116869    0.671763
      4          1           0       -3.299682    3.544899    1.307505
      5          6           0       -3.660947    3.502477   -0.674013
      6          1           0       -4.627155    3.486393   -1.180174
      7          6           0       -3.179633    2.091455   -0.275583
      8          6           0       -2.579091    4.237030   -1.541183
      9          1           0       -2.110279    3.486069   -2.182978
     10          1           0       -3.090079    4.963867   -2.180543
     11          8           0       -2.684300    1.961123    0.856262
     12          6           0       -1.525858    4.924175   -0.698427
     13          6           0       -1.661929    6.285537   -0.375205
     14          1           0       -2.464030    6.871416   -0.823104
     15          6           0       -0.453745    4.195856   -0.162610
     16          1           0       -0.336357    3.150315   -0.427243
     17          6           0       -0.742184    6.908433    0.474957
     18          1           0       -0.848464    7.964234    0.706068
     19          6           0        0.462707    4.822720    0.680929
     20          1           0        1.295318    4.252167    1.082917
     21          6           0        0.318739    6.174632    1.007000
     22          1           0        1.036776    6.656672    1.663770
     23          7           0       -3.259549    1.110068   -1.173954
     24          6           0       -2.445524   -0.099483   -0.971847
     25          1           0       -2.666556   -0.542698    0.002486
     26          6           0       -0.959254    0.316914   -1.061055
     27          6           0       -2.856967   -0.994411   -2.157120
     28          1           0       -2.073900   -1.709828   -2.419515
     29          1           0       -3.759002   -1.558117   -1.894719
     30          8           0       -0.626092    1.316887   -1.705011
     31          6           0       -3.147574    0.021386   -3.273775
     32          1           0       -2.208956    0.377704   -3.706639
     33          1           0       -3.772005   -0.384572   -4.072886
     34          6           0       -3.838223    1.177516   -2.534832
     35          1           0       -4.923163    1.029202   -2.472020
     36          1           0       -3.643561    2.141609   -3.009519
     37          7           0       -0.094979   -0.505310   -0.449066
     38          1           0       -0.408612   -1.272735    0.137906
     39          6           0        1.348409   -0.304336   -0.467821
     40          1           0        1.666059   -0.072235   -1.486804
     41          6           0        2.002182   -1.600853   -0.011467
     42          6           0        1.776942    0.862475    0.484511
     43          1           0        1.080579    0.864605    1.332333
     44          1           0        1.604830    1.790473   -0.069391
     45          8           0        3.237672   -1.712509   -0.462577
     46          6           0        3.229576    0.811808    1.009593
     47          1           0        3.891223    0.466207    0.210339
     48          1           0        3.544989    1.835381    1.243928
     49          6           0        3.407492   -0.063861    2.283302
     50          1           0        2.559008   -0.748862    2.398859
     51          1           0        3.371352    0.591097    3.161561
     52          6           0        4.705620   -0.892372    2.360432
     53          1           0        5.520737   -0.373219    1.844314
     54          1           0        5.009206   -1.004012    3.410164
     55          7           0        4.553284   -2.227788    1.722410
     56          1           0        5.443490   -2.724356    1.720563
     57          1           0        3.822883   -2.130980    0.290507
     58          1           0        3.900445   -2.795596    2.263980
     59          8           0        1.451880   -2.356843    0.777147
 ---------------------------------------------------------------------

 SCF Done:  E(RB3LYP) =  -1300.61230743     A.U. after    1 cycles

 Alpha  occ. eigenvalues --  -19.26209 -19.23443 -19.21555 -19.20776 -14.58784
 Alpha  occ. eigenvalues --  -14.49720 -14.45622 -14.42726 -10.42768 -10.40364
 Alpha  occ. eigenvalues --  -10.38720 -10.38651 -10.34550 -10.34480 -10.33151
 Alpha  occ. eigenvalues --  -10.31657 -10.31348 -10.30372 -10.30077 -10.29788
 Alpha  occ. eigenvalues --  -10.29766 -10.29699 -10.29423 -10.29368 -10.29081
 Alpha  occ. eigenvalues --  -10.27288 -10.26317 -10.26183  -1.18744  -1.15987
 Alpha  occ. eigenvalues --   -1.13624  -1.12807  -1.07570  -1.07385  -1.02030
 Alpha  occ. eigenvalues --   -0.98136  -0.96857  -0.93185  -0.90741  -0.88519
 Alpha  occ. eigenvalues --   -0.86911  -0.85711  -0.85049  -0.82942  -0.79270
 Alpha  occ. eigenvalues --   -0.78091  -0.76388  -0.73443  -0.72442  -0.71649
 Alpha  occ. eigenvalues --   -0.70963  -0.70729  -0.70198  -0.69204  -0.67477
 Alpha  occ. eigenvalues --   -0.66949  -0.64919  -0.64281  -0.62924  -0.62083
 Alpha  occ. eigenvalues --   -0.60902  -0.59308  -0.58632  -0.58190  -0.57654
 Alpha  occ. eigenvalues --   -0.57130  -0.56523  -0.56014  -0.55421  -0.54506
 Alpha  occ. eigenvalues --   -0.54007  -0.53726  -0.53112  -0.52682  -0.52549
 Alpha  occ. eigenvalues --   -0.51870  -0.51509  -0.51180  -0.50833  -0.50052
 Alpha  occ. eigenvalues --   -0.49711  -0.49138  -0.48918  -0.48137  -0.46858
 Alpha  occ. eigenvalues --   -0.46711  -0.46470  -0.45381  -0.44992  -0.44856
 Alpha  occ. eigenvalues --   -0.44336  -0.44212  -0.43839  -0.41698  -0.41147
 Alpha  occ. eigenvalues --   -0.40947  -0.40688  -0.37909  -0.37116  -0.36033
 Alpha  occ. eigenvalues --   -0.35638  -0.35454  -0.35265  -0.34725  -0.33793
 Alpha virt. eigenvalues --   -0.12712  -0.11880  -0.11162  -0.09306  -0.08152
 Alpha virt. eigenvalues --   -0.06482  -0.04154  -0.02440  -0.01678  -0.00936
 Alpha virt. eigenvalues --   -0.00707  -0.00201   0.00425   0.00717   0.01544

 Mulliken charges:
               1
     1  N   -0.761440
     2  H    0.407752
     3  H    0.405386
     4  H    0.432358
     5  C   -0.101184
     6  H    0.206264
     7  C    0.640110
     8  C   -0.392439
     9  H    0.235656
    10  H    0.184246
    11  O   -0.547133
    12  C    0.092943
    13  C   -0.232487
    14  H    0.146502
    15  C   -0.175247
    16  H    0.208318
    17  C   -0.120387
    18  H    0.162683
    19  C   -0.138063
    20  H    0.157443
    21  C   -0.124347
    22  H    0.162974
    23  N   -0.425181
    24  C   -0.082604
    25  H    0.189496
    26  C    0.657232
    27  C   -0.297745
    28  H    0.188398
    29  H    0.175222
    30  O   -0.551973
    31  C   -0.310871
    32  H    0.194813
    33  H    0.179477
    34  C   -0.141069
    35  H    0.177422
    36  H    0.174520
    37  N   -0.619089
    38  H    0.356215
    39  C   -0.004897
    40  H    0.191872
    41  C    0.575877
    42  C   -0.292269
    43  H    0.151389
    44  H    0.168453
    45  O   -0.598176
    46  C   -0.286665
    47  H    0.176431
    48  H    0.142965
    49  C   -0.293251
    50  H    0.164427
    51  H    0.151635
    52  C   -0.143488
    53  H    0.167542
    54  H    0.154527
    55  N   -0.782192
    56  H    0.339818
    57  H    0.461600
    58  H    0.345426
    59  O   -0.505197
 Sum of Mulliken charges =   1.00000

 Dipole moment (field-independent basis, Debye):
    X=            -10.2977    Y=             13.0923    Z=              1.2887  Tot=             16.7067
 Quadrupole moment (field-independent basis, Debye-Ang):
   XX=            -65.8648   YY=            -82.3140   ZZ=           -146.9670
   XY=            -58.8513   XZ=             27.3407   YZ=              4.8908

 Normal termination of Gaussian 16 at Thu Jun  2 02:11:28 2022.
