 Gaussian 16, Revision C.01,
 Gaussian 16:  ES64L-G16RevC.01  3-Jul-2019

 ----------------------------------------------------------------------
 # B3LYP/6-31G* empiricaldispersion=gd3 guess=read geom=check nosymm in
 tegral(ultrafinegrid)
 ----------------------------------------------------------------------

 -----------------------------------------------------
 Candidate Structure: Conf:14 Charge calc in gas phase
 -----------------------------------------------------
 Structure from the checkpoint file:  "conf-14.chk"
 Charge =  1 Multiplicity = 1

                          Input orientation:
 ---------------------------------------------------------------------
 Center     Atomic      Atomic             Coordinates (Angstroms)
 Number     Number       Type             X           Y           Z
 ---------------------------------------------------------------------
      1          7           0       -4.483513    3.279013    3.458737
      2          1           0       -5.402727    3.705545    3.316787
      3          1           0       -4.091600    3.588971    4.354057
      4          1           0       -4.573558    2.215745    3.456271
      5          6           0       -3.532310    3.487535    2.300727
      6          1           0       -3.936574    4.270798    1.658258
      7          6           0       -3.516868    2.105089    1.603413
      8          6           0       -2.105706    3.874292    2.785451
      9          1           0       -1.416250    3.528278    2.007755
     10          1           0       -2.040520    4.965841    2.831573
     11          8           0       -3.925667    1.138927    2.278455
     12          6           0       -1.656298    3.292622    4.118713
     13          6           0       -1.023006    4.138040    5.044963
     14          1           0       -0.909515    5.195518    4.818220
     15          6           0       -1.787262    1.927039    4.438469
     16          1           0       -2.238256    1.240349    3.732759
     17          6           0       -0.521694    3.638902    6.251838
     18          1           0       -0.029595    4.310724    6.948933
     19          6           0       -1.319547    1.437530    5.661227
     20          1           0       -1.453373    0.385939    5.899703
     21          6           0       -0.676368    2.285956    6.568051
     22          1           0       -0.308923    1.900196    7.514343
     23          7           0       -2.994410    2.029793    0.389693
     24          6           0       -2.459448    0.759354   -0.117402
     25          1           0       -3.117835   -0.066860    0.157231
     26          6           0       -1.037065    0.544341    0.493237
     27          6           0       -2.384643    1.013664   -1.634022
     28          1           0       -1.702982    0.324508   -2.140683
     29          1           0       -3.382235    0.894029   -2.070501
     30          8           0       -0.571519    1.391800    1.306679
     31          6           0       -1.931410    2.481908   -1.692267
     32          1           0       -0.851309    2.546353   -1.526159
     33          1           0       -2.154723    2.964900   -2.645908
     34          6           0       -2.677733    3.156447   -0.523245
     35          1           0       -3.616270    3.618034   -0.850573
     36          1           0       -2.065663    3.917166   -0.030664
     37          7           0       -0.455944   -0.538434    0.004729
     38          1           0       -0.932248   -1.080958   -0.774161
     39          6           0        0.961686   -0.827679   -0.295853
     40          1           0        1.459313    0.121158   -0.540326
     41          6           0        0.903837   -1.696755   -1.624106
     42          6           0        1.739125   -1.493339    0.845480
     43          1           0        2.777278   -1.592574    0.515602
     44          1           0        1.357306   -2.500525    1.045753
     45          8           0        1.992896   -2.125476   -2.006867
     46          6           0        1.566204   -0.568386    2.043875
     47          1           0        1.662825    0.435489    1.618202
     48          1           0        0.518273   -0.656218    2.361710
     49          6           0        2.436195   -0.592995    3.297520
     50          1           0        3.468139   -0.293860    3.076072
     51          1           0        2.482188   -1.582240    3.766696
     52          6           0        1.796310    0.368820    4.310034
     53          1           0        0.897592   -0.064122    4.753781
     54          1           0        2.468686    0.685977    5.110871
     55          7           0        1.304392    1.648586    3.626789
     56          1           0        0.869793    2.277734    4.310613
     57          1           0        0.604888    1.457089    2.865358
     58          1           0        2.084735    2.145728    3.185637
     59          8           0       -0.271547   -1.807820   -2.099265
 ---------------------------------------------------------------------

 SCF Done:  E(RB3LYP) =  -1300.53498663     A.U. after    1 cycles

 Alpha  occ. eigenvalues --  -19.27649 -19.22787 -19.11600 -19.10022 -14.61197
 Alpha  occ. eigenvalues --  -14.59002 -14.50620 -14.42500 -10.44118 -10.42441
 Alpha  occ. eigenvalues --  -10.38608 -10.38431 -10.35973 -10.35748 -10.35269
 Alpha  occ. eigenvalues --  -10.34385 -10.34036 -10.34026 -10.33942 -10.33880
 Alpha  occ. eigenvalues --  -10.33706 -10.31088 -10.29740 -10.29109 -10.28588
 Alpha  occ. eigenvalues --  -10.28070 -10.27446 -10.25266  -1.20203  -1.15079
 Alpha  occ. eigenvalues --   -1.13504  -1.12570  -1.08280  -1.04613  -1.01013
 Alpha  occ. eigenvalues --   -0.99811  -0.95811  -0.95520  -0.92167  -0.91718
 Alpha  occ. eigenvalues --   -0.89498  -0.89161  -0.87110  -0.85257  -0.82192
 Alpha  occ. eigenvalues --   -0.79743  -0.77432  -0.76189  -0.74836  -0.74429
 Alpha  occ. eigenvalues --   -0.74267  -0.73007  -0.72396  -0.71703  -0.70854
 Alpha  occ. eigenvalues --   -0.69123  -0.66826  -0.66219  -0.65292  -0.63967
 Alpha  occ. eigenvalues --   -0.63683  -0.62714  -0.61956  -0.61186  -0.60212
 Alpha  occ. eigenvalues --   -0.59479  -0.58457  -0.58135  -0.57660  -0.56673
 Alpha  occ. eigenvalues --   -0.56198  -0.55769  -0.54924  -0.54377  -0.53864
 Alpha  occ. eigenvalues --   -0.53357  -0.53125  -0.52596  -0.51608  -0.51327
 Alpha  occ. eigenvalues --   -0.50539  -0.50128  -0.49498  -0.48985  -0.48096
 Alpha  occ. eigenvalues --   -0.47710  -0.47023  -0.46168  -0.45589  -0.44973
 Alpha  occ. eigenvalues --   -0.44721  -0.42950  -0.42224  -0.41948  -0.41217
 Alpha  occ. eigenvalues --   -0.40467  -0.40360  -0.40136  -0.38726  -0.38519
 Alpha  occ. eigenvalues --   -0.36327  -0.34221  -0.26676  -0.26321  -0.24156
 Alpha virt. eigenvalues --   -0.16330  -0.15667  -0.13811  -0.11920  -0.09602
 Alpha virt. eigenvalues --   -0.08370  -0.07343  -0.05115  -0.04473  -0.03857
 Alpha virt. eigenvalues --   -0.03382  -0.02791  -0.02217  -0.01565  -0.00954

 Mulliken charges:
               1
     1  N   -0.756644
     2  H    0.416925
     3  H    0.411198
     4  H    0.433688
     5  C   -0.105157
     6  H    0.216699
     7  C    0.626554
     8  C   -0.369492
     9  H    0.239762
    10  H    0.181381
    11  O   -0.548155
    12  C    0.062594
    13  C   -0.202543
    14  H    0.165028
    15  C   -0.242900
    16  H    0.211003
    17  C   -0.143968
    18  H    0.180037
    19  C   -0.158321
    20  H    0.177948
    21  C   -0.144872
    22  H    0.179492
    23  N   -0.410012
    24  C   -0.106424
    25  H    0.215230
    26  C    0.622188
    27  C   -0.306321
    28  H    0.235019
    29  H    0.170408
    30  O   -0.623507
    31  C   -0.321842
    32  H    0.180973
    33  H    0.186272
    34  C   -0.141355
    35  H    0.179323
    36  H    0.164840
    37  N   -0.591309
    38  H    0.383728
    39  C   -0.101612
    40  H    0.146451
    41  C    0.607406
    42  C   -0.253582
    43  H    0.181263
    44  H    0.160132
    45  O   -0.550087
    46  C   -0.288805
    47  H    0.121033
    48  H    0.146334
    49  C   -0.278160
    50  H    0.170859
    51  H    0.190700
    52  C   -0.192042
    53  H    0.204591
    54  H    0.200822
    55  N   -0.791772
    56  H    0.409248
    57  H    0.460495
    58  H    0.403767
    59  O   -0.614507
 Sum of Mulliken charges =   1.00000

 Dipole moment (field-independent basis, Debye):
    X=            -12.3356    Y=             23.8972    Z=             27.5200  Tot=             38.4785
 Quadrupole moment (field-independent basis, Debye-Ang):
   XX=            -93.5420   YY=           -105.6432   ZZ=            -69.4032
   XY=            -44.3690   XZ=            -10.9287   YZ=             42.0386

 Normal termination of Gaussian 16 at Thu Jun  2 02:04:14 2022.
