 Gaussian 16, Revision C.01,
 Gaussian 16:  ES64L-G16RevC.01  3-Jul-2019

 ----------------------------------------------------------------------
 # B3LYP/6-31G* empiricaldispersion=gd3 guess=read geom=check nosymm in
 tegral(ultrafinegrid)
 ----------------------------------------------------------------------

 ------------------------------------------------------
 Candidate Structure: Conf:684 Charge calc in gas phase
 ------------------------------------------------------
 Structure from the checkpoint file:  "conf-684.chk"
 Charge =  1 Multiplicity = 1

                          Input orientation:
 ---------------------------------------------------------------------
 Center     Atomic      Atomic             Coordinates (Angstroms)
 Number     Number       Type             X           Y           Z
 ---------------------------------------------------------------------
      1          7           0        0.517512   -0.001364   -2.558056
      2          1           0        1.221785    0.785093   -1.424522
      3          1           0        0.768230    0.374093   -3.469852
      4          1           0        0.679394   -1.011431   -2.574548
      5          6           0       -0.915575    0.218076   -2.249505
      6          1           0       -1.032333    1.249780   -1.925495
      7          6           0       -1.299275   -0.766434   -1.136482
      8          6           0       -1.838379   -0.026722   -3.478775
      9          1           0       -1.526301    0.676388   -4.260941
     10          1           0       -1.650640   -1.040098   -3.851797
     11          8           0       -0.787819   -1.898031   -1.146359
     12          6           0       -3.300246    0.170758   -3.149804
     13          6           0       -3.833959    1.463846   -3.091936
     14          1           0       -3.211098    2.315167   -3.356853
     15          6           0       -4.121062   -0.916328   -2.822842
     16          1           0       -3.714311   -1.923855   -2.866644
     17          6           0       -5.155268    1.671023   -2.696426
     18          1           0       -5.555627    2.679769   -2.657986
     19          6           0       -5.444948   -0.714027   -2.433620
     20          1           0       -6.074385   -1.566418   -2.193281
     21          6           0       -5.963749    0.582263   -2.362546
     22          1           0       -6.996051    0.741403   -2.064860
     23          7           0       -2.244650   -0.420994   -0.224864
     24          6           0       -2.614155    0.955210    0.175631
     25          1           0       -2.831613    1.585850   -0.685928
     26          6           0       -1.447163    1.632628    0.933895
     27          6           0       -3.875380    0.733496    1.035520
     28          1           0       -4.021831    1.542748    1.754945
     29          1           0       -4.745572    0.697614    0.370967
     30          8           0       -1.300571    2.841218    0.932403
     31          6           0       -3.639702   -0.639552    1.685461
     32          1           0       -2.989548   -0.533896    2.561546
     33          1           0       -4.564040   -1.119525    2.014239
     34          6           0       -2.932188   -1.449380    0.587737
     35          1           0       -3.640631   -1.978394   -0.056874
     36          1           0       -2.216263   -2.181553    0.972369
     37          7           0       -0.605518    0.753340    1.581740
     38          1           0       -0.818232   -0.211203    1.385082
     39          6           0        0.823247    0.993108    1.779342
     40          1           0        0.959465    2.065069    1.936804
     41          6           0        1.466268    0.582904    0.436159
     42          6           0        1.377394    0.137792    2.948527
     43          1           0        1.381743    0.752834    3.853118
     44          1           0        2.424259   -0.088955    2.734507
     45          8           0        2.037538   -0.510661    0.270542
     46          6           0        0.591333   -1.144790    3.294236
     47          1           0        1.095039   -1.624145    4.142638
     48          1           0       -0.392932   -0.839711    3.673143
     49          6           0        0.365406   -2.209018    2.187761
     50          1           0       -0.113785   -1.759527    1.313086
     51          1           0       -0.340210   -2.952104    2.577580
     52          6           0        1.608674   -2.955781    1.664801
     53          1           0        2.538810   -2.413758    1.840586
     54          1           0        1.703556   -3.963763    2.073061
     55          7           0        1.508646   -3.082707    0.158843
     56          1           0        2.274760   -3.633664   -0.238608
     57          1           0        1.568397   -2.099806   -0.214765
     58          1           0        0.619675   -3.496873   -0.138756
     59          8           0        1.224407    1.390010   -0.551373
 ---------------------------------------------------------------------

 SCF Done:  E(RB3LYP) =  -1300.62038706     A.U. after    1 cycles

 Alpha  occ. eigenvalues --  -19.27946 -19.25486 -19.25365 -19.21984 -14.58530
 Alpha  occ. eigenvalues --  -14.48965 -14.47303 -14.46658 -10.43172 -10.41862
 Alpha  occ. eigenvalues --  -10.39041 -10.38344 -10.35495 -10.34685 -10.34234
 Alpha  occ. eigenvalues --  -10.33678 -10.33015 -10.30965 -10.30738 -10.29945
 Alpha  occ. eigenvalues --  -10.29897 -10.29699 -10.29564 -10.28516 -10.28378
 Alpha  occ. eigenvalues --  -10.28365 -10.28244 -10.28117  -1.21006  -1.16920
 Alpha  occ. eigenvalues --   -1.13892  -1.13447  -1.11196  -1.06917  -1.03619
 Alpha  occ. eigenvalues --   -1.03247  -0.95285  -0.93001  -0.91306  -0.88762
 Alpha  occ. eigenvalues --   -0.88544  -0.86215  -0.83849  -0.83331  -0.82509
 Alpha  occ. eigenvalues --   -0.78087  -0.77837  -0.74793  -0.73566  -0.72448
 Alpha  occ. eigenvalues --   -0.71692  -0.70212  -0.70033  -0.69490  -0.68619
 Alpha  occ. eigenvalues --   -0.68140  -0.67103  -0.66113  -0.63430  -0.63023
 Alpha  occ. eigenvalues --   -0.61826  -0.60711  -0.60012  -0.59441  -0.58791
 Alpha  occ. eigenvalues --   -0.58490  -0.57702  -0.57415  -0.56564  -0.56371
 Alpha  occ. eigenvalues --   -0.55304  -0.54959  -0.54244  -0.53646  -0.53392
 Alpha  occ. eigenvalues --   -0.52907  -0.52335  -0.51981  -0.51818  -0.51307
 Alpha  occ. eigenvalues --   -0.50727  -0.50314  -0.50112  -0.49580  -0.48938
 Alpha  occ. eigenvalues --   -0.48266  -0.47769  -0.46486  -0.46005  -0.45786
 Alpha  occ. eigenvalues --   -0.45202  -0.44895  -0.44715  -0.44190  -0.43891
 Alpha  occ. eigenvalues --   -0.43391  -0.42234  -0.40068  -0.39949  -0.39045
 Alpha  occ. eigenvalues --   -0.38379  -0.35702  -0.34752  -0.34032  -0.33743
 Alpha virt. eigenvalues --   -0.12779  -0.12318  -0.10016  -0.09676  -0.09218
 Alpha virt. eigenvalues --   -0.07581  -0.05515  -0.04069  -0.03532  -0.02227
 Alpha virt. eigenvalues --   -0.01501  -0.00832  -0.00527   0.00243   0.00888

 Mulliken charges:
               1
     1  N   -0.797260
     2  H    0.466948
     3  H    0.352060
     4  H    0.341503
     5  C   -0.060970
     6  H    0.194892
     7  C    0.619872
     8  C   -0.370195
     9  H    0.173150
    10  H    0.168086
    11  O   -0.600142
    12  C    0.165854
    13  C   -0.202599
    14  H    0.144837
    15  C   -0.181985
    16  H    0.137064
    17  C   -0.125363
    18  H    0.159541
    19  C   -0.135488
    20  H    0.149935
    21  C   -0.135674
    22  H    0.156393
    23  N   -0.470915
    24  C   -0.075857
    25  H    0.203381
    26  C    0.613913
    27  C   -0.299726
    28  H    0.191733
    29  H    0.185755
    30  O   -0.479475
    31  C   -0.323233
    32  H    0.164101
    33  H    0.180965
    34  C   -0.131757
    35  H    0.183747
    36  H    0.159564
    37  N   -0.626072
    38  H    0.353227
    39  C   -0.037597
    40  H    0.219598
    41  C    0.598867
    42  C   -0.281660
    43  H    0.177976
    44  H    0.167793
    45  O   -0.567491
    46  C   -0.295204
    47  H    0.169026
    48  H    0.175947
    49  C   -0.324379
    50  H    0.157108
    51  H    0.176732
    52  C   -0.170457
    53  H    0.226761
    54  H    0.203888
    55  N   -0.752597
    56  H    0.403187
    57  H    0.446340
    58  H    0.418758
    59  O   -0.562405
 Sum of Mulliken charges =   1.00000

 Dipole moment (field-independent basis, Debye):
    X=             -1.5859    Y=            -10.3935    Z=             -0.6134  Tot=             10.5317
 Quadrupole moment (field-independent basis, Debye-Ang):
   XX=           -121.8497   YY=           -135.8097   ZZ=           -134.3356
   XY=            -14.5913   XZ=              5.0351   YZ=            -10.8811

 Normal termination of Gaussian 16 at Thu Jun  2 02:17:17 2022.
