 Gaussian 16, Revision C.01,
 Gaussian 16:  ES64L-G16RevC.01  3-Jul-2019

 ----------------------------------------------------------------------
 # B3LYP/6-31G* empiricaldispersion=gd3 guess=read geom=check nosymm in
 tegral(ultrafinegrid)
 ----------------------------------------------------------------------

 ------------------------------------------------------
 Candidate Structure: Conf:306 Charge calc in gas phase
 ------------------------------------------------------
 Structure from the checkpoint file:  "conf-306.chk"
 Charge =  1 Multiplicity = 1

                          Input orientation:
 ---------------------------------------------------------------------
 Center     Atomic      Atomic             Coordinates (Angstroms)
 Number     Number       Type             X           Y           Z
 ---------------------------------------------------------------------
      1          7           0       -4.312231    2.103123    3.448913
      2          1           0       -5.212320    1.617985    3.389155
      3          1           0       -4.320773    2.720060    4.265784
      4          1           0       -3.539728    1.374637    3.509991
      5          6           0       -3.928528    2.820692    2.163578
      6          1           0       -4.839788    3.115975    1.642248
      7          6           0       -3.104343    1.729596    1.430522
      8          6           0       -3.071651    4.055328    2.531079
      9          1           0       -3.636903    4.648869    3.263705
     10          1           0       -2.155423    3.701911    3.018547
     11          8           0       -2.569346    0.877371    2.169268
     12          6           0       -2.743455    4.907514    1.326159
     13          6           0       -1.500181    4.794169    0.695553
     14          1           0       -0.756552    4.101169    1.071640
     15          6           0       -3.711622    5.773859    0.799969
     16          1           0       -4.675123    5.879166    1.296146
     17          6           0       -1.235906    5.529916   -0.461542
     18          1           0       -0.270897    5.428055   -0.948785
     19          6           0       -3.446270    6.508486   -0.355063
     20          1           0       -4.199621    7.180979   -0.754671
     21          6           0       -2.206757    6.383454   -0.990090
     22          1           0       -1.998016    6.956167   -1.889055
     23          7           0       -2.985593    1.743671    0.109253
     24          6           0       -2.078762    0.770419   -0.542373
     25          1           0       -2.478533   -0.236573   -0.376192
     26          6           0       -0.651190    0.896484    0.023165
     27          6           0       -2.143257    1.175848   -2.027794
     28          1           0       -1.367399    1.924106   -2.222643
     29          1           0       -1.977432    0.322424   -2.688725
     30          8           0       -0.172131    2.001512    0.270451
     31          6           0       -3.534255    1.808711   -2.174678
     32          1           0       -3.622481    2.448586   -3.056159
     33          1           0       -4.307882    1.034700   -2.233852
     34          6           0       -3.675189    2.609844   -0.876465
     35          1           0       -4.714252    2.780947   -0.582674
     36          1           0       -3.163384    3.571188   -0.947886
     37          7           0        0.005748   -0.267646    0.149272
     38          1           0       -0.427932   -1.158345   -0.074013
     39          6           0        1.387394   -0.367382    0.595081
     40          1           0        2.019565    0.275463   -0.029522
     41          6           0        1.812104   -1.823104    0.406999
     42          6           0        1.592220    0.072700    2.069146
     43          1           0        1.345113    1.137660    2.112380
     44          1           0        2.662330   -0.017348    2.277636
     45          8           0        3.062562   -2.024643    0.792329
     46          6           0        0.756309   -0.659411    3.137429
     47          1           0        0.954646   -0.158844    4.095460
     48          1           0       -0.306827   -0.490979    2.921743
     49          6           0        0.972605   -2.179479    3.320524
     50          1           0        0.661708   -2.702093    2.411770
     51          1           0        0.281771   -2.519493    4.101862
     52          6           0        2.409821   -2.621227    3.691864
     53          1           0        3.112386   -1.790160    3.576856
     54          1           0        2.449473   -2.928421    4.745769
     55          7           0        2.893843   -3.704054    2.793947
     56          1           0        3.780586   -4.074905    3.134780
     57          1           0        3.098041   -2.907085    1.318301
     58          1           0        2.236233   -4.483260    2.788028
     59          8           0        1.031570   -2.690223    0.046128
 ---------------------------------------------------------------------

 SCF Done:  E(RB3LYP) =  -1300.60547065     A.U. after    1 cycles

 Alpha  occ. eigenvalues --  -19.26749 -19.23370 -19.20753 -19.20471 -14.60565
 Alpha  occ. eigenvalues --  -14.50503 -14.44705 -14.42240 -10.43458 -10.41269
 Alpha  occ. eigenvalues --  -10.38595 -10.38038 -10.34414 -10.34166 -10.34142
 Alpha  occ. eigenvalues --  -10.31206 -10.30591 -10.30013 -10.29772 -10.29452
 Alpha  occ. eigenvalues --  -10.29346 -10.28858 -10.28669 -10.28456 -10.28398
 Alpha  occ. eigenvalues --  -10.26115 -10.26055 -10.26036  -1.19443  -1.15927
 Alpha  occ. eigenvalues --   -1.14355  -1.12449  -1.07715  -1.07537  -1.01264
 Alpha  occ. eigenvalues --   -0.97600  -0.96723  -0.93377  -0.91135  -0.88229
 Alpha  occ. eigenvalues --   -0.86566  -0.85363  -0.84286  -0.82656  -0.79998
 Alpha  occ. eigenvalues --   -0.77605  -0.76668  -0.74295  -0.73626  -0.71843
 Alpha  occ. eigenvalues --   -0.71208  -0.70552  -0.70275  -0.68214  -0.67062
 Alpha  occ. eigenvalues --   -0.66275  -0.64322  -0.63834  -0.63622  -0.62988
 Alpha  occ. eigenvalues --   -0.61003  -0.59700  -0.58422  -0.57912  -0.57501
 Alpha  occ. eigenvalues --   -0.56252  -0.56026  -0.55803  -0.55578  -0.54301
 Alpha  occ. eigenvalues --   -0.54081  -0.53394  -0.52993  -0.52615  -0.52272
 Alpha  occ. eigenvalues --   -0.51738  -0.51467  -0.51226  -0.50602  -0.50276
 Alpha  occ. eigenvalues --   -0.49757  -0.49161  -0.48468  -0.46871  -0.46767
 Alpha  occ. eigenvalues --   -0.46519  -0.45632  -0.45356  -0.44639  -0.44407
 Alpha  occ. eigenvalues --   -0.44340  -0.43790  -0.43482  -0.41470  -0.41027
 Alpha  occ. eigenvalues --   -0.40479  -0.39741  -0.38166  -0.37150  -0.35222
 Alpha  occ. eigenvalues --   -0.34930  -0.34852  -0.34328  -0.33989  -0.33771
 Alpha virt. eigenvalues --   -0.13309  -0.11351  -0.11226  -0.10029  -0.07294
 Alpha virt. eigenvalues --   -0.06595  -0.06379  -0.03840  -0.02281  -0.02012
 Alpha virt. eigenvalues --   -0.00471  -0.00166   0.00472   0.00959   0.01896

 Mulliken charges:
               1
     1  N   -0.752071
     2  H    0.414856
     3  H    0.412018
     4  H    0.432425
     5  C   -0.109822
     6  H    0.206552
     7  C    0.654744
     8  C   -0.379404
     9  H    0.173420
    10  H    0.197032
    11  O   -0.559182
    12  C    0.140805
    13  C   -0.173371
    14  H    0.187743
    15  C   -0.185868
    16  H    0.127144
    17  C   -0.144585
    18  H    0.164010
    19  C   -0.131604
    20  H    0.157179
    21  C   -0.127606
    22  H    0.160081
    23  N   -0.435196
    24  C   -0.039850
    25  H    0.172847
    26  C    0.655899
    27  C   -0.314509
    28  H    0.189124
    29  H    0.184102
    30  O   -0.546715
    31  C   -0.302287
    32  H    0.182970
    33  H    0.166253
    34  C   -0.151175
    35  H    0.159420
    36  H    0.214584
    37  N   -0.622536
    38  H    0.355984
    39  C   -0.024599
    40  H    0.191777
    41  C    0.596755
    42  C   -0.283935
    43  H    0.170207
    44  H    0.168468
    45  O   -0.602735
    46  C   -0.290065
    47  H    0.137698
    48  H    0.153539
    49  C   -0.304272
    50  H    0.172761
    51  H    0.142680
    52  C   -0.140058
    53  H    0.169437
    54  H    0.151203
    55  N   -0.778270
    56  H    0.335087
    57  H    0.457984
    58  H    0.334654
    59  O   -0.491730
 Sum of Mulliken charges =   1.00000

 Dipole moment (field-independent basis, Debye):
    X=            -16.5087    Y=              8.4588    Z=             11.3340  Tot=             21.7382
 Quadrupole moment (field-independent basis, Debye-Ang):
   XX=            -69.6691   YY=           -111.3257   ZZ=           -102.2518
   XY=            -58.9896   XZ=            -28.6497   YZ=             -0.3601

 Normal termination of Gaussian 16 at Thu Jun  2 02:11:25 2022.
