 Gaussian 16, Revision C.01,
 Gaussian 16:  ES64L-G16RevC.01  3-Jul-2019

 ----------------------------------------------------------------------
 # B3LYP/6-31G* empiricaldispersion=gd3 guess=read geom=check nosymm in
 tegral(ultrafinegrid)
 ----------------------------------------------------------------------

 ------------------------------------------------------
 Candidate Structure: Conf:879 Charge calc in gas phase
 ------------------------------------------------------
 Structure from the checkpoint file:  "conf-879.chk"
 Charge =  1 Multiplicity = 1

                          Input orientation:
 ---------------------------------------------------------------------
 Center     Atomic      Atomic             Coordinates (Angstroms)
 Number     Number       Type             X           Y           Z
 ---------------------------------------------------------------------
      1          7           0       -4.974989    2.444371   -2.946386
      2          1           0       -5.845076    1.904500   -2.971392
      3          1           0       -5.012710    3.168627   -3.668893
      4          1           0       -4.860176    2.857373   -1.972833
      5          6           0       -3.726757    1.579199   -3.035193
      6          1           0       -3.966737    0.682321   -3.605890
      7          6           0       -3.424532    1.311673   -1.535148
      8          6           0       -2.614498    2.398680   -3.726045
      9          1           0       -2.975996    2.685268   -4.723439
     10          1           0       -2.463118    3.318068   -3.146427
     11          8           0       -3.837870    2.187916   -0.748898
     12          6           0       -1.325891    1.619296   -3.837525
     13          6           0       -0.302201    1.803913   -2.899653
     14          1           0       -0.422483    2.542822   -2.109605
     15          6           0       -1.171942    0.654110   -4.840094
     16          1           0       -1.954172    0.518465   -5.585537
     17          6           0        0.848246    1.020492   -2.958363
     18          1           0        1.648732    1.139582   -2.237655
     19          6           0       -0.028414   -0.145775   -4.881498
     20          1           0        0.070393   -0.907578   -5.648998
     21          6           0        0.978489    0.025172   -3.930316
     22          1           0        1.849061   -0.621095   -3.897817
     23          7           0       -2.778595    0.207180   -1.175147
     24          6           0       -2.526741   -0.102197    0.252849
     25          1           0       -3.170279    0.528894    0.865353
     26          6           0       -1.071814    0.287172    0.573404
     27          6           0       -2.866995   -1.603837    0.320096
     28          1           0       -2.304850   -2.113503    1.105964
     29          1           0       -3.927932   -1.702769    0.566126
     30          8           0       -0.835242    1.486330    0.870990
     31          6           0       -2.583343   -2.171800   -1.100972
     32          1           0       -1.700686   -2.814937   -1.131181
     33          1           0       -3.435981   -2.756669   -1.455004
     34          6           0       -2.331892   -0.940836   -2.001304
     35          1           0       -2.875264   -0.975173   -2.945541
     36          1           0       -1.266065   -0.836474   -2.221295
     37          7           0       -0.154503   -0.661790    0.462280
     38          1           0       -0.368696   -1.541862   -0.036725
     39          6           0        1.271074   -0.437596    0.238976
     40          1           0        1.413865    0.610325   -0.031385
     41          6           0        1.636763   -1.297255   -1.040326
     42          6           0        2.130226   -0.840753    1.440712
     43          1           0        3.176352   -0.809993    1.113579
     44          1           0        1.907629   -1.891311    1.661451
     45          8           0        2.741973   -1.023529   -1.532932
     46          6           0        1.921206    0.001537    2.713566
     47          1           0        0.861011    0.277263    2.806222
     48          1           0        2.139988   -0.610438    3.595993
     49          6           0        2.815469    1.250513    2.815991
     50          1           0        3.866903    0.938296    2.830108
     51          1           0        2.638194    1.761325    3.773618
     52          6           0        2.694347    2.267893    1.684806
     53          1           0        3.367365    3.114681    1.845284
     54          1           0        2.918525    1.828305    0.711006
     55          7           0        1.291521    2.829780    1.597609
     56          1           0        1.244948    3.604262    0.929489
     57          1           0        0.995747    3.199833    2.506479
     58          1           0        0.522879    2.119913    1.288417
     59          8           0        0.737868   -2.111739   -1.394776
 ---------------------------------------------------------------------

 SCF Done:  E(RB3LYP) =  -1300.57280400     A.U. after    1 cycles

 Alpha  occ. eigenvalues --  -19.26196 -19.23666 -19.14100 -19.13001 -14.60235
 Alpha  occ. eigenvalues --  -14.55953 -14.50418 -14.45059 -10.43261 -10.40835
 Alpha  occ. eigenvalues --  -10.39748 -10.36353 -10.34447 -10.33841 -10.32817
 Alpha  occ. eigenvalues --  -10.31779 -10.30377 -10.29884 -10.29522 -10.29326
 Alpha  occ. eigenvalues --  -10.28523 -10.28434 -10.28426 -10.28116 -10.27432
 Alpha  occ. eigenvalues --  -10.27120 -10.26620 -10.26446  -1.18971  -1.14593
 Alpha  occ. eigenvalues --   -1.13785  -1.10671  -1.07549  -1.07157  -1.02044
 Alpha  occ. eigenvalues --   -0.98375  -0.96102  -0.92581  -0.91027  -0.90102
 Alpha  occ. eigenvalues --   -0.86659  -0.85076  -0.84301  -0.83430  -0.80172
 Alpha  occ. eigenvalues --   -0.79481  -0.77551  -0.74327  -0.73935  -0.73136
 Alpha  occ. eigenvalues --   -0.70918  -0.70023  -0.69664  -0.69061  -0.68373
 Alpha  occ. eigenvalues --   -0.67586  -0.67123  -0.66818  -0.63994  -0.63258
 Alpha  occ. eigenvalues --   -0.62280  -0.60760  -0.60014  -0.59148  -0.58281
 Alpha  occ. eigenvalues --   -0.57749  -0.57163  -0.56195  -0.55036  -0.54801
 Alpha  occ. eigenvalues --   -0.54730  -0.54186  -0.53014  -0.52216  -0.51735
 Alpha  occ. eigenvalues --   -0.51201  -0.51009  -0.50956  -0.50316  -0.50025
 Alpha  occ. eigenvalues --   -0.49489  -0.49338  -0.48234  -0.47136  -0.46886
 Alpha  occ. eigenvalues --   -0.46558  -0.45725  -0.44571  -0.44330  -0.43804
 Alpha  occ. eigenvalues --   -0.43417  -0.43035  -0.42960  -0.42841  -0.41849
 Alpha  occ. eigenvalues --   -0.40904  -0.40664  -0.39107  -0.36997  -0.36100
 Alpha  occ. eigenvalues --   -0.34010  -0.33418  -0.29152  -0.28834  -0.27032
 Alpha virt. eigenvalues --   -0.12898  -0.11083  -0.10230  -0.09334  -0.09072
 Alpha virt. eigenvalues --   -0.08665  -0.06106  -0.03539  -0.03220  -0.01644
 Alpha virt. eigenvalues --   -0.01521  -0.01396  -0.00650   0.00023   0.01247

 Mulliken charges:
               1
     1  N   -0.752526
     2  H    0.414619
     3  H    0.411452
     4  H    0.430455
     5  C   -0.105608
     6  H    0.207839
     7  C    0.636780
     8  C   -0.381136
     9  H    0.176321
    10  H    0.180358
    11  O   -0.553684
    12  C    0.156086
    13  C   -0.184027
    14  H    0.116024
    15  C   -0.191526
    16  H    0.124567
    17  C   -0.145398
    18  H    0.158140
    19  C   -0.132310
    20  H    0.158904
    21  C   -0.101964
    22  H    0.203303
    23  N   -0.418659
    24  C   -0.090777
    25  H    0.206082
    26  C    0.632038
    27  C   -0.302461
    28  H    0.186004
    29  H    0.170578
    30  O   -0.614225
    31  C   -0.333683
    32  H    0.227493
    33  H    0.164983
    34  C   -0.175544
    35  H    0.160097
    36  H    0.244048
    37  N   -0.565745
    38  H    0.380767
    39  C   -0.102635
    40  H    0.102202
    41  C    0.632746
    42  C   -0.266039
    43  H    0.177706
    44  H    0.164401
    45  O   -0.582430
    46  C   -0.284612
    47  H    0.137175
    48  H    0.169991
    49  C   -0.289198
    50  H    0.192029
    51  H    0.153277
    52  C   -0.194973
    53  H    0.196946
    54  H    0.230546
    55  N   -0.775799
    56  H    0.394971
    57  H    0.393125
    58  H    0.463780
    59  O   -0.610874
 Sum of Mulliken charges =   1.00000

 Dipole moment (field-independent basis, Debye):
    X=            -14.9983    Y=             14.4023    Z=             -3.5281  Tot=             21.0908
 Quadrupole moment (field-independent basis, Debye-Ang):
   XX=            -77.3606   YY=           -126.1568   ZZ=           -110.0356
   XY=             -6.5520   XZ=             75.3160   YZ=            -15.1989

 Normal termination of Gaussian 16 at Thu Jun  2 02:17:09 2022.
