 Gaussian 16, Revision C.01,
 Gaussian 16:  ES64L-G16RevC.01  3-Jul-2019

 -------------------------------------------------------------------
 # B3LYP/6-31G* guess=read geom=check nosymm integral(ultrafinegrid)
 -------------------------------------------------------------------

 ------------------------------------------------------
 Candidate Structure: Conf:879 Charge calc in gas phase
 ------------------------------------------------------
 Structure from the checkpoint file:  "conf-879.chk"
 Charge =  1 Multiplicity = 1

                          Input orientation:
 ---------------------------------------------------------------------
 Center     Atomic      Atomic             Coordinates (Angstroms)
 Number     Number       Type             X           Y           Z
 ---------------------------------------------------------------------
      1          7           0       -1.658635    1.252226   -1.606434
      2          1           0       -0.996898    1.237970   -2.385878
      3          1           0       -2.308939    0.489195   -1.813263
      4          6           0       -2.425835    2.530653   -1.658670
      5          1           0       -1.703427    3.327119   -1.447500
      6          6           0       -3.467744    2.465046   -0.524008
      7          6           0       -3.080927    2.827542   -3.044343
      8          1           0       -3.993735    3.404907   -2.870720
      9          1           0       -2.393246    3.476945   -3.597312
     10          8           0       -4.625563    2.139322   -0.745505
     11          6           0       -3.379385    1.606442   -3.896452
     12          6           0       -2.530467    1.282389   -4.965463
     13          1           0       -1.685230    1.928889   -5.195809
     14          6           0       -4.483202    0.777383   -3.640052
     15          1           0       -5.151304    1.021666   -2.820545
     16          6           0       -2.772994    0.160943   -5.761389
     17          1           0       -2.110713   -0.065364   -6.592354
     18          6           0       -4.725006   -0.344156   -4.435452
     19          1           0       -5.589726   -0.969622   -4.231355
     20          6           0       -3.871611   -0.657101   -5.495957
     21          1           0       -4.067536   -1.526611   -6.116784
     22          7           0       -3.063950    2.712575    0.770436
     23          6           0       -1.831225    3.341759    1.252297
     24          1           0       -1.402241    4.024634    0.509393
     25          6           0       -0.757331    2.303393    1.557181
     26          6           0       -2.286249    4.099297    2.518418
     27          1           0       -1.466457    4.302700    3.209330
     28          1           0       -2.710668    5.056260    2.199038
     29          8           0       -0.027413    2.421456    2.658360
     30          6           0       -3.376087    3.178667    3.087423
     31          1           0       -2.919996    2.343184    3.630046
     32          1           0       -4.050787    3.701358    3.769409
     33          6           0       -4.101729    2.670291    1.836392
     34          1           0       -4.934347    3.315345    1.538182
     35          1           0       -4.493032    1.655149    1.937378
     36          7           0       -0.445297    1.288492    0.813304
     37          1           0       -0.919091    1.128047   -0.163121
     38          6           0        0.636427    0.506642    1.427113
     39          1           0        0.249580   -0.479897    1.704619
     40          6           0        0.876755    1.288664    2.707304
     41          6           0        1.910420    0.369789    0.572117
     42          1           0        2.680285   -0.036368    1.237252
     43          1           0        2.249504    1.368107    0.266684
     44          8           0        1.628504    1.143947    3.607805
     45          6           0        1.722244   -0.534731   -0.655194
     46          1           0        1.389700   -1.528628   -0.323198
     47          1           0        0.913575   -0.133361   -1.281176
     48          6           0        2.985662   -0.678675   -1.519612
     49          1           0        3.341518    0.319422   -1.816340
     50          1           0        2.725905   -1.199640   -2.447656
     51          6           0        4.131931   -1.456443   -0.860881
     52          1           0        4.450289   -0.952044    0.070994
     53          1           0        3.763692   -2.448126   -0.567386
     54          7           0        5.211624   -1.654094   -1.828008
     55          1           0        5.909022   -2.293101   -1.451794
     56          1           0        5.696295   -0.774424   -2.000517
     57          8           0       -1.484491    0.097971    3.711241
     58          1           0       -2.104359   -0.648144    3.715327
     59          1           0       -1.195698    0.171776    4.634765
 ---------------------------------------------------------------------

 SCF Done:  E(RB3LYP) =  -1300.49070051     A.U. after    2 cycles

 Alpha  occ. eigenvalues --  -19.37836 -19.31082 -19.28292 -19.23813 -14.54156
 Alpha  occ. eigenvalues --  -14.49508 -14.48342 -14.38876 -10.48307 -10.48151
 Alpha  occ. eigenvalues --  -10.40998 -10.39886 -10.39794 -10.35976 -10.33286
 Alpha  occ. eigenvalues --  -10.32890 -10.32165 -10.30534 -10.30444 -10.29482
 Alpha  occ. eigenvalues --  -10.29408 -10.28460 -10.27820 -10.27418 -10.27076
 Alpha  occ. eigenvalues --  -10.26934 -10.26842 -10.26720  -1.29911  -1.21468
 Alpha  occ. eigenvalues --   -1.16128  -1.13809  -1.11610  -1.07354  -1.04044
 Alpha  occ. eigenvalues --   -0.96167  -0.95496  -0.93736  -0.92375  -0.90039
 Alpha  occ. eigenvalues --   -0.87807  -0.86832  -0.82930  -0.82406  -0.81934
 Alpha  occ. eigenvalues --   -0.79512  -0.77961  -0.76357  -0.74799  -0.73770
 Alpha  occ. eigenvalues --   -0.71692  -0.70076  -0.68741  -0.68292  -0.67812
 Alpha  occ. eigenvalues --   -0.66686  -0.65785  -0.65641  -0.64927  -0.63642
 Alpha  occ. eigenvalues --   -0.62264  -0.60532  -0.59823  -0.59076  -0.58221
 Alpha  occ. eigenvalues --   -0.57730  -0.57195  -0.56998  -0.56603  -0.56395
 Alpha  occ. eigenvalues --   -0.55899  -0.55079  -0.54554  -0.54209  -0.53492
 Alpha  occ. eigenvalues --   -0.52982  -0.52793  -0.52549  -0.51939  -0.51293
 Alpha  occ. eigenvalues --   -0.50934  -0.50059  -0.49717  -0.49259  -0.48761
 Alpha  occ. eigenvalues --   -0.48079  -0.47409  -0.46781  -0.46430  -0.46057
 Alpha  occ. eigenvalues --   -0.45637  -0.44483  -0.44148  -0.43816  -0.43321
 Alpha  occ. eigenvalues --   -0.43175  -0.42686  -0.42282  -0.41898  -0.41324
 Alpha  occ. eigenvalues --   -0.37429  -0.37039  -0.33191  -0.32841  -0.31116
 Alpha virt. eigenvalues --   -0.19310  -0.14253  -0.11222  -0.08727  -0.08539
 Alpha virt. eigenvalues --   -0.07516  -0.05254  -0.03925  -0.03258  -0.02405
 Alpha virt. eigenvalues --   -0.00950  -0.00390   0.00161   0.00717   0.01356

 Mulliken charges:
               1
     1  N   -0.797432
     2  H    0.351887
     3  H    0.360438
     4  C   -0.057386
     5  H    0.152347
     6  C    0.595405
     7  C   -0.365914
     8  H    0.195724
     9  H    0.158790
    10  O   -0.474945
    11  C    0.129696
    12  C   -0.203217
    13  H    0.127404
    14  C   -0.199129
    15  H    0.175636
    16  C   -0.125700
    17  H    0.149293
    18  C   -0.129013
    19  H    0.150531
    20  C   -0.127425
    21  H    0.152020
    22  N   -0.457483
    23  C   -0.115972
    24  H    0.213676
    25  C    0.714196
    26  C   -0.298927
    27  H    0.195955
    28  H    0.185463
    29  O   -0.455100
    30  C   -0.329504
    31  H    0.175154
    32  H    0.188208
    33  C   -0.111527
    34  H    0.193797
    35  H    0.182388
    36  N   -0.616205
    37  H    0.459427
    38  C   -0.056911
    39  H    0.239225
    40  C    0.637087
    41  C   -0.274115
    42  H    0.201124
    43  H    0.161010
    44  O   -0.374527
    45  C   -0.283444
    46  H    0.154448
    47  H    0.128132
    48  C   -0.253986
    49  H    0.133616
    50  H    0.172224
    51  C   -0.139466
    52  H    0.116789
    53  H    0.147704
    54  N   -0.712410
    55  H    0.312110
    56  H    0.300996
    57  O   -0.792536
    58  H    0.418435
    59  H    0.421938
 Sum of Mulliken charges =   1.00000

 Dipole moment (field-independent basis, Debye):
    X=             -3.4221    Y=              6.4831    Z=              3.4739  Tot=              8.1123
 Quadrupole moment (field-independent basis, Debye-Ang):
   XX=           -137.5665   YY=           -130.6741   ZZ=           -128.2104
   XY=             -9.6690   XZ=            -11.8067   YZ=              2.7462

 Normal termination of Gaussian 16 at Wed May 25 20:22:08 2022.
