 Gaussian 16, Revision C.01,
 Gaussian 16:  ES64L-G16RevC.01  3-Jul-2019

 -------------------------------------------------------------------
 # B3LYP/6-31G* guess=read geom=check nosymm integral(ultrafinegrid)
 -------------------------------------------------------------------

 ------------------------------------------------------
 Candidate Structure: Conf:705 Charge calc in gas phase
 ------------------------------------------------------
 Structure from the checkpoint file:  "conf-705.chk"
 Charge =  1 Multiplicity = 1

                          Input orientation:
 ---------------------------------------------------------------------
 Center     Atomic      Atomic             Coordinates (Angstroms)
 Number     Number       Type             X           Y           Z
 ---------------------------------------------------------------------
      1          7           0       -3.781481    4.953395   -0.072243
      2          1           0       -3.036624    5.096856    0.608329
      3          1           0       -4.586023    4.592968    0.437375
      4          6           0       -3.338562    4.014458   -1.096688
      5          1           0       -4.199355    3.784941   -1.732044
      6          6           0       -2.791338    2.717720   -0.485618
      7          6           0       -2.245765    4.692778   -1.961881
      8          1           0       -2.685142    5.633244   -2.311481
      9          1           0       -1.409926    4.954650   -1.303093
     10          8           0       -1.913547    2.740189    0.397180
     11          6           0       -1.742220    3.864048   -3.127241
     12          6           0       -2.564263    3.607202   -4.237670
     13          1           0       -3.565905    4.031358   -4.273973
     14          6           0       -0.441670    3.346636   -3.132814
     15          1           0        0.220805    3.555699   -2.297171
     16          6           0       -2.105433    2.841413   -5.309910
     17          1           0       -2.752063    2.667533   -6.165544
     18          6           0        0.028197    2.584620   -4.207660
     19          1           0        1.053259    2.222165   -4.198176
     20          6           0       -0.805785    2.324145   -5.297566
     21          1           0       -0.439209    1.752879   -6.146316
     22          7           0       -3.263033    1.508805   -0.883492
     23          6           0       -2.694551    0.334330   -0.225140
     24          1           0       -3.150453    0.185864    0.764474
     25          6           0       -1.226638    0.522374   -0.000052
     26          6           0       -3.036128   -0.832385   -1.187179
     27          1           0       -2.260815   -0.922935   -1.956361
     28          1           0       -3.114171   -1.783247   -0.654130
     29          8           0       -0.444417    0.910706   -0.991975
     30          6           0       -4.371222   -0.364811   -1.796285
     31          1           0       -4.593869   -0.870171   -2.739081
     32          1           0       -5.197554   -0.564209   -1.105300
     33          6           0       -4.187526    1.149852   -1.981817
     34          1           0       -5.129031    1.697425   -1.888327
     35          1           0       -3.732451    1.394077   -2.946756
     36          7           0       -0.543352    0.096635    1.039224
     37          1           0       -0.976320   -0.194619    1.907427
     38          6           0        0.902137    0.277774    0.854513
     39          1           0        1.263162    1.054483    1.540397
     40          6           0        0.920537    0.845639   -0.559687
     41          6           0        1.748361   -1.003096    0.997083
     42          1           0        1.753290   -1.291925    2.055468
     43          1           0        2.775809   -0.708178    0.751128
     44          8           0        1.810037    1.194734   -1.256923
     45          6           0        1.299936   -2.175254    0.114158
     46          1           0        0.289497   -2.493149    0.408130
     47          1           0        1.227440   -1.851371   -0.933828
     48          6           0        2.252245   -3.376103    0.212262
     49          1           0        2.331082   -3.703263    1.259398
     50          1           0        3.262239   -3.069062   -0.094913
     51          6           0        1.798376   -4.565431   -0.657131
     52          1           0        0.789418   -4.872798   -0.349904
     53          1           0        1.712813   -4.234924   -1.701085
     54          7           0        2.649057   -5.749237   -0.634394
     55          1           0        2.734241   -6.114171    0.312661
     56          1           0        3.591803   -5.521469   -0.945373
     57          8           0       -0.260115   -0.864407   -3.143164
     58          1           0       -0.047297   -1.457726   -3.879943
     59          1           0       -0.246280    0.025964   -3.533776
 ---------------------------------------------------------------------

 SCF Done:  E(RB3LYP) =  -1300.48451810     A.U. after    3 cycles

 Alpha  occ. eigenvalues --  -19.38115 -19.31454 -19.25442 -19.25366 -14.56579
 Alpha  occ. eigenvalues --  -14.50386 -14.41819 -14.38701 -10.50113 -10.48682
 Alpha  occ. eigenvalues --  -10.41200 -10.41002 -10.39616 -10.34901 -10.33665
 Alpha  occ. eigenvalues --  -10.33146 -10.32577 -10.31684 -10.30137 -10.29275
 Alpha  occ. eigenvalues --  -10.29112 -10.28753 -10.28473 -10.28432 -10.28409
 Alpha  occ. eigenvalues --  -10.28365 -10.28298 -10.27861  -1.30910  -1.21887
 Alpha  occ. eigenvalues --   -1.17255  -1.13127  -1.10926  -1.08089  -0.99521
 Alpha  occ. eigenvalues --   -0.96782  -0.95735  -0.94872  -0.92790  -0.90941
 Alpha  occ. eigenvalues --   -0.87722  -0.87353  -0.83746  -0.82931  -0.81852
 Alpha  occ. eigenvalues --   -0.81304  -0.78587  -0.78240  -0.74776  -0.73798
 Alpha  occ. eigenvalues --   -0.72393  -0.70463  -0.69825  -0.69152  -0.67833
 Alpha  occ. eigenvalues --   -0.67099  -0.66635  -0.64640  -0.63416  -0.63063
 Alpha  occ. eigenvalues --   -0.61835  -0.60999  -0.60602  -0.59258  -0.59118
 Alpha  occ. eigenvalues --   -0.58205  -0.57883  -0.57232  -0.56743  -0.55947
 Alpha  occ. eigenvalues --   -0.55805  -0.55236  -0.55100  -0.54195  -0.54087
 Alpha  occ. eigenvalues --   -0.53924  -0.52530  -0.51825  -0.51264  -0.50768
 Alpha  occ. eigenvalues --   -0.50629  -0.49819  -0.49493  -0.49162  -0.48594
 Alpha  occ. eigenvalues --   -0.48320  -0.47725  -0.47419  -0.46625  -0.45883
 Alpha  occ. eigenvalues --   -0.45732  -0.45224  -0.44671  -0.44317  -0.43989
 Alpha  occ. eigenvalues --   -0.43270  -0.43074  -0.42403  -0.40614  -0.39430
 Alpha  occ. eigenvalues --   -0.38185  -0.34479  -0.34303  -0.33656  -0.30747
 Alpha virt. eigenvalues --   -0.19516  -0.14676  -0.11611  -0.10177  -0.09657
 Alpha virt. eigenvalues --   -0.08009  -0.05016  -0.03325  -0.02690  -0.02546
 Alpha virt. eigenvalues --   -0.01678  -0.00945   0.00062   0.00186   0.00519

 Mulliken charges:
               1
     1  N   -0.688531
     2  H    0.321977
     3  H    0.312225
     4  C   -0.078056
     5  H    0.155435
     6  C    0.640796
     7  C   -0.347908
     8  H    0.194318
     9  H    0.164291
    10  O   -0.561399
    11  C    0.158742
    12  C   -0.196769
    13  H    0.143372
    14  C   -0.180085
    15  H    0.139726
    16  C   -0.129241
    17  H    0.153337
    18  C   -0.161405
    19  H    0.155696
    20  C   -0.143832
    21  H    0.149472
    22  N   -0.465705
    23  C   -0.014764
    24  H    0.184893
    25  C    0.730798
    26  C   -0.337962
    27  H    0.230842
    28  H    0.177812
    29  O   -0.429553
    30  C   -0.312877
    31  H    0.190572
    32  H    0.176491
    33  C   -0.134605
    34  H    0.186162
    35  H    0.197977
    36  N   -0.617681
    37  H    0.387779
    38  C   -0.057436
    39  H    0.247489
    40  C    0.645393
    41  C   -0.281341
    42  H    0.175162
    43  H    0.199375
    44  O   -0.382068
    45  C   -0.295532
    46  H    0.132901
    47  H    0.175548
    48  C   -0.269745
    49  H    0.137423
    50  H    0.143644
    51  C   -0.138141
    52  H    0.142144
    53  H    0.143914
    54  N   -0.697836
    55  H    0.301592
    56  H    0.302334
    57  O   -0.791514
    58  H    0.407549
    59  H    0.406805
 Sum of Mulliken charges =   1.00000

 Dipole moment (field-independent basis, Debye):
    X=             -6.7269    Y=              0.5022    Z=             -1.5701  Tot=              6.9259
 Quadrupole moment (field-independent basis, Debye-Ang):
   XX=           -117.2014   YY=           -161.8446   ZZ=           -126.9188
   XY=            -14.3275   XZ=             15.0602   YZ=             -8.6926

 Normal termination of Gaussian 16 at Wed May 25 20:22:24 2022.
