 Gaussian 16, Revision C.01,
 Gaussian 16:  ES64L-G16RevC.01  3-Jul-2019

 -------------------------------------------------------------------
 # B3LYP/6-31G* guess=read geom=check nosymm integral(ultrafinegrid)
 -------------------------------------------------------------------

 ------------------------------------------------------
 Candidate Structure: Conf:503 Charge calc in gas phase
 ------------------------------------------------------
 Structure from the checkpoint file:  "conf-503.chk"
 Charge =  1 Multiplicity = 1

                          Input orientation:
 ---------------------------------------------------------------------
 Center     Atomic      Atomic             Coordinates (Angstroms)
 Number     Number       Type             X           Y           Z
 ---------------------------------------------------------------------
      1          7           0       -1.465507   -1.979038   -3.955782
      2          1           0       -2.137106   -2.738652   -4.065006
      3          1           0       -0.591376   -2.420831   -3.675200
      4          6           0       -1.943773   -1.085936   -2.914060
      5          1           0       -1.182583   -0.304315   -2.776279
      6          6           0       -2.172678   -1.813874   -1.572604
      7          6           0       -3.245052   -0.373628   -3.402561
      8          1           0       -3.582147    0.344770   -2.643193
      9          1           0       -2.950345    0.205874   -4.283392
     10          8           0       -2.490029   -2.986897   -1.522726
     11          6           0       -4.390400   -1.300321   -3.754577
     12          6           0       -4.486924   -1.853712   -5.039846
     13          1           0       -3.736246   -1.605918   -5.785734
     14          6           0       -5.379074   -1.615298   -2.813131
     15          1           0       -5.333354   -1.179265   -1.816553
     16          6           0       -5.538510   -2.710571   -5.368278
     17          1           0       -5.600373   -3.127714   -6.369443
     18          6           0       -6.432678   -2.468616   -3.139303
     19          1           0       -7.193149   -2.697265   -2.397918
     20          6           0       -6.513073   -3.021124   -4.418743
     21          1           0       -7.335105   -3.682724   -4.676203
     22          7           0       -1.970211   -1.113374   -0.367449
     23          6           0       -1.873296    0.337472   -0.239318
     24          1           0       -2.334249    0.878805   -1.069986
     25          6           0       -0.426097    0.798500   -0.191235
     26          6           0       -2.599128    0.660164    1.100066
     27          1           0       -2.229876    1.571655    1.576513
     28          1           0       -3.658684    0.809280    0.870914
     29          8           0       -0.239492    2.086023   -0.167664
     30          6           0       -2.392661   -0.619161    1.924634
     31          1           0       -1.407930   -0.613850    2.408058
     32          1           0       -3.140555   -0.727698    2.713716
     33          6           0       -2.486824   -1.739776    0.884048
     34          1           0       -3.517725   -2.069121    0.717226
     35          1           0       -1.900799   -2.626106    1.135612
     36          7           0        0.539209   -0.085463   -0.155883
     37          1           0        0.191941   -1.046811   -0.222647
     38          6           0        1.991505    0.117788    0.093652
     39          1           0        2.079745    0.808980    0.941030
     40          6           0        2.630028    0.790308   -1.134736
     41          6           0        2.645058   -1.225640    0.430605
     42          1           0        2.644550   -1.853441   -0.468634
     43          1           0        2.022793   -1.722019    1.186555
     44          8           0        3.339442    0.275228   -1.948567
     45          6           0        4.076376   -1.082274    0.970839
     46          1           0        4.709364   -0.603346    0.214110
     47          1           0        4.068210   -0.420169    1.848839
     48          6           0        4.676259   -2.439385    1.361469
     49          1           0        4.681717   -3.100536    0.482649
     50          1           0        4.051721   -2.930209    2.118224
     51          6           0        6.100326   -2.327381    1.916799
     52          1           0        6.741953   -1.819617    1.172297
     53          1           0        6.087975   -1.684905    2.806628
     54          7           0        6.578224   -3.646892    2.329948
     55          1           0        7.453934   -3.558414    2.841394
     56          1           0        6.785670   -4.216961    1.511059
     57          8           0        2.254187    2.109889   -1.180460
     58          1           0        0.696468    2.348805   -0.367395
     59          1           0        2.642996    2.528910   -1.975536
 ---------------------------------------------------------------------

 SCF Done:  E(RB3LYP) =  -1300.48631233     A.U. after    1 cycles

 Alpha  occ. eigenvalues --  -19.39114 -19.37509 -19.31153 -19.23620 -14.58114
 Alpha  occ. eigenvalues --  -14.49819 -14.41076 -14.38439 -10.50926 -10.49101
 Alpha  occ. eigenvalues --  -10.42026 -10.40152 -10.40104 -10.34217 -10.33825
 Alpha  occ. eigenvalues --  -10.33697 -10.33496 -10.32060 -10.30246 -10.29269
 Alpha  occ. eigenvalues --  -10.28893 -10.27531 -10.27431 -10.26464 -10.26021
 Alpha  occ. eigenvalues --  -10.26009 -10.25859 -10.25768  -1.29680  -1.27301
 Alpha  occ. eigenvalues --   -1.19064  -1.16072  -1.14934  -1.07674  -0.99071
 Alpha  occ. eigenvalues --   -0.97238  -0.95464  -0.93045  -0.92700  -0.90817
 Alpha  occ. eigenvalues --   -0.88438  -0.86223  -0.83653  -0.82545  -0.81490
 Alpha  occ. eigenvalues --   -0.80965  -0.78779  -0.77678  -0.76224  -0.74374
 Alpha  occ. eigenvalues --   -0.72282  -0.71729  -0.70135  -0.69210  -0.68358
 Alpha  occ. eigenvalues --   -0.67759  -0.67648  -0.65727  -0.65392  -0.64124
 Alpha  occ. eigenvalues --   -0.62750  -0.61382  -0.60121  -0.59747  -0.59331
 Alpha  occ. eigenvalues --   -0.58483  -0.58193  -0.58098  -0.57695  -0.56526
 Alpha  occ. eigenvalues --   -0.55974  -0.55512  -0.54622  -0.54000  -0.53853
 Alpha  occ. eigenvalues --   -0.53457  -0.52966  -0.52058  -0.51405  -0.50890
 Alpha  occ. eigenvalues --   -0.50608  -0.49941  -0.49488  -0.49193  -0.49064
 Alpha  occ. eigenvalues --   -0.48990  -0.48475  -0.47706  -0.47185  -0.46689
 Alpha  occ. eigenvalues --   -0.46451  -0.45946  -0.44841  -0.43808  -0.43411
 Alpha  occ. eigenvalues --   -0.42796  -0.42321  -0.41230  -0.41186  -0.38472
 Alpha  occ. eigenvalues --   -0.37085  -0.33941  -0.32032  -0.31549  -0.30739
 Alpha virt. eigenvalues --   -0.20111  -0.16625  -0.10649  -0.09293  -0.07906
 Alpha virt. eigenvalues --   -0.07207  -0.07116  -0.04855  -0.04573  -0.02411
 Alpha virt. eigenvalues --   -0.01895  -0.01557  -0.00645   0.00174   0.00417

 Mulliken charges:
               1
     1  N   -0.688895
     2  H    0.337292
     3  H    0.302039
     4  C   -0.069159
     5  H    0.104032
     6  C    0.572925
     7  C   -0.361173
     8  H    0.139578
     9  H    0.184426
    10  O   -0.460678
    11  C    0.161532
    12  C   -0.190295
    13  H    0.149739
    14  C   -0.169432
    15  H    0.102121
    16  C   -0.125606
    17  H    0.148846
    18  C   -0.124557
    19  H    0.142427
    20  C   -0.125287
    21  H    0.149231
    22  N   -0.527134
    23  C   -0.040993
    24  H    0.220254
    25  C    0.619526
    26  C   -0.305222
    27  H    0.192895
    28  H    0.198469
    29  O   -0.548416
    30  C   -0.314604
    31  H    0.152475
    32  H    0.199964
    33  C   -0.120669
    34  H    0.196881
    35  H    0.188396
    36  N   -0.568268
    37  H    0.403099
    38  C   -0.071130
    39  H    0.217374
    40  C    0.631933
    41  C   -0.306868
    42  H    0.188212
    43  H    0.167297
    44  O   -0.381492
    45  C   -0.286488
    46  H    0.168501
    47  H    0.146854
    48  C   -0.252462
    49  H    0.142508
    50  H    0.158490
    51  C   -0.137701
    52  H    0.122718
    53  H    0.144729
    54  N   -0.715546
    55  H    0.311371
    56  H    0.301717
    57  O   -0.615952
    58  H    0.482618
    59  H    0.457556
 Sum of Mulliken charges =   1.00000

 Dipole moment (field-independent basis, Debye):
    X=              1.9969    Y=              2.5619    Z=             -0.2599  Tot=              3.2586
 Quadrupole moment (field-independent basis, Debye-Ang):
   XX=           -105.8437   YY=           -154.2002   ZZ=           -152.2610
   XY=              3.9614   XZ=              5.4221   YZ=              0.1698

 Normal termination of Gaussian 16 at Wed May 25 20:21:53 2022.
