 Gaussian 16, Revision C.01,
 Gaussian 16:  ES64L-G16RevC.01  3-Jul-2019

 -------------------------------------------------------------------
 # B3LYP/6-31G* guess=read geom=check nosymm integral(ultrafinegrid)
 -------------------------------------------------------------------

 ------------------------------------------------------
 Candidate Structure: Conf:684 Charge calc in gas phase
 ------------------------------------------------------
 Structure from the checkpoint file:  "conf-684.chk"
 Charge =  1 Multiplicity = 1

                          Input orientation:
 ---------------------------------------------------------------------
 Center     Atomic      Atomic             Coordinates (Angstroms)
 Number     Number       Type             X           Y           Z
 ---------------------------------------------------------------------
      1          7           0       -2.527347   -0.179653   -5.010956
      2          1           0       -1.627865    0.255956   -5.196905
      3          1           0       -3.255419    0.520847   -5.122224
      4          6           0       -2.563440   -0.823115   -3.718945
      5          1           0       -3.582106   -1.177698   -3.553098
      6          6           0       -2.157208    0.099513   -2.564467
      7          6           0       -1.610512   -2.065077   -3.695417
      8          1           0       -0.635540   -1.733804   -4.074429
      9          1           0       -1.454080   -2.383509   -2.655833
     10          8           0       -1.215430    0.941395   -2.905241
     11          6           0       -2.147925   -3.229073   -4.498042
     12          6           0       -2.006532   -3.276363   -5.891253
     13          1           0       -1.497386   -2.469203   -6.408187
     14          6           0       -2.811491   -4.278618   -3.848789
     15          1           0       -2.913423   -4.265952   -2.764537
     16          6           0       -2.521357   -4.350472   -6.616792
     17          1           0       -2.401482   -4.376831   -7.695978
     18          6           0       -3.327450   -5.353518   -4.573038
     19          1           0       -3.831747   -6.163671   -4.054139
     20          6           0       -3.183748   -5.389996   -5.960817
     21          1           0       -3.579861   -6.227483   -6.527614
     22          7           0       -2.683440    0.039485   -1.358273
     23          6           0       -2.457106    1.036018   -0.250586
     24          1           0       -2.896266    1.984919   -0.573918
     25          6           0       -1.004527    1.358574    0.114421
     26          6           0       -3.249478    0.447220    0.932088
     27          1           0       -2.617682   -0.248286    1.497107
     28          1           0       -3.569628    1.237841    1.613230
     29          8           0       -0.733522    2.472624    0.530596
     30          6           0       -4.407606   -0.296046    0.259489
     31          1           0       -4.865150   -1.047999    0.906595
     32          1           0       -5.189855    0.406142   -0.047687
     33          6           0       -3.759988   -0.934155   -0.971164
     34          1           0       -4.459341   -1.077820   -1.794299
     35          1           0       -3.291261   -1.896308   -0.739477
     36          7           0       -0.069581    0.387430   -0.085202
     37          1           0       -0.338878   -0.563552   -0.300688
     38          6           0        1.346723    0.669052    0.152268
     39          1           0        1.488674    0.995011    1.186344
     40          6           0        1.814624    1.837571   -0.711650
     41          6           0        2.175892   -0.607217   -0.122705
     42          1           0        1.998016   -0.919184   -1.161513
     43          1           0        1.764749   -1.394091    0.525742
     44          8           0        2.754322    2.542668   -0.466543
     45          6           0        3.685684   -0.488210    0.129772
     46          1           0        4.139583   -1.457056   -0.103562
     47          1           0        4.123847    0.238924   -0.564810
     48          6           0        4.073831   -0.114981    1.566727
     49          1           0        3.505990   -0.734341    2.279162
     50          1           0        3.815906    0.930403    1.777969
     51          6           0        5.574270   -0.309713    1.829488
     52          1           0        6.143377    0.269885    1.092016
     53          1           0        5.820521    0.113294    2.817962
     54          7           0        5.950098   -1.720505    1.674954
     55          1           0        5.653636   -2.248502    2.495012
     56          1           0        6.963411   -1.809841    1.635820
     57          8           0        1.083366    1.975594   -1.872473
     58          1           0       -0.619541    1.336996   -2.217454
     59          1           0        1.469883    2.735427   -2.350538
 ---------------------------------------------------------------------

 SCF Done:  E(RB3LYP) =  -1300.49340439     A.U. after    3 cycles

 Alpha  occ. eigenvalues --  -19.36763 -19.32738 -19.25907 -19.25563 -14.57043
 Alpha  occ. eigenvalues --  -14.50558 -14.45048 -14.37845 -10.48748 -10.44050
 Alpha  occ. eigenvalues --  -10.43156 -10.39531 -10.38820 -10.37889 -10.36217
 Alpha  occ. eigenvalues --  -10.34070 -10.33752 -10.32318 -10.30609 -10.29253
 Alpha  occ. eigenvalues --  -10.28157 -10.27589 -10.27527 -10.27508 -10.27288
 Alpha  occ. eigenvalues --  -10.27233 -10.26570 -10.25751  -1.26808  -1.22637
 Alpha  occ. eigenvalues --   -1.17931  -1.13989  -1.13716  -1.06683  -1.03337
 Alpha  occ. eigenvalues --   -0.97087  -0.94626  -0.94532  -0.92514  -0.90194
 Alpha  occ. eigenvalues --   -0.89176  -0.85784  -0.84626  -0.83021  -0.81491
 Alpha  occ. eigenvalues --   -0.79330  -0.79135  -0.76408  -0.76232  -0.74308
 Alpha  occ. eigenvalues --   -0.72756  -0.72164  -0.69660  -0.69307  -0.68162
 Alpha  occ. eigenvalues --   -0.67116  -0.65811  -0.65268  -0.63750  -0.62600
 Alpha  occ. eigenvalues --   -0.61981  -0.60802  -0.60441  -0.59657  -0.59436
 Alpha  occ. eigenvalues --   -0.58536  -0.58257  -0.57553  -0.57054  -0.56397
 Alpha  occ. eigenvalues --   -0.55433  -0.54826  -0.54738  -0.54234  -0.54132
 Alpha  occ. eigenvalues --   -0.53907  -0.53159  -0.52194  -0.51500  -0.51369
 Alpha  occ. eigenvalues --   -0.50731  -0.50646  -0.50146  -0.49482  -0.49440
 Alpha  occ. eigenvalues --   -0.49269  -0.48619  -0.48452  -0.46692  -0.45350
 Alpha  occ. eigenvalues --   -0.44890  -0.44281  -0.44023  -0.43190  -0.42760
 Alpha  occ. eigenvalues --   -0.41968  -0.41414  -0.40752  -0.40665  -0.39270
 Alpha  occ. eigenvalues --   -0.38299  -0.37471  -0.33522  -0.33305  -0.30129
 Alpha virt. eigenvalues --   -0.18800  -0.12856  -0.10831  -0.09595  -0.08679
 Alpha virt. eigenvalues --   -0.08239  -0.05897  -0.04809  -0.03795  -0.03309
 Alpha virt. eigenvalues --   -0.02541  -0.02028  -0.01913  -0.00006   0.00479

 Mulliken charges:
               1
     1  N   -0.681299
     2  H    0.331314
     3  H    0.328631
     4  C   -0.059830
     5  H    0.185802
     6  C    0.592865
     7  C   -0.374385
     8  H    0.177181
     9  H    0.142219
    10  O   -0.587488
    11  C    0.175802
    12  C   -0.150885
    13  H    0.139044
    14  C   -0.188131
    15  H    0.109509
    16  C   -0.130509
    17  H    0.153635
    18  C   -0.125780
    19  H    0.148825
    20  C   -0.123503
    21  H    0.155185
    22  N   -0.456114
    23  C   -0.050728
    24  H    0.224513
    25  C    0.576142
    26  C   -0.311591
    27  H    0.178465
    28  H    0.218216
    29  O   -0.474742
    30  C   -0.310083
    31  H    0.202162
    32  H    0.189918
    33  C   -0.152695
    34  H    0.210730
    35  H    0.200567
    36  N   -0.649408
    37  H    0.338768
    38  C    0.003775
    39  H    0.219811
    40  C    0.633222
    41  C   -0.328970
    42  H    0.147328
    43  H    0.158159
    44  O   -0.420683
    45  C   -0.263033
    46  H    0.187756
    47  H    0.154903
    48  C   -0.264433
    49  H    0.122809
    50  H    0.151378
    51  C   -0.147641
    52  H    0.150434
    53  H    0.132900
    54  N   -0.719442
    55  H    0.298630
    56  H    0.310966
    57  O   -0.624786
    58  H    0.505125
    59  H    0.439470
 Sum of Mulliken charges =   1.00000

 Dipole moment (field-independent basis, Debye):
    X=             -8.7142    Y=             -3.3729    Z=             -7.0767  Tot=             11.7215
 Quadrupole moment (field-independent basis, Debye-Ang):
   XX=           -103.8491   YY=           -151.7609   ZZ=           -120.5465
   XY=              5.4524   XZ=             23.9293   YZ=             -1.6382

 Normal termination of Gaussian 16 at Wed May 25 20:22:17 2022.
