 Gaussian 16, Revision C.01,
 Gaussian 16:  ES64L-G16RevC.01  3-Jul-2019

 -------------------------------------------------------------------
 # B3LYP/6-31G* guess=read geom=check nosymm integral(ultrafinegrid)
 -------------------------------------------------------------------

 ------------------------------------------------------
 Candidate Structure: Conf:474 Charge calc in gas phase
 ------------------------------------------------------
 Structure from the checkpoint file:  "conf-474.chk"
 Charge =  1 Multiplicity = 1

                          Input orientation:
 ---------------------------------------------------------------------
 Center     Atomic      Atomic             Coordinates (Angstroms)
 Number     Number       Type             X           Y           Z
 ---------------------------------------------------------------------
      1          7           0       -4.089308    0.042918    5.293654
      2          1           0       -3.468566   -0.697573    5.617035
      3          1           0       -4.881436   -0.408635    4.840388
      4          6           0       -3.374959    0.913470    4.370814
      5          1           0       -4.097760    1.615030    3.949411
      6          6           0       -2.666274    0.118786    3.260735
      7          6           0       -2.312426    1.721599    5.161001
      8          1           0       -2.860274    2.239928    5.955192
      9          1           0       -1.642119    1.005226    5.649520
     10          8           0       -1.979180   -0.870452    3.591247
     11          6           0       -1.507256    2.698338    4.328679
     12          6           0       -0.139726    2.493718    4.100513
     13          1           0        0.354922    1.633639    4.546787
     14          6           0       -2.109383    3.841194    3.779203
     15          1           0       -3.161625    4.040256    3.972987
     16          6           0        0.607815    3.403925    3.348022
     17          1           0        1.675178    3.242356    3.220924
     18          6           0       -1.369774    4.746517    3.017128
     19          1           0       -1.851506    5.633186    2.614148
     20          6           0       -0.006703    4.529960    2.798496
     21          1           0        0.573556    5.248130    2.225730
     22          7           0       -2.759409    0.481535    1.952354
     23          6           0       -2.201808   -0.408708    0.901478
     24          1           0       -2.446220   -1.442609    1.172512
     25          6           0       -0.670890   -0.330086    0.850052
     26          6           0       -2.898625    0.029624   -0.406338
     27          1           0       -2.244041    0.685234   -0.984567
     28          1           0       -3.141926   -0.832215   -1.032059
     29          8           0       -0.140533    0.199978   -0.215895
     30          6           0       -4.138175    0.804767    0.069607
     31          1           0       -4.496230    1.514234   -0.680406
     32          1           0       -4.959091    0.120061    0.308291
     33          6           0       -3.650195    1.497640    1.343903
     34          1           0       -4.461488    1.754351    2.023396
     35          1           0       -3.081300    2.409289    1.129793
     36          7           0        0.004233   -0.818985    1.857640
     37          1           0       -0.632632   -1.074287    2.652552
     38          6           0        1.462243   -1.031507    2.042591
     39          1           0        1.556838   -1.380747    3.072140
     40          6           0        2.262632    0.273446    1.999540
     41          6           0        2.035149   -2.099822    1.084858
     42          1           0        3.119875   -2.127271    1.250450
     43          1           0        1.890634   -1.782467    0.046281
     44          8           0        2.873062    0.748451    2.914578
     45          6           0        1.448165   -3.500504    1.322881
     46          1           0        1.566341   -3.754375    2.384575
     47          1           0        0.367169   -3.491690    1.124321
     48          6           0        2.118920   -4.591776    0.473041
     49          1           0        1.765994   -5.567514    0.832739
     50          1           0        3.204412   -4.582489    0.630634
     51          6           0        1.842621   -4.497028   -1.032532
     52          1           0        0.746221   -4.489618   -1.195601
     53          1           0        2.221186   -3.544177   -1.425882
     54          7           0        2.554998   -5.563118   -1.732527
     55          1           0        2.450461   -5.461488   -2.739862
     56          1           0        2.157089   -6.469906   -1.492379
     57          8           0        2.244622    0.832974    0.744859
     58          1           0        0.825230    0.406182   -0.102196
     59          1           0        2.766518    1.660501    0.758811
 ---------------------------------------------------------------------

 SCF Done:  E(RB3LYP) =  -1300.50161622     A.U. after    3 cycles

 Alpha  occ. eigenvalues --  -19.37446 -19.36570 -19.29886 -19.25854 -14.55021
 Alpha  occ. eigenvalues --  -14.51208 -14.41796 -14.39094 -10.49441 -10.47968
 Alpha  occ. eigenvalues --  -10.42024 -10.40287 -10.39400 -10.35256 -10.33780
 Alpha  occ. eigenvalues --  -10.32999 -10.32565 -10.31633 -10.30268 -10.29753
 Alpha  occ. eigenvalues --  -10.29320 -10.28875 -10.28470 -10.28409 -10.28385
 Alpha  occ. eigenvalues --  -10.28332 -10.28245 -10.27697  -1.28017  -1.26174
 Alpha  occ. eigenvalues --   -1.17860  -1.17649  -1.12262  -1.08279  -0.99537
 Alpha  occ. eigenvalues --   -0.96466  -0.95837  -0.94876  -0.93083  -0.90350
 Alpha  occ. eigenvalues --   -0.87977  -0.87529  -0.83758  -0.82409  -0.81918
 Alpha  occ. eigenvalues --   -0.81087  -0.78748  -0.78613  -0.74675  -0.74197
 Alpha  occ. eigenvalues --   -0.73311  -0.72352  -0.70233  -0.69819  -0.68713
 Alpha  occ. eigenvalues --   -0.67464  -0.67168  -0.65316  -0.64438  -0.63152
 Alpha  occ. eigenvalues --   -0.62733  -0.61330  -0.61053  -0.59981  -0.59322
 Alpha  occ. eigenvalues --   -0.58808  -0.58154  -0.57685  -0.57268  -0.56016
 Alpha  occ. eigenvalues --   -0.55644  -0.55518  -0.55210  -0.54840  -0.54715
 Alpha  occ. eigenvalues --   -0.54260  -0.53993  -0.53446  -0.51693  -0.51417
 Alpha  occ. eigenvalues --   -0.51117  -0.50812  -0.49883  -0.49285  -0.48777
 Alpha  occ. eigenvalues --   -0.48406  -0.48189  -0.47981  -0.47856  -0.47194
 Alpha  occ. eigenvalues --   -0.46816  -0.45888  -0.45143  -0.44554  -0.43682
 Alpha  occ. eigenvalues --   -0.43319  -0.43154  -0.42513  -0.41881  -0.39985
 Alpha  occ. eigenvalues --   -0.38942  -0.34509  -0.34395  -0.33650  -0.31338
 Alpha virt. eigenvalues --   -0.18843  -0.15251  -0.12225  -0.10062  -0.09614
 Alpha virt. eigenvalues --   -0.08462  -0.05025  -0.03405  -0.02846  -0.01371
 Alpha virt. eigenvalues --   -0.01189  -0.00713   0.00009   0.00155   0.00734

 Mulliken charges:
               1
     1  N   -0.686888
     2  H    0.324410
     3  H    0.311476
     4  C   -0.065464
     5  H    0.152372
     6  C    0.621787
     7  C   -0.350538
     8  H    0.195825
     9  H    0.163874
    10  O   -0.581368
    11  C    0.162714
    12  C   -0.209224
    13  H    0.135128
    14  C   -0.194452
    15  H    0.139970
    16  C   -0.148609
    17  H    0.141116
    18  C   -0.132127
    19  H    0.151972
    20  C   -0.132923
    21  H    0.146392
    22  N   -0.447530
    23  C   -0.066970
    24  H    0.216285
    25  C    0.621154
    26  C   -0.319683
    27  H    0.196759
    28  H    0.191139
    29  O   -0.556395
    30  C   -0.298508
    31  H    0.188695
    32  H    0.175635
    33  C   -0.147109
    34  H    0.191588
    35  H    0.190576
    36  N   -0.571625
    37  H    0.442065
    38  C   -0.094490
    39  H    0.226923
    40  C    0.625119
    41  C   -0.280248
    42  H    0.191359
    43  H    0.159923
    44  O   -0.396570
    45  C   -0.275762
    46  H    0.158168
    47  H    0.134955
    48  C   -0.256385
    49  H    0.152257
    50  H    0.166187
    51  C   -0.132785
    52  H    0.108875
    53  H    0.133565
    54  N   -0.711722
    55  H    0.308861
    56  H    0.304575
    57  O   -0.613260
    58  H    0.484221
    59  H    0.454715
 Sum of Mulliken charges =   1.00000

 Dipole moment (field-independent basis, Debye):
    X=             -4.6154    Y=             -0.4500    Z=              3.6457  Tot=              5.8988
 Quadrupole moment (field-independent basis, Debye-Ang):
   XX=           -129.4470   YY=           -131.5887   ZZ=           -156.2711
   XY=             -2.8095   XZ=             -8.0533   YZ=              1.2834

 Normal termination of Gaussian 16 at Wed May 25 20:18:39 2022.
