 Gaussian 16, Revision C.01,
 Gaussian 16:  ES64L-G16RevC.01  3-Jul-2019

 -------------------------------------------------------------------
 # B3LYP/6-31G* guess=read geom=check nosymm integral(ultrafinegrid)
 -------------------------------------------------------------------

 ------------------------------------------------------
 Candidate Structure: Conf:497 Charge calc in gas phase
 ------------------------------------------------------
 Structure from the checkpoint file:  "conf-497.chk"
 Charge =  1 Multiplicity = 1

                          Input orientation:
 ---------------------------------------------------------------------
 Center     Atomic      Atomic             Coordinates (Angstroms)
 Number     Number       Type             X           Y           Z
 ---------------------------------------------------------------------
      1          7           0       -3.284943   -2.051006    3.969784
      2          1           0       -3.574151   -2.155008    4.938736
      3          1           0       -2.380826   -2.496690    3.841741
      4          6           0       -3.234218   -0.651892    3.593971
      5          1           0       -4.269208   -0.288364    3.567833
      6          6           0       -2.640009   -0.575607    2.187035
      7          6           0       -2.459901    0.320005    4.558054
      8          1           0       -2.722653    1.354353    4.305443
      9          1           0       -2.871656    0.139807    5.558894
     10          8           0       -1.950977   -1.511529    1.751601
     11          6           0       -0.953247    0.181463    4.580979
     12          6           0       -0.326188   -0.896142    5.225873
     13          1           0       -0.930045   -1.645178    5.730840
     14          6           0       -0.142489    1.153961    3.976267
     15          1           0       -0.607135    2.018212    3.505498
     16          6           0        1.065346   -1.002897    5.257973
     17          1           0        1.529486   -1.838038    5.774878
     18          6           0        1.251147    1.058799    4.017279
     19          1           0        1.860332    1.850112    3.586210
     20          6           0        1.860115   -0.024621    4.655530
     21          1           0        2.943050   -0.092831    4.707323
     22          7           0       -2.808620    0.560908    1.446691
     23          6           0       -2.338696    0.577183    0.040752
     24          1           0       -2.590517   -0.388458   -0.415072
     25          6           0       -0.813319    0.701344   -0.046375
     26          6           0       -3.110210    1.737773   -0.623017
     27          1           0       -2.504958    2.647516   -0.621752
     28          1           0       -3.360847    1.505307   -1.660695
     29          8           0       -0.330279    1.840926   -0.454046
     30          6           0       -4.342828    1.918316    0.276663
     31          1           0       -4.782352    2.914598    0.185842
     32          1           0       -5.115536    1.181183    0.033381
     33          6           0       -3.787431    1.648403    1.677786
     34          1           0       -4.552030    1.332234    2.387489
     35          1           0       -3.280464    2.530899    2.086435
     36          7           0       -0.088522   -0.338635    0.272468
     37          1           0       -0.676832   -1.093795    0.685280
     38          6           0        1.371093   -0.458624    0.527235
     39          1           0        1.649607    0.372653    1.191648
     40          6           0        2.228479   -0.300864   -0.736928
     41          6           0        1.650150   -1.784643    1.253124
     42          1           0        1.161521   -1.728916    2.232377
     43          1           0        2.728379   -1.813405    1.441685
     44          8           0        3.113052   -1.023666   -1.093763
     45          6           0        1.224192   -3.063517    0.514191
     46          1           0        0.137431   -3.070066    0.348092
     47          1           0        1.700048   -3.095802   -0.472580
     48          6           0        1.608792   -4.320431    1.306927
     49          1           0        1.126173   -4.290330    2.295239
     50          1           0        2.690324   -4.338024    1.488134
     51          6           0        1.221215   -5.620486    0.595164
     52          1           0        0.137530   -5.604267    0.370821
     53          1           0        1.738188   -5.665364   -0.371758
     54          7           0        1.656585   -6.773974    1.384197
     55          1           0        1.544119   -7.630198    0.845111
     56          1           0        1.064528   -6.878386    2.207090
     57          8           0        1.917561    0.863907   -1.398205
     58          1           0        0.622917    1.765100   -0.721110
     59          1           0        2.510555    0.958526   -2.170715
 ---------------------------------------------------------------------

 SCF Done:  E(RB3LYP) =  -1300.50059620     A.U. after    1 cycles

 Alpha  occ. eigenvalues --  -19.37270 -19.36077 -19.29467 -19.25851 -14.54816
 Alpha  occ. eigenvalues --  -14.50907 -14.41352 -14.37768 -10.49182 -10.47531
 Alpha  occ. eigenvalues --  -10.42274 -10.39901 -10.39266 -10.35461 -10.34195
 Alpha  occ. eigenvalues --  -10.32506 -10.31601 -10.30996 -10.30140 -10.30079
 Alpha  occ. eigenvalues --  -10.29387 -10.29320 -10.28963 -10.28944 -10.28862
 Alpha  occ. eigenvalues --  -10.28505 -10.27998 -10.26315  -1.27832  -1.25790
 Alpha  occ. eigenvalues --   -1.17783  -1.17406  -1.12136  -1.08289  -0.99495
 Alpha  occ. eigenvalues --   -0.95570  -0.95439  -0.94670  -0.92984  -0.89842
 Alpha  occ. eigenvalues --   -0.87955  -0.87068  -0.84466  -0.82801  -0.81953
 Alpha  occ. eigenvalues --   -0.81012  -0.78591  -0.76843  -0.74756  -0.74183
 Alpha  occ. eigenvalues --   -0.73030  -0.71283  -0.70568  -0.69667  -0.68522
 Alpha  occ. eigenvalues --   -0.67165  -0.66902  -0.65457  -0.64485  -0.64208
 Alpha  occ. eigenvalues --   -0.63063  -0.60669  -0.60004  -0.59625  -0.59202
 Alpha  occ. eigenvalues --   -0.57911  -0.57264  -0.56946  -0.56812  -0.56410
 Alpha  occ. eigenvalues --   -0.55884  -0.55724  -0.55300  -0.55213  -0.54179
 Alpha  occ. eigenvalues --   -0.53168  -0.53132  -0.52503  -0.51997  -0.51783
 Alpha  occ. eigenvalues --   -0.51259  -0.50062  -0.49763  -0.48914  -0.48880
 Alpha  occ. eigenvalues --   -0.48209  -0.48135  -0.47842  -0.47648  -0.47007
 Alpha  occ. eigenvalues --   -0.46702  -0.45889  -0.44782  -0.44142  -0.43890
 Alpha  occ. eigenvalues --   -0.43350  -0.42318  -0.42074  -0.41111  -0.39428
 Alpha  occ. eigenvalues --   -0.38844  -0.35332  -0.34953  -0.32987  -0.30022
 Alpha virt. eigenvalues --   -0.18668  -0.14770  -0.11783  -0.10706  -0.10310
 Alpha virt. eigenvalues --   -0.07634  -0.04860  -0.03232  -0.02897  -0.01837
 Alpha virt. eigenvalues --   -0.01000  -0.00251   0.00086   0.00399   0.00958

 Mulliken charges:
               1
     1  N   -0.703654
     2  H    0.314877
     3  H    0.324277
     4  C   -0.074615
     5  H    0.168844
     6  C    0.660080
     7  C   -0.382014
     8  H    0.153221
     9  H    0.178267
    10  O   -0.563200
    11  C    0.181839
    12  C   -0.185637
    13  H    0.136468
    14  C   -0.203317
    15  H    0.124404
    16  C   -0.130118
    17  H    0.158528
    18  C   -0.145960
    19  H    0.140048
    20  C   -0.135508
    21  H    0.154229
    22  N   -0.455732
    23  C   -0.068482
    24  H    0.218157
    25  C    0.629001
    26  C   -0.318415
    27  H    0.195025
    28  H    0.192138
    29  O   -0.553639
    30  C   -0.300153
    31  H    0.189069
    32  H    0.180652
    33  C   -0.149030
    34  H    0.194457
    35  H    0.180110
    36  N   -0.584617
    37  H    0.452961
    38  C   -0.094211
    39  H    0.218833
    40  C    0.640808
    41  C   -0.314177
    42  H    0.187693
    43  H    0.188704
    44  O   -0.385640
    45  C   -0.294459
    46  H    0.145284
    47  H    0.166901
    48  C   -0.248034
    49  H    0.131169
    50  H    0.163457
    51  C   -0.139004
    52  H    0.116202
    53  H    0.147139
    54  N   -0.714008
    55  H    0.308688
    56  H    0.297010
    57  O   -0.629545
    58  H    0.479693
    59  H    0.454938
 Sum of Mulliken charges =   1.00000

 Dipole moment (field-independent basis, Debye):
    X=             -4.6730    Y=              2.8409    Z=              4.2208  Tot=              6.9081
 Quadrupole moment (field-independent basis, Debye-Ang):
   XX=           -133.1871   YY=           -142.9693   ZZ=           -126.6916
   XY=             -2.8561   XZ=            -14.0464   YZ=             -7.6310

 Normal termination of Gaussian 16 at Wed May 25 20:22:05 2022.
