 Gaussian 16, Revision C.01,
 Gaussian 16:  ES64L-G16RevC.01  3-Jul-2019

 -------------------------------------------------------------------
 # B3LYP/6-31G* guess=read geom=check nosymm integral(ultrafinegrid)
 -------------------------------------------------------------------

 ------------------------------------------------------
 Candidate Structure: Conf:549 Charge calc in gas phase
 ------------------------------------------------------
 Structure from the checkpoint file:  "conf-549.chk"
 Charge =  1 Multiplicity = 1

                          Input orientation:
 ---------------------------------------------------------------------
 Center     Atomic      Atomic             Coordinates (Angstroms)
 Number     Number       Type             X           Y           Z
 ---------------------------------------------------------------------
      1          7           0       -3.699493    4.539502   -0.278014
      2          1           0       -4.341352    4.344868    0.487368
      3          1           0       -3.978473    5.424343   -0.696433
      4          6           0       -3.752671    3.496476   -1.291396
      5          1           0       -4.748013    3.349443   -1.745911
      6          6           0       -3.308510    2.184313   -0.653690
      7          6           0       -2.743154    3.854697   -2.429519
      8          1           0       -1.752032    3.920456   -1.968202
      9          1           0       -2.705950    3.036772   -3.158219
     10          8           0       -2.623838    2.140520    0.379057
     11          6           0       -3.098356    5.148112   -3.131799
     12          6           0       -4.045727    5.161547   -4.165632
     13          1           0       -4.508662    4.229684   -4.485994
     14          6           0       -2.504139    6.359285   -2.750594
     15          1           0       -1.761993    6.363973   -1.956125
     16          6           0       -4.392889    6.353108   -4.801366
     17          1           0       -5.123514    6.343934   -5.605264
     18          6           0       -2.850072    7.554209   -3.385025
     19          1           0       -2.375622    8.482941   -3.080938
     20          6           0       -3.795621    7.553909   -4.411051
     21          1           0       -4.061846    8.481992   -4.908413
     22          7           0       -3.590540    0.998691   -1.266174
     23          6           0       -2.981385   -0.192547   -0.673399
     24          1           0       -3.390757   -0.396666    0.322526
     25          6           0       -1.502517    0.043996   -0.494727
     26          6           0       -3.307305   -1.331563   -1.683342
     27          1           0       -2.483970   -2.041146   -1.802104
     28          1           0       -4.166470   -1.887810   -1.296556
     29          8           0       -0.789100    0.460648   -1.515508
     30          6           0       -3.666299   -0.596808   -2.988231
     31          1           0       -2.760657   -0.356777   -3.554300
     32          1           0       -4.321869   -1.190654   -3.629760
     33          6           0       -4.334985    0.695510   -2.502432
     34          1           0       -5.397441    0.542011   -2.275045
     35          1           0       -4.249347    1.512454   -3.219194
     36          7           0       -0.780773   -0.231948    0.562412
     37          1           0       -1.196522   -0.423303    1.467161
     38          6           0        0.630654    0.149953    0.380984
     39          1           0        0.810738    1.067098    0.956218
     40          6           0        0.616055    0.569534   -1.079578
     41          6           0        1.654330   -0.948664    0.708139
     42          1           0        1.609045   -1.129791    1.788029
     43          1           0        2.640622   -0.511932    0.509563
     44          8           0        1.458181    0.877302   -1.841527
     45          6           0        1.484424   -2.253987   -0.083297
     46          1           0        0.486929   -2.676548    0.107094
     47          1           0        1.533354   -2.030106   -1.157659
     48          6           0        2.549555   -3.314245    0.251666
     49          1           0        3.551668   -2.885635    0.107275
     50          1           0        2.459445   -4.132588   -0.474852
     51          6           0        2.441054   -3.907597    1.671074
     52          1           0        2.569900   -3.119040    2.424017
     53          1           0        1.426788   -4.306502    1.815015
     54          7           0        3.385789   -4.970134    1.996435
     55          1           0        4.344294   -4.633349    1.923904
     56          1           0        3.298175   -5.741783    1.337185
     57          8           0       -0.067646    3.039188    0.164906
     58          1           0       -1.003893    3.179290    0.406492
     59          1           0        0.331931    3.920645    0.127491
 ---------------------------------------------------------------------

 SCF Done:  E(RB3LYP) =  -1300.48566646     A.U. after    1 cycles

 Alpha  occ. eigenvalues --  -19.38236 -19.31409 -19.25523 -19.24281 -14.56659
 Alpha  occ. eigenvalues --  -14.50724 -14.41576 -14.38773 -10.49908 -10.48435
 Alpha  occ. eigenvalues --  -10.41870 -10.40123 -10.40096 -10.35592 -10.33981
 Alpha  occ. eigenvalues --  -10.33940 -10.32746 -10.32151 -10.30384 -10.29496
 Alpha  occ. eigenvalues --  -10.29328 -10.28229 -10.27820 -10.27161 -10.26968
 Alpha  occ. eigenvalues --  -10.26797 -10.26717 -10.26552  -1.30426  -1.22026
 Alpha  occ. eigenvalues --   -1.17760  -1.13002  -1.09885  -1.08448  -0.99609
 Alpha  occ. eigenvalues --   -0.96557  -0.95798  -0.93469  -0.93236  -0.91049
 Alpha  occ. eigenvalues --   -0.87707  -0.86744  -0.82674  -0.82346  -0.82152
 Alpha  occ. eigenvalues --   -0.80979  -0.78365  -0.77906  -0.74641  -0.74423
 Alpha  occ. eigenvalues --   -0.73266  -0.70340  -0.68541  -0.68500  -0.67547
 Alpha  occ. eigenvalues --   -0.66608  -0.66248  -0.64906  -0.62982  -0.62386
 Alpha  occ. eigenvalues --   -0.61663  -0.60499  -0.59931  -0.59159  -0.58796
 Alpha  occ. eigenvalues --   -0.58434  -0.58211  -0.57873  -0.57155  -0.56571
 Alpha  occ. eigenvalues --   -0.56296  -0.55563  -0.54243  -0.54149  -0.53900
 Alpha  occ. eigenvalues --   -0.52685  -0.52408  -0.51425  -0.51064  -0.50577
 Alpha  occ. eigenvalues --   -0.49934  -0.49820  -0.49523  -0.49014  -0.48603
 Alpha  occ. eigenvalues --   -0.48152  -0.47807  -0.47445  -0.47015  -0.46815
 Alpha  occ. eigenvalues --   -0.46723  -0.45144  -0.44316  -0.43700  -0.43536
 Alpha  occ. eigenvalues --   -0.42322  -0.42230  -0.41931  -0.40077  -0.38865
 Alpha  occ. eigenvalues --   -0.38606  -0.34338  -0.32914  -0.32335  -0.30820
 Alpha virt. eigenvalues --   -0.19715  -0.14545  -0.12039  -0.08172  -0.08100
 Alpha virt. eigenvalues --   -0.07575  -0.05240  -0.03327  -0.02967  -0.02864
 Alpha virt. eigenvalues --   -0.02244  -0.00682  -0.00072   0.00043   0.00681

 Mulliken charges:
               1
     1  N   -0.725256
     2  H    0.316269
     3  H    0.329999
     4  C   -0.065356
     5  H    0.145759
     6  C    0.637888
     7  C   -0.365483
     8  H    0.167973
     9  H    0.152830
    10  O   -0.552640
    11  C    0.154789
    12  C   -0.181299
    13  H    0.118837
    14  C   -0.184556
    15  H    0.134954
    16  C   -0.125520
    17  H    0.148811
    18  C   -0.126528
    19  H    0.150222
    20  C   -0.126110
    21  H    0.152674
    22  N   -0.450448
    23  C   -0.035532
    24  H    0.194514
    25  C    0.725042
    26  C   -0.326954
    27  H    0.186245
    28  H    0.196601
    29  O   -0.453115
    30  C   -0.296269
    31  H    0.186801
    32  H    0.192129
    33  C   -0.146333
    34  H    0.187117
    35  H    0.192803
    36  N   -0.596927
    37  H    0.393123
    38  C   -0.065096
    39  H    0.278004
    40  C    0.650556
    41  C   -0.280953
    42  H    0.178995
    43  H    0.199203
    44  O   -0.356464
    45  C   -0.290771
    46  H    0.131524
    47  H    0.157450
    48  C   -0.270157
    49  H    0.145151
    50  H    0.148168
    51  C   -0.142285
    52  H    0.142298
    53  H    0.140311
    54  N   -0.697127
    55  H    0.303703
    56  H    0.303063
    57  O   -0.830503
    58  H    0.436228
    59  H    0.411647
 Sum of Mulliken charges =   1.00000

 Dipole moment (field-independent basis, Debye):
    X=             -9.8482    Y=              2.4781    Z=             -4.0373  Tot=             10.9283
 Quadrupole moment (field-independent basis, Debye-Ang):
   XX=           -104.8788   YY=           -115.3813   ZZ=           -150.3043
   XY=            -22.6889   XZ=             25.6374   YZ=             -6.7448

 Normal termination of Gaussian 16 at Wed May 25 20:21:56 2022.
