 Gaussian 16, Revision C.01,
 Gaussian 16:  ES64L-G16RevC.01  3-Jul-2019

 -------------------------------------------------------------------
 # B3LYP/6-31G* guess=read geom=check nosymm integral(ultrafinegrid)
 -------------------------------------------------------------------

 ------------------------------------------------------
 Candidate Structure: Conf:608 Charge calc in gas phase
 ------------------------------------------------------
 Structure from the checkpoint file:  "conf-608.chk"
 Charge =  1 Multiplicity = 1

                          Input orientation:
 ---------------------------------------------------------------------
 Center     Atomic      Atomic             Coordinates (Angstroms)
 Number     Number       Type             X           Y           Z
 ---------------------------------------------------------------------
      1          7           0       -2.579238    3.754672    3.538498
      2          1           0       -3.417338    4.309755    3.364472
      3          1           0       -1.805070    4.334298    3.216369
      4          6           0       -2.661590    2.547901    2.732907
      5          1           0       -1.729364    1.986332    2.895336
      6          6           0       -2.818189    2.851118    1.226562
      7          6           0       -3.826338    1.650339    3.254257
      8          1           0       -3.850920    0.711751    2.683730
      9          1           0       -3.570568    1.394663    4.287975
     10          8           0       -3.324831    3.888778    0.835301
     11          6           0       -5.196677    2.294678    3.210601
     12          6           0       -5.648967    3.074363    4.285014
     13          1           0       -5.010574    3.206542    5.154747
     14          6           0       -6.039358    2.123592    2.104393
     15          1           0       -5.711772    1.509847    1.267288
     16          6           0       -6.907726    3.676008    4.247449
     17          1           0       -7.243803    4.274671    5.089422
     18          6           0       -7.298602    2.721434    2.065225
     19          1           0       -7.940035    2.574940    1.200692
     20          6           0       -7.735262    3.501723    3.137233
     21          1           0       -8.717156    3.965375    3.109872
     22          7           0       -2.378145    1.913319    0.300956
     23          6           0       -1.771721    0.624178    0.572632
     24          1           0       -2.280164    0.077690    1.374651
     25          6           0       -0.320772    0.736786    0.964537
     26          6           0       -1.881527   -0.138885   -0.785438
     27          1           0       -1.074663   -0.862711   -0.930276
     28          1           0       -2.835868   -0.674736   -0.774428
     29          8           0        0.498286    1.514796    0.304020
     30          6           0       -1.885250    0.988637   -1.830707
     31          1           0       -0.859485    1.277452   -2.080708
     32          1           0       -2.378644    0.680007   -2.755895
     33          6           0       -2.615409    2.146881   -1.142004
     34          1           0       -3.693933    2.139082   -1.335254
     35          1           0       -2.237903    3.131259   -1.426125
     36          7           0        0.267388    0.074029    1.931175
     37          1           0       -0.216213   -0.590192    2.525426
     38          6           0        1.718876    0.302726    1.967092
     39          1           0        1.972002    0.887306    2.862270
     40          6           0        1.867678    1.249626    0.776834
     41          6           0        2.525798   -1.010744    1.939525
     42          1           0        2.102869   -1.642609    1.160292
     43          1           0        2.357347   -1.511189    2.902167
     44          8           0        2.780178    1.841033    0.322750
     45          6           0        4.036057   -0.812900    1.721222
     46          1           0        4.209865   -0.105998    0.903672
     47          1           0        4.467605   -0.356898    2.620332
     48          6           0        4.771050   -2.133696    1.407406
     49          1           0        4.319169   -2.965950    1.966979
     50          1           0        5.800815   -2.057791    1.774613
     51          6           0        4.864831   -2.494353   -0.080330
     52          1           0        5.330034   -1.664375   -0.624458
     53          1           0        5.532134   -3.361253   -0.187383
     54          7           0        3.546883   -2.748846   -0.716361
     55          1           0        3.121815   -3.571719   -0.284749
     56          1           0        3.705499   -3.018274   -1.688601
     57          8           0        1.573267   -0.741478   -0.914282
     58          1           0        2.292876   -1.437459   -0.888288
     59          1           0        1.722959   -0.255993   -1.740245
 ---------------------------------------------------------------------

 SCF Done:  E(RB3LYP) =  -1300.48127483     A.U. after    1 cycles

 Alpha  occ. eigenvalues --  -19.38823 -19.32039 -19.25430 -19.21590 -14.58015
 Alpha  occ. eigenvalues --  -14.48020 -14.45622 -14.39975 -10.50137 -10.49575
 Alpha  occ. eigenvalues --  -10.41994 -10.39759 -10.38370 -10.33728 -10.32808
 Alpha  occ. eigenvalues --  -10.32701 -10.32634 -10.32456 -10.30910 -10.30531
 Alpha  occ. eigenvalues --  -10.30149 -10.28637 -10.26834 -10.25838 -10.25464
 Alpha  occ. eigenvalues --  -10.25458 -10.25327 -10.25232  -1.31214  -1.22748
 Alpha  occ. eigenvalues --   -1.14143  -1.13943  -1.10795  -1.06595  -1.01123
 Alpha  occ. eigenvalues --   -0.98006  -0.96926  -0.92179  -0.92093  -0.90562
 Alpha  occ. eigenvalues --   -0.87997  -0.85528  -0.83956  -0.82390  -0.80923
 Alpha  occ. eigenvalues --   -0.80206  -0.79632  -0.76885  -0.75164  -0.73925
 Alpha  occ. eigenvalues --   -0.70991  -0.70645  -0.69873  -0.68205  -0.67220
 Alpha  occ. eigenvalues --   -0.66941  -0.65113  -0.65020  -0.63771  -0.62253
 Alpha  occ. eigenvalues --   -0.61599  -0.61075  -0.60451  -0.59708  -0.58494
 Alpha  occ. eigenvalues --   -0.58302  -0.57729  -0.57373  -0.56770  -0.56612
 Alpha  occ. eigenvalues --   -0.55705  -0.55236  -0.54388  -0.54192  -0.53124
 Alpha  occ. eigenvalues --   -0.52870  -0.52120  -0.51458  -0.51104  -0.49744
 Alpha  occ. eigenvalues --   -0.49610  -0.49344  -0.49270  -0.48655  -0.48411
 Alpha  occ. eigenvalues --   -0.48095  -0.47142  -0.46871  -0.46465  -0.46046
 Alpha  occ. eigenvalues --   -0.45875  -0.45692  -0.45010  -0.44553  -0.43968
 Alpha  occ. eigenvalues --   -0.42174  -0.41364  -0.40620  -0.40600  -0.38046
 Alpha  occ. eigenvalues --   -0.35878  -0.35388  -0.32987  -0.31467  -0.30939
 Alpha virt. eigenvalues --   -0.20526  -0.15129  -0.09852  -0.08482  -0.06968
 Alpha virt. eigenvalues --   -0.06558  -0.06096  -0.05280  -0.03952  -0.03336
 Alpha virt. eigenvalues --   -0.02678  -0.00331   0.00064   0.00460   0.01201

 Mulliken charges:
               1
     1  N   -0.692883
     2  H    0.335773
     3  H    0.306170
     4  C   -0.070119
     5  H    0.090674
     6  C    0.591890
     7  C   -0.358788
     8  H    0.133165
     9  H    0.174429
    10  O   -0.476540
    11  C    0.160716
    12  C   -0.188946
    13  H    0.146883
    14  C   -0.168393
    15  H    0.106642
    16  C   -0.125808
    17  H    0.146844
    18  C   -0.124914
    19  H    0.141222
    20  C   -0.125433
    21  H    0.147296
    22  N   -0.455944
    23  C   -0.101620
    24  H    0.181200
    25  C    0.750221
    26  C   -0.317526
    27  H    0.198950
    28  H    0.192624
    29  O   -0.441856
    30  C   -0.313641
    31  H    0.169222
    32  H    0.187406
    33  C   -0.112020
    34  H    0.185570
    35  H    0.197859
    36  N   -0.606573
    37  H    0.390865
    38  C   -0.041632
    39  H    0.245028
    40  C    0.652176
    41  C   -0.280458
    42  H    0.187039
    43  H    0.167899
    44  O   -0.362171
    45  C   -0.283713
    46  H    0.181008
    47  H    0.164000
    48  C   -0.281436
    49  H    0.145676
    50  H    0.176395
    51  C   -0.145330
    52  H    0.168406
    53  H    0.162005
    54  N   -0.769473
    55  H    0.323960
    56  H    0.336488
    57  O   -0.856257
    58  H    0.454950
    59  H    0.400822
 Sum of Mulliken charges =   1.00000

 Dipole moment (field-independent basis, Debye):
    X=              3.9408    Y=             -4.9491    Z=              4.1394  Tot=              7.5603
 Quadrupole moment (field-independent basis, Debye-Ang):
   XX=           -111.6001   YY=           -153.1016   ZZ=           -137.3112
   XY=            -22.8165   XZ=              0.4334   YZ=              4.2112

 Normal termination of Gaussian 16 at Wed May 25 20:21:56 2022.
