 Gaussian 16, Revision C.01,
 Gaussian 16:  ES64L-G16RevC.01  3-Jul-2019

 -------------------------------------------------------------------
 # B3LYP/6-31G* guess=read geom=check nosymm integral(ultrafinegrid)
 -------------------------------------------------------------------

 ------------------------------------------------------
 Candidate Structure: Conf:102 Charge calc in gas phase
 ------------------------------------------------------
 Structure from the checkpoint file:  "conf-102.chk"
 Charge =  1 Multiplicity = 1

                          Input orientation:
 ---------------------------------------------------------------------
 Center     Atomic      Atomic             Coordinates (Angstroms)
 Number     Number       Type             X           Y           Z
 ---------------------------------------------------------------------
      1          7           0       -5.146842    3.169989    0.309243
      2          1           0       -5.620498    4.070841    0.360440
      3          1           0       -5.626586    2.560832    0.972441
      4          6           0       -3.746881    3.339123    0.723117
      5          1           0       -3.319239    4.106287    0.065310
      6          6           0       -3.045893    2.010737    0.416014
      7          6           0       -3.517900    3.776000    2.188875
      8          1           0       -3.916044    3.000590    2.852177
      9          1           0       -2.438200    3.822037    2.380178
     10          8           0       -2.711502    1.225957    1.322858
     11          6           0       -4.157760    5.116694    2.480994
     12          6           0       -3.506582    6.308718    2.131158
     13          1           0       -2.514627    6.267503    1.684164
     14          6           0       -5.426001    5.198167    3.072285
     15          1           0       -5.938837    4.286135    3.370381
     16          6           0       -4.105099    7.546938    2.363052
     17          1           0       -3.581762    8.459823    2.092381
     18          6           0       -6.028884    6.435925    3.306580
     19          1           0       -7.008702    6.478851    3.773895
     20          6           0       -5.370459    7.613408    2.950643
     21          1           0       -5.835772    8.577026    3.136713
     22          7           0       -2.825190    1.688569   -0.888865
     23          6           0       -2.553840    0.283797   -1.252590
     24          1           0       -3.125145   -0.372599   -0.584016
     25          6           0       -1.086462   -0.087188   -1.022516
     26          6           0       -3.026316    0.181362   -2.713748
     27          1           0       -2.490280   -0.579371   -3.282755
     28          1           0       -4.086902   -0.088407   -2.703805
     29          8           0       -0.397332   -0.473096   -2.061093
     30          6           0       -2.840369    1.605820   -3.258570
     31          1           0       -1.795525    1.772107   -3.544634
     32          1           0       -3.461776    1.803876   -4.134977
     33          6           0       -3.225861    2.495396   -2.071163
     34          1           0       -4.301038    2.689154   -2.016375
     35          1           0       -2.696261    3.452172   -2.073198
     36          7           0       -0.605815   -0.026160    0.192577
     37          1           0       -1.310685    0.316254    0.886605
     38          6           0        0.802939   -0.203889    0.632949
     39          1           0        1.437128    0.353086   -0.067643
     40          6           0        1.200270   -1.686330    0.534129
     41          6           0        0.985775    0.324671    2.060921
     42          1           0        2.000579    0.046706    2.367026
     43          1           0        0.311108   -0.230425    2.723449
     44          8           0        1.370208   -2.451239    1.437914
     45          6           0        0.792655    1.838769    2.229570
     46          1           0       -0.240970    2.121120    1.987636
     47          1           0        0.924402    2.073019    3.290646
     48          6           0        1.775584    2.708730    1.433495
     49          1           0        1.570879    2.661743    0.353411
     50          1           0        2.798792    2.326641    1.570224
     51          6           0        1.739859    4.183384    1.865903
     52          1           0        2.366002    4.771716    1.173260
     53          1           0        0.715082    4.563462    1.759237
     54          7           0        2.116067    4.314627    3.275291
     55          1           0        1.899011    5.248928    3.615276
     56          1           0        3.123255    4.200664    3.380937
     57          8           0        1.356850   -2.035960   -0.787335
     58          1           0        0.436330   -0.951714   -1.814250
     59          1           0        1.592111   -2.984330   -0.842273
 ---------------------------------------------------------------------

 SCF Done:  E(RB3LYP) =  -1300.50868461     A.U. after    3 cycles

 Alpha  occ. eigenvalues --  -19.37445 -19.35907 -19.29460 -19.25649 -14.55019
 Alpha  occ. eigenvalues --  -14.50126 -14.42461 -14.39547 -10.49135 -10.47359
 Alpha  occ. eigenvalues --  -10.41718 -10.39840 -10.38923 -10.33913 -10.33511
 Alpha  occ. eigenvalues --  -10.32065 -10.31286 -10.31026 -10.29805 -10.28373
 Alpha  occ. eigenvalues --  -10.28225 -10.28020 -10.27617 -10.26645 -10.26545
 Alpha  occ. eigenvalues --  -10.26392 -10.26307 -10.26123  -1.27850  -1.25620
 Alpha  occ. eigenvalues --   -1.17395  -1.17266  -1.12149  -1.07672  -0.99857
 Alpha  occ. eigenvalues --   -0.96580  -0.95354  -0.93021  -0.92494  -0.89367
 Alpha  occ. eigenvalues --   -0.87165  -0.86189  -0.82080  -0.81849  -0.81693
 Alpha  occ. eigenvalues --   -0.81345  -0.77803  -0.77049  -0.73994  -0.73825
 Alpha  occ. eigenvalues --   -0.73292  -0.71537  -0.69129  -0.68050  -0.67872
 Alpha  occ. eigenvalues --   -0.66311  -0.65791  -0.65625  -0.64053  -0.63820
 Alpha  occ. eigenvalues --   -0.62588  -0.60621  -0.58914  -0.58706  -0.58414
 Alpha  occ. eigenvalues --   -0.58321  -0.57548  -0.56840  -0.56819  -0.56201
 Alpha  occ. eigenvalues --   -0.55456  -0.54951  -0.54458  -0.54042  -0.53430
 Alpha  occ. eigenvalues --   -0.52947  -0.52389  -0.51963  -0.51905  -0.51210
 Alpha  occ. eigenvalues --   -0.50116  -0.49607  -0.49333  -0.48940  -0.48609
 Alpha  occ. eigenvalues --   -0.47899  -0.47534  -0.47357  -0.47125  -0.46315
 Alpha  occ. eigenvalues --   -0.46125  -0.45207  -0.43786  -0.43268  -0.43194
 Alpha  occ. eigenvalues --   -0.42840  -0.42185  -0.41585  -0.41434  -0.39181
 Alpha  occ. eigenvalues --   -0.38115  -0.35061  -0.32461  -0.31901  -0.31819
 Alpha virt. eigenvalues --   -0.18560  -0.14775  -0.12097  -0.07948  -0.07681
 Alpha virt. eigenvalues --   -0.07624  -0.04231  -0.02724  -0.02644  -0.01373
 Alpha virt. eigenvalues --   -0.00402  -0.00183   0.00193   0.01055   0.01070

 Mulliken charges:
               1
     1  N   -0.724928
     2  H    0.334886
     3  H    0.316797
     4  C   -0.078593
     5  H    0.162486
     6  C    0.644541
     7  C   -0.361637
     8  H    0.169397
     9  H    0.157251
    10  O   -0.560514
    11  C    0.161892
    12  C   -0.182589
    13  H    0.117564
    14  C   -0.196106
    15  H    0.128567
    16  C   -0.126067
    17  H    0.144704
    18  C   -0.125851
    19  H    0.148705
    20  C   -0.127778
    21  H    0.150072
    22  N   -0.449495
    23  C   -0.082106
    24  H    0.221557
    25  C    0.629399
    26  C   -0.304925
    27  H    0.191586
    28  H    0.189265
    29  O   -0.556089
    30  C   -0.313232
    31  H    0.168486
    32  H    0.191750
    33  C   -0.132017
    34  H    0.216733
    35  H    0.177315
    36  N   -0.576689
    37  H    0.444185
    38  C   -0.087822
    39  H    0.211648
    40  C    0.626763
    41  C   -0.309021
    42  H    0.187679
    43  H    0.187064
    44  O   -0.381932
    45  C   -0.285457
    46  H    0.140408
    47  H    0.205134
    48  C   -0.264270
    49  H    0.114286
    50  H    0.140735
    51  C   -0.139454
    52  H    0.134175
    53  H    0.135066
    54  N   -0.715727
    55  H    0.314159
    56  H    0.305836
    57  O   -0.621520
    58  H    0.480651
    59  H    0.453077
 Sum of Mulliken charges =   1.00000

 Dipole moment (field-independent basis, Debye):
    X=             -5.0682    Y=              6.2607    Z=             -3.1817  Tot=              8.6606
 Quadrupole moment (field-independent basis, Debye-Ang):
   XX=           -113.4619   YY=           -107.8208   ZZ=           -152.5078
   XY=            -22.6973   XZ=              2.6211   YZ=             17.0436

 Normal termination of Gaussian 16 at Wed May 25 20:18:53 2022.
