 Gaussian 16, Revision C.01,
 Gaussian 16:  ES64L-G16RevC.01  3-Jul-2019

 -------------------------------------------------------------------
 # B3LYP/6-31G* guess=read geom=check nosymm integral(ultrafinegrid)
 -------------------------------------------------------------------

 ------------------------------------------------------
 Candidate Structure: Conf:948 Charge calc in gas phase
 ------------------------------------------------------
 Structure from the checkpoint file:  "conf-948.chk"
 Charge =  1 Multiplicity = 1

                          Input orientation:
 ---------------------------------------------------------------------
 Center     Atomic      Atomic             Coordinates (Angstroms)
 Number     Number       Type             X           Y           Z
 ---------------------------------------------------------------------
      1          7           0       -2.056524    4.578793    1.847954
      2          1           0       -2.908479    5.133051    1.946472
      3          1           0       -1.433560    5.156018    1.283442
      4          6           0       -2.390361    3.358260    1.128166
      5          1           0       -1.440162    2.864845    0.884161
      6          6           0       -3.166298    3.626118   -0.178850
      7          6           0       -3.211009    2.408539    2.056055
      8          1           0       -3.770481    3.047489    2.749629
      9          1           0       -3.967865    1.860278    1.482215
     10          8           0       -3.787828    4.661170   -0.354299
     11          6           0       -2.353843    1.423129    2.824433
     12          6           0       -2.578753    0.042553    2.710786
     13          1           0       -3.403376   -0.318977    2.097699
     14          6           0       -1.323423    1.869169    3.668785
     15          1           0       -1.148925    2.936975    3.766971
     16          6           0       -1.805925   -0.874734    3.432350
     17          1           0       -2.018788   -1.937922    3.357985
     18          6           0       -0.550231    0.955356    4.385864
     19          1           0        0.227157    1.317310    5.053400
     20          6           0       -0.790513   -0.418482    4.273951
     21          1           0       -0.207089   -1.124408    4.858142
     22          7           0       -3.146990    2.645484   -1.155360
     23          6           0       -2.531609    1.335232   -1.051390
     24          1           0       -2.722281    0.858844   -0.084482
     25          6           0       -1.022044    1.385785   -1.239340
     26          6           0       -3.193794    0.528570   -2.210051
     27          1           0       -2.551096   -0.264897   -2.604151
     28          1           0       -4.090926    0.053364   -1.800565
     29          8           0       -0.581498    2.187373   -2.162342
     30          6           0       -3.563203    1.603710   -3.244861
     31          1           0       -2.705752    1.833137   -3.885012
     32          1           0       -4.383362    1.279749   -3.890351
     33          6           0       -3.939213    2.821115   -2.393389
     34          1           0       -5.005549    2.843369   -2.141899
     35          1           0       -3.690021    3.775725   -2.861242
     36          7           0       -0.234613    0.629220   -0.503710
     37          1           0       -0.702783    0.064776    0.204696
     38          6           0        1.250896    0.658809   -0.376764
     39          1           0        1.537644    1.717846   -0.308634
     40          6           0        1.972393    0.106159   -1.620068
     41          6           0        1.683665   -0.069724    0.905249
     42          1           0        1.310477    0.500541    1.764396
     43          1           0        2.776434   -0.006866    0.932785
     44          8           0        2.830697   -0.727099   -1.632890
     45          6           0        1.250983   -1.542404    1.014855
     46          1           0        0.164569   -1.611979    1.178328
     47          1           0        1.473206   -2.070295    0.080598
     48          6           0        1.955609   -2.260970    2.175944
     49          1           0        1.776532   -1.712324    3.111308
     50          1           0        3.040925   -2.245160    2.003173
     51          6           0        1.488177   -3.719815    2.343423
     52          1           0        0.405226   -3.731805    2.530086
     53          1           0        1.641244   -4.259728    1.399618
     54          7           0        2.130750   -4.488878    3.402278
     55          1           0        2.013083   -4.032575    4.305180
     56          1           0        3.133377   -4.559619    3.238634
     57          8           0        1.560296    0.769427   -2.747975
     58          1           0        0.340179    1.965367   -2.453758
     59          1           0        2.068964    0.443736   -3.518318
 ---------------------------------------------------------------------

 SCF Done:  E(RB3LYP) =  -1300.48330323     A.U. after    3 cycles

 Alpha  occ. eigenvalues --  -19.38882 -19.37650 -19.31148 -19.22747 -14.58261
 Alpha  occ. eigenvalues --  -14.48830 -14.41762 -14.38929 -10.50950 -10.49233
 Alpha  occ. eigenvalues --  -10.42226 -10.40011 -10.39448 -10.33859 -10.33844
 Alpha  occ. eigenvalues --  -10.33254 -10.33242 -10.31264 -10.30726 -10.30241
 Alpha  occ. eigenvalues --  -10.30098 -10.29508 -10.29328 -10.29326 -10.29001
 Alpha  occ. eigenvalues --  -10.28948 -10.28475 -10.28115  -1.29637  -1.27451
 Alpha  occ. eigenvalues --   -1.19107  -1.15048  -1.14703  -1.07324  -0.99539
 Alpha  occ. eigenvalues --   -0.97257  -0.95956  -0.95531  -0.92564  -0.90454
 Alpha  occ. eigenvalues --   -0.88671  -0.88005  -0.84407  -0.83705  -0.82773
 Alpha  occ. eigenvalues --   -0.82012  -0.78628  -0.77989  -0.76818  -0.75095
 Alpha  occ. eigenvalues --   -0.73043  -0.71915  -0.70737  -0.70451  -0.69235
 Alpha  occ. eigenvalues --   -0.68271  -0.67713  -0.66662  -0.65882  -0.64646
 Alpha  occ. eigenvalues --   -0.63054  -0.61748  -0.60612  -0.59992  -0.59466
 Alpha  occ. eigenvalues --   -0.59224  -0.58819  -0.58023  -0.57235  -0.56771
 Alpha  occ. eigenvalues --   -0.56145  -0.55911  -0.55261  -0.55116  -0.54738
 Alpha  occ. eigenvalues --   -0.54037  -0.53200  -0.52788  -0.51799  -0.51547
 Alpha  occ. eigenvalues --   -0.51008  -0.50754  -0.50478  -0.49393  -0.49171
 Alpha  occ. eigenvalues --   -0.48874  -0.48616  -0.48129  -0.47731  -0.47055
 Alpha  occ. eigenvalues --   -0.46987  -0.46210  -0.46079  -0.44949  -0.44565
 Alpha  occ. eigenvalues --   -0.44043  -0.43776  -0.43566  -0.42612  -0.37002
 Alpha  occ. eigenvalues --   -0.36619  -0.35335  -0.35056  -0.33660  -0.30951
 Alpha virt. eigenvalues --   -0.20334  -0.16592  -0.11363  -0.10855  -0.09535
 Alpha virt. eigenvalues --   -0.09017  -0.07239  -0.05668  -0.04317  -0.02541
 Alpha virt. eigenvalues --   -0.02129  -0.01246  -0.00635  -0.00465   0.00624

 Mulliken charges:
               1
     1  N   -0.691776
     2  H    0.329854
     3  H    0.311179
     4  C   -0.077224
     5  H    0.114849
     6  C    0.569845
     7  C   -0.348717
     8  H    0.197748
     9  H    0.153144
    10  O   -0.478389
    11  C    0.141624
    12  C   -0.233410
    13  H    0.132356
    14  C   -0.182526
    15  H    0.181211
    16  C   -0.139611
    17  H    0.153593
    18  C   -0.138088
    19  H    0.156196
    20  C   -0.133454
    21  H    0.151137
    22  N   -0.449666
    23  C   -0.075813
    24  H    0.186820
    25  C    0.647879
    26  C   -0.311621
    27  H    0.172237
    28  H    0.198352
    29  O   -0.538105
    30  C   -0.308842
    31  H    0.169919
    32  H    0.191577
    33  C   -0.111910
    34  H    0.187361
    35  H    0.197708
    36  N   -0.576709
    37  H    0.401196
    38  C   -0.101532
    39  H    0.226555
    40  C    0.644678
    41  C   -0.315680
    42  H    0.188030
    43  H    0.198753
    44  O   -0.380758
    45  C   -0.294784
    46  H    0.133976
    47  H    0.168824
    48  C   -0.272305
    49  H    0.138512
    50  H    0.147463
    51  C   -0.143115
    52  H    0.140194
    53  H    0.151110
    54  N   -0.696595
    55  H    0.298485
    56  H    0.304212
    57  O   -0.626618
    58  H    0.481420
    59  H    0.459255
 Sum of Mulliken charges =   1.00000

 Dipole moment (field-independent basis, Debye):
    X=             -1.0395    Y=              3.5542    Z=             -4.3159  Tot=              5.6869
 Quadrupole moment (field-independent basis, Debye-Ang):
   XX=           -138.3305   YY=           -170.2257   ZZ=           -128.8003
   XY=              3.8813   XZ=              7.8213   YZ=             -5.4894

 Normal termination of Gaussian 16 at Wed May 25 20:22:23 2022.
