 Gaussian 16, Revision C.01,
 Gaussian 16:  ES64L-G16RevC.01  3-Jul-2019

 -------------------------------------------------------------------
 # B3LYP/6-31G* guess=read geom=check nosymm integral(ultrafinegrid)
 -------------------------------------------------------------------

 ------------------------------------------------------
 Candidate Structure: Conf:472 Charge calc in gas phase
 ------------------------------------------------------
 Structure from the checkpoint file:  "conf-472.chk"
 Charge =  1 Multiplicity = 1

                          Input orientation:
 ---------------------------------------------------------------------
 Center     Atomic      Atomic             Coordinates (Angstroms)
 Number     Number       Type             X           Y           Z
 ---------------------------------------------------------------------
      1          7           0       -2.431693    1.604526    4.625849
      2          1           0       -3.266362    2.101611    4.940578
      3          1           0       -1.747045    2.336430    4.435111
      4          6           0       -2.765155    0.899195    3.389900
      5          1           0       -1.836351    0.448111    3.019525
      6          6           0       -3.348091    1.882526    2.342858
      7          6           0       -3.764140   -0.241908    3.728794
      8          1           0       -3.460143   -0.616169    4.712091
      9          1           0       -4.765690    0.188395    3.840192
     10          8           0       -4.120216    2.758030    2.703481
     11          6           0       -3.774296   -1.374037    2.725412
     12          6           0       -4.794873   -1.513900    1.775983
     13          1           0       -5.634209   -0.822497    1.789279
     14          6           0       -2.721904   -2.309510    2.712048
     15          1           0       -1.958456   -2.258860    3.487274
     16          6           0       -4.754514   -2.535442    0.819487
     17          1           0       -5.562746   -2.630434    0.099760
     18          6           0       -2.677293   -3.331353    1.757859
     19          1           0       -1.880439   -4.071105    1.790334
     20          6           0       -3.692099   -3.439103    0.798765
     21          1           0       -3.668545   -4.240347    0.066066
     22          7           0       -2.919912    1.848994    1.023041
     23          6           0       -2.404950    0.681239    0.307870
     24          1           0       -2.900551   -0.241574    0.619374
     25          6           0       -0.934017    0.471482    0.526260
     26          6           0       -2.701506    0.986184   -1.193563
     27          1           0       -1.943892    0.570039   -1.862154
     28          1           0       -3.665612    0.525056   -1.429755
     29          8           0       -0.052784    1.428217    0.318442
     30          6           0       -2.794662    2.518451   -1.243001
     31          1           0       -1.796069    2.961347   -1.320592
     32          1           0       -3.383828    2.865219   -2.095956
     33          6           0       -3.440749    2.880844    0.093406
     34          1           0       -4.534864    2.824876    0.056332
     35          1           0       -3.173270    3.873358    0.461116
     36          7           0       -0.390345   -0.650489    0.919447
     37          1           0       -0.952216   -1.464823    1.182726
     38          6           0        1.070421   -0.550706    1.034151
     39          1           0        1.344089   -0.576545    2.098324
     40          6           0        1.280364    0.873716    0.532856
     41          6           0        1.852899   -1.636101    0.267648
     42          1           0        1.659925   -1.509009   -0.801154
     43          1           0        1.438423   -2.606961    0.569556
     44          8           0        2.242694    1.526273    0.332571
     45          6           0        3.359392   -1.601892    0.565380
     46          1           0        3.771793   -0.626735    0.278537
     47          1           0        3.517539   -1.705751    1.648169
     48          6           0        4.116177   -2.715802   -0.170359
     49          1           0        3.951418   -2.613958   -1.252881
     50          1           0        3.702377   -3.693892    0.117356
     51          6           0        5.637330   -2.709958    0.100020
     52          1           0        6.101335   -3.469692   -0.539848
     53          1           0        6.055949   -1.745902   -0.217310
     54          7           0        6.078127   -2.955341    1.468254
     55          1           0        5.731463   -3.846736    1.816539
     56          1           0        5.763569   -2.230161    2.107859
     57          8           0        0.477207    0.132828   -2.250543
     58          1           0        0.499708   -0.504692   -2.981757
     59          1           0        0.889619    0.930766   -2.618880
 ---------------------------------------------------------------------

 SCF Done:  E(RB3LYP) =  -1300.47229670     A.U. after    3 cycles

 Alpha  occ. eigenvalues --  -19.39465 -19.32911 -19.29419 -19.22678 -14.57813
 Alpha  occ. eigenvalues --  -14.48702 -14.41473 -14.39084 -10.50243 -10.49998
 Alpha  occ. eigenvalues --  -10.42173 -10.39476 -10.39349 -10.33822 -10.33728
 Alpha  occ. eigenvalues --  -10.32828 -10.32767 -10.31491 -10.31215 -10.30972
 Alpha  occ. eigenvalues --  -10.30693 -10.30612 -10.30555 -10.30419 -10.30332
 Alpha  occ. eigenvalues --  -10.29627 -10.29008 -10.28085  -1.31735  -1.23358
 Alpha  occ. eigenvalues --   -1.14947  -1.14903  -1.14229  -1.06886  -0.99298
 Alpha  occ. eigenvalues --   -0.97358  -0.97073  -0.95964  -0.92219  -0.90517
 Alpha  occ. eigenvalues --   -0.88956  -0.87358  -0.86148  -0.83041  -0.82417
 Alpha  occ. eigenvalues --   -0.81941  -0.78940  -0.77848  -0.75107  -0.73915
 Alpha  occ. eigenvalues --   -0.72172  -0.71720  -0.71015  -0.69440  -0.68472
 Alpha  occ. eigenvalues --   -0.67899  -0.67157  -0.66591  -0.64935  -0.63054
 Alpha  occ. eigenvalues --   -0.62659  -0.62237  -0.61376  -0.60026  -0.58782
 Alpha  occ. eigenvalues --   -0.58211  -0.57737  -0.57390  -0.57080  -0.56927
 Alpha  occ. eigenvalues --   -0.56375  -0.56214  -0.55840  -0.55022  -0.53694
 Alpha  occ. eigenvalues --   -0.53514  -0.53363  -0.52827  -0.52106  -0.51861
 Alpha  occ. eigenvalues --   -0.51343  -0.50879  -0.50002  -0.49668  -0.48947
 Alpha  occ. eigenvalues --   -0.48546  -0.48014  -0.47638  -0.47214  -0.46796
 Alpha  occ. eigenvalues --   -0.46364  -0.45580  -0.45323  -0.45036  -0.44985
 Alpha  occ. eigenvalues --   -0.44642  -0.44287  -0.43553  -0.42468  -0.37345
 Alpha  occ. eigenvalues --   -0.37244  -0.36170  -0.36001  -0.33850  -0.30912
 Alpha virt. eigenvalues --   -0.21015  -0.16048  -0.12595  -0.12376  -0.10066
 Alpha virt. eigenvalues --   -0.08536  -0.06236  -0.04740  -0.03689  -0.02744
 Alpha virt. eigenvalues --   -0.01645  -0.01486  -0.00410   0.00227   0.00380

 Mulliken charges:
               1
     1  N   -0.688344
     2  H    0.330724
     3  H    0.307403
     4  C   -0.063872
     5  H    0.099985
     6  C    0.584079
     7  C   -0.355838
     8  H    0.193822
     9  H    0.182236
    10  O   -0.483344
    11  C    0.159460
    12  C   -0.200141
    13  H    0.161362
    14  C   -0.232374
    15  H    0.151536
    16  C   -0.127165
    17  H    0.164753
    18  C   -0.161145
    19  H    0.154398
    20  C   -0.129993
    21  H    0.161900
    22  N   -0.466524
    23  C   -0.098673
    24  H    0.203651
    25  C    0.733844
    26  C   -0.324665
    27  H    0.193936
    28  H    0.188297
    29  O   -0.446480
    30  C   -0.306315
    31  H    0.171485
    32  H    0.186422
    33  C   -0.117534
    34  H    0.184427
    35  H    0.195869
    36  N   -0.605529
    37  H    0.391127
    38  C   -0.050877
    39  H    0.243764
    40  C    0.632070
    41  C   -0.275712
    42  H    0.184408
    43  H    0.166060
    44  O   -0.354424
    45  C   -0.280953
    46  H    0.175793
    47  H    0.135736
    48  C   -0.267925
    49  H    0.136322
    50  H    0.134423
    51  C   -0.146812
    52  H    0.163261
    53  H    0.152411
    54  N   -0.698494
    55  H    0.300512
    56  H    0.298757
    57  O   -0.784311
    58  H    0.420405
    59  H    0.422809
 Sum of Mulliken charges =   1.00000

 Dipole moment (field-independent basis, Debye):
    X=             -4.0621    Y=             -3.9484    Z=             -0.9389  Tot=              5.7422
 Quadrupole moment (field-independent basis, Debye-Ang):
   XX=           -148.6681   YY=           -146.7828   ZZ=           -144.2414
   XY=              1.5667   XZ=              1.3690   YZ=             -7.2394

 Normal termination of Gaussian 16 at Wed May 25 20:18:38 2022.
