 Gaussian 16, Revision C.01,
 Gaussian 16:  ES64L-G16RevC.01  3-Jul-2019

 -------------------------------------------------------------------
 # B3LYP/6-31G* guess=read geom=check nosymm integral(ultrafinegrid)
 -------------------------------------------------------------------

 ------------------------------------------------------
 Candidate Structure: Conf:304 Charge calc in gas phase
 ------------------------------------------------------
 Structure from the checkpoint file:  "conf-304.chk"
 Charge =  1 Multiplicity = 1

                          Input orientation:
 ---------------------------------------------------------------------
 Center     Atomic      Atomic             Coordinates (Angstroms)
 Number     Number       Type             X           Y           Z
 ---------------------------------------------------------------------
      1          7           0       -3.782120   -0.606752    4.048310
      2          1           0       -3.828873   -1.398269    3.413156
      3          1           0       -4.614290   -0.605835    4.631707
      4          6           0       -3.670557    0.653401    3.323820
      5          1           0       -4.649515    1.088893    3.053076
      6          6           0       -2.915847    0.397084    2.019619
      7          6           0       -2.942537    1.703505    4.228174
      8          1           0       -3.165492    2.716378    3.878956
      9          1           0       -3.417456    1.613870    5.211985
     10          8           0       -2.372148   -0.698282    1.805496
     11          6           0       -1.442118    1.537923    4.358399
     12          6           0       -0.578764    2.497051    3.809406
     13          1           0       -0.994711    3.361239    3.294545
     14          6           0       -0.882799    0.452598    5.052190
     15          1           0       -1.541703   -0.298166    5.475106
     16          6           0        0.807237    2.390769    3.957911
     17          1           0        1.455367    3.168290    3.560815
     18          6           0        0.500557    0.342750    5.200726
     19          1           0        0.915382   -0.489924    5.762448
     20          6           0        1.350790    1.313029    4.660437
     21          1           0        2.424729    1.244826    4.812508
     22          7           0       -2.833193    1.394581    1.088851
     23          6           0       -2.236872    1.081633   -0.227161
     24          1           0       -2.534433    0.070315   -0.525103
     25          6           0       -0.710770    1.061742   -0.113192
     26          6           0       -2.802022    2.159482   -1.167830
     27          1           0       -2.119171    2.414925   -1.979749
     28          1           0       -3.722288    1.769229   -1.613779
     29          8           0       -0.059318    2.065082   -0.630345
     30          6           0       -3.111772    3.340603   -0.235567
     31          1           0       -2.203853    3.920208   -0.038109
     32          1           0       -3.860874    4.019576   -0.649450
     33          6           0       -3.599947    2.664466    1.050694
     34          1           0       -4.674525    2.447446    1.008034
     35          1           0       -3.403183    3.267433    1.936951
     36          7           0       -0.150804    0.043074    0.486885
     37          1           0       -0.852890   -0.588863    0.922791
     38          6           0        1.265673   -0.153591    0.902407
     39          1           0        1.574282    0.737644    1.463506
     40          6           0        2.157474   -0.284594   -0.343495
     41          6           0        1.346436   -1.400813    1.788993
     42          1           0        1.080185   -2.270514    1.178482
     43          1           0        0.590345   -1.299153    2.576600
     44          8           0        2.632707   -1.289018   -0.790955
     45          6           0        2.729811   -1.591020    2.430237
     46          1           0        3.503740   -1.605241    1.653867
     47          1           0        2.942317   -0.729460    3.075473
     48          6           0        2.839154   -2.883743    3.255843
     49          1           0        2.076101   -2.882624    4.047781
     50          1           0        3.811655   -2.876475    3.766243
     51          6           0        2.716850   -4.190655    2.440084
     52          1           0        2.834369   -5.034227    3.130614
     53          1           0        1.703383   -4.286274    2.028915
     54          7           0        3.656235   -4.382195    1.338159
     55          1           0        4.618868   -4.323302    1.665266
     56          1           0        3.538117   -3.673430    0.617244
     57          8           0        2.353550    0.950178   -0.915694
     58          1           0        0.921551    1.914123   -0.672984
     59          1           0        2.902563    0.842929   -1.719232
 ---------------------------------------------------------------------

 SCF Done:  E(RB3LYP) =  -1300.50088635     A.U. after    1 cycles

 Alpha  occ. eigenvalues --  -19.37798 -19.36459 -19.30084 -19.26094 -14.55364
 Alpha  occ. eigenvalues --  -14.51059 -14.41572 -14.38121 -10.49509 -10.47930
 Alpha  occ. eigenvalues --  -10.42526 -10.39949 -10.39391 -10.35590 -10.34466
 Alpha  occ. eigenvalues --  -10.32833 -10.31936 -10.31232 -10.29839 -10.29389
 Alpha  occ. eigenvalues --  -10.28827 -10.28738 -10.28697 -10.28517 -10.28258
 Alpha  occ. eigenvalues --  -10.28055 -10.27826 -10.26624  -1.28224  -1.26193
 Alpha  occ. eigenvalues --   -1.18045  -1.17874  -1.12547  -1.08472  -0.99551
 Alpha  occ. eigenvalues --   -0.95925  -0.94946  -0.94860  -0.93315  -0.90091
 Alpha  occ. eigenvalues --   -0.87669  -0.86881  -0.83745  -0.82700  -0.82374
 Alpha  occ. eigenvalues --   -0.81152  -0.78689  -0.77269  -0.74652  -0.74180
 Alpha  occ. eigenvalues --   -0.73344  -0.71974  -0.70215  -0.69754  -0.68079
 Alpha  occ. eigenvalues --   -0.67257  -0.66751  -0.65710  -0.64708  -0.64100
 Alpha  occ. eigenvalues --   -0.62522  -0.61436  -0.60018  -0.59577  -0.59353
 Alpha  occ. eigenvalues --   -0.59212  -0.58062  -0.57155  -0.56991  -0.56745
 Alpha  occ. eigenvalues --   -0.56406  -0.55843  -0.54878  -0.54704  -0.54137
 Alpha  occ. eigenvalues --   -0.53767  -0.53106  -0.52855  -0.51564  -0.51226
 Alpha  occ. eigenvalues --   -0.50792  -0.50147  -0.49099  -0.48889  -0.48768
 Alpha  occ. eigenvalues --   -0.48605  -0.48408  -0.48163  -0.47546  -0.47348
 Alpha  occ. eigenvalues --   -0.46880  -0.46366  -0.45131  -0.43895  -0.43548
 Alpha  occ. eigenvalues --   -0.43217  -0.42844  -0.42302  -0.41163  -0.39573
 Alpha  occ. eigenvalues --   -0.39007  -0.34753  -0.34237  -0.33321  -0.30052
 Alpha virt. eigenvalues --   -0.18780  -0.15541  -0.12351  -0.10124  -0.09791
 Alpha virt. eigenvalues --   -0.08059  -0.05131  -0.03092  -0.02849  -0.01888
 Alpha virt. eigenvalues --   -0.01371  -0.00475   0.00224   0.00620   0.00908

 Mulliken charges:
               1
     1  N   -0.721830
     2  H    0.330796
     3  H    0.319187
     4  C   -0.055895
     5  H    0.151516
     6  C    0.627699
     7  C   -0.352238
     8  H    0.148430
     9  H    0.185886
    10  O   -0.554493
    11  C    0.154317
    12  C   -0.202737
    13  H    0.122370
    14  C   -0.164905
    15  H    0.172693
    16  C   -0.149335
    17  H    0.140530
    18  C   -0.139926
    19  H    0.153255
    20  C   -0.139928
    21  H    0.148641
    22  N   -0.452677
    23  C   -0.075089
    24  H    0.217810
    25  C    0.637778
    26  C   -0.307662
    27  H    0.192129
    28  H    0.188200
    29  O   -0.556411
    30  C   -0.311207
    31  H    0.178216
    32  H    0.192845
    33  C   -0.139621
    34  H    0.184922
    35  H    0.190347
    36  N   -0.588284
    37  H    0.442186
    38  C   -0.062791
    39  H    0.219157
    40  C    0.621500
    41  C   -0.315505
    42  H    0.182567
    43  H    0.189360
    44  O   -0.390597
    45  C   -0.286286
    46  H    0.145699
    47  H    0.147746
    48  C   -0.271307
    49  H    0.137146
    50  H    0.146271
    51  C   -0.149126
    52  H    0.162287
    53  H    0.141038
    54  N   -0.706639
    55  H    0.301099
    56  H    0.302925
    57  O   -0.615571
    58  H    0.480549
    59  H    0.452961
 Sum of Mulliken charges =   1.00000

 Dipole moment (field-independent basis, Debye):
    X=             -4.3176    Y=              7.1940    Z=              3.6268  Tot=              9.1405
 Quadrupole moment (field-independent basis, Debye-Ang):
   XX=           -107.8847   YY=           -157.5306   ZZ=           -137.5619
   XY=             -9.5533   XZ=             -9.3529   YZ=             -6.5779

 Normal termination of Gaussian 16 at Wed May 25 20:18:15 2022.
