 Gaussian 16, Revision C.01,
 Gaussian 16:  ES64L-G16RevC.01  3-Jul-2019

 -------------------------------------------------------------------
 # B3LYP/6-31G* guess=read geom=check nosymm integral(ultrafinegrid)
 -------------------------------------------------------------------

 ------------------------------------------------------
 Candidate Structure: Conf:961 Charge calc in gas phase
 ------------------------------------------------------
 Structure from the checkpoint file:  "conf-961.chk"
 Charge =  1 Multiplicity = 1

                          Input orientation:
 ---------------------------------------------------------------------
 Center     Atomic      Atomic             Coordinates (Angstroms)
 Number     Number       Type             X           Y           Z
 ---------------------------------------------------------------------
      1          7           0       -1.355558    2.524062   -0.359757
      2          1           0       -1.167193    3.524571   -0.275896
      3          1           0       -0.692913    2.195366   -1.066173
      4          6           0       -2.725368    2.375775   -0.898585
      5          1           0       -3.387523    2.894521   -0.189235
      6          6           0       -3.141361    0.893406   -0.891304
      7          6           0       -2.944135    3.004012   -2.292461
      8          1           0       -2.303730    2.485289   -3.015973
      9          1           0       -3.974906    2.803992   -2.601200
     10          8           0       -3.646091    0.347543   -1.855295
     11          6           0       -2.660622    4.491723   -2.292250
     12          6           0       -3.622607    5.398708   -1.822372
     13          1           0       -4.594312    5.030844   -1.498253
     14          6           0       -1.427007    4.994797   -2.729422
     15          1           0       -0.678592    4.311230   -3.126090
     16          6           0       -3.358844    6.767802   -1.787847
     17          1           0       -4.120684    7.455549   -1.431645
     18          6           0       -1.159593    6.365654   -2.697724
     19          1           0       -0.203268    6.737678   -3.054987
     20          6           0       -2.124429    7.255143   -2.224081
     21          1           0       -1.921864    8.322089   -2.206043
     22          7           0       -2.928896    0.168858    0.283992
     23          6           0       -2.644021    0.774371    1.582568
     24          1           0       -3.045328    1.784897    1.684317
     25          6           0       -1.153246    0.894893    1.816637
     26          6           0       -3.301696   -0.192821    2.612098
     27          1           0       -2.772673   -0.219604    3.568704
     28          1           0       -4.315226    0.170729    2.807330
     29          8           0       -0.799496    1.712323    2.766970
     30          6           0       -3.339495   -1.541062    1.875686
     31          1           0       -2.379519   -2.062659    1.970329
     32          1           0       -4.111085   -2.206177    2.270807
     33          6           0       -3.606360   -1.148687    0.419648
     34          1           0       -4.675599   -1.031092    0.209829
     35          1           0       -3.208389   -1.855819   -0.311073
     36          7           0       -0.320156    0.085180    1.203362
     37          1           0       -0.745010   -0.417245    0.424355
     38          6           0        1.142394   -0.040282    1.390233
     39          1           0        1.331012   -0.171922    2.461809
     40          6           0        1.806075    1.273105    0.935799
     41          6           0        1.671042   -1.240346    0.601362
     42          1           0        1.560619   -1.022164   -0.467442
     43          1           0        1.040483   -2.108750    0.830449
     44          8           0        2.251884    1.512050   -0.152810
     45          6           0        3.136647   -1.558024    0.942531
     46          1           0        3.750024   -0.651869    0.865275
     47          1           0        3.191865   -1.889929    1.987506
     48          6           0        3.764552   -2.624696    0.032335
     49          1           0        3.165272   -3.545723    0.057135
     50          1           0        4.750111   -2.869910    0.442589
     51          6           0        3.954480   -2.177422   -1.426929
     52          1           0        4.515324   -2.961708   -1.946036
     53          1           0        2.976517   -2.118578   -1.938271
     54          7           0        4.729132   -0.932799   -1.501128
     55          1           0        4.115637   -0.121575   -1.458773
     56          1           0        5.216510   -0.872467   -2.391571
     57          8           0        1.777035    2.180798    1.957971
     58          1           0        0.169566    1.906032    2.781141
     59          1           0        2.173699    3.021601    1.650636
 ---------------------------------------------------------------------

 SCF Done:  E(RB3LYP) =  -1300.49974953     A.U. after    2 cycles

 Alpha  occ. eigenvalues --  -19.37677 -19.36859 -19.30656 -19.23882 -14.56157
 Alpha  occ. eigenvalues --  -14.49416 -14.45738 -14.39085 -10.49748 -10.48549
 Alpha  occ. eigenvalues --  -10.40863 -10.40703 -10.38961 -10.34583 -10.33943
 Alpha  occ. eigenvalues --  -10.33166 -10.32692 -10.31631 -10.29351 -10.29077
 Alpha  occ. eigenvalues --  -10.28567 -10.28365 -10.27429 -10.27258 -10.27162
 Alpha  occ. eigenvalues --  -10.27069 -10.27001 -10.26888  -1.28313  -1.26696
 Alpha  occ. eigenvalues --   -1.18445  -1.16106  -1.13533  -1.07371  -1.02088
 Alpha  occ. eigenvalues --   -0.96492  -0.95654  -0.93797  -0.92402  -0.90147
 Alpha  occ. eigenvalues --   -0.87490  -0.87082  -0.82939  -0.82600  -0.82216
 Alpha  occ. eigenvalues --   -0.81518  -0.78093  -0.77630  -0.75541  -0.74050
 Alpha  occ. eigenvalues --   -0.73155  -0.72028  -0.69275  -0.68750  -0.67958
 Alpha  occ. eigenvalues --   -0.67748  -0.66523  -0.65945  -0.64640  -0.64199
 Alpha  occ. eigenvalues --   -0.63114  -0.61306  -0.59770  -0.59296  -0.59060
 Alpha  occ. eigenvalues --   -0.58758  -0.57771  -0.57327  -0.57267  -0.57075
 Alpha  occ. eigenvalues --   -0.56295  -0.55390  -0.54535  -0.54364  -0.53878
 Alpha  occ. eigenvalues --   -0.53676  -0.53450  -0.52634  -0.52231  -0.50990
 Alpha  occ. eigenvalues --   -0.50219  -0.50113  -0.49466  -0.49022  -0.48756
 Alpha  occ. eigenvalues --   -0.48385  -0.48261  -0.47995  -0.47603  -0.47491
 Alpha  occ. eigenvalues --   -0.46575  -0.45826  -0.44106  -0.43584  -0.43346
 Alpha  occ. eigenvalues --   -0.43014  -0.42278  -0.42152  -0.41965  -0.38727
 Alpha  occ. eigenvalues --   -0.38108  -0.36749  -0.33268  -0.32697  -0.31382
 Alpha virt. eigenvalues --   -0.18239  -0.15862  -0.11124  -0.08811  -0.08561
 Alpha virt. eigenvalues --   -0.08358  -0.06648  -0.04429  -0.03920  -0.03079
 Alpha virt. eigenvalues --   -0.01999  -0.00865  -0.00090   0.00197   0.00682

 Mulliken charges:
               1
     1  N   -0.775356
     2  H    0.335784
     3  H    0.317661
     4  C   -0.095901
     5  H    0.175352
     6  C    0.609774
     7  C   -0.356496
     8  H    0.162160
     9  H    0.187996
    10  O   -0.465385
    11  C    0.154971
    12  C   -0.185234
    13  H    0.132972
    14  C   -0.203038
    15  H    0.124759
    16  C   -0.126714
    17  H    0.150432
    18  C   -0.127734
    19  H    0.146423
    20  C   -0.128822
    21  H    0.151367
    22  N   -0.510052
    23  C   -0.025308
    24  H    0.207088
    25  C    0.677621
    26  C   -0.310773
    27  H    0.186807
    28  H    0.196614
    29  O   -0.559903
    30  C   -0.311594
    31  H    0.152485
    32  H    0.197119
    33  C   -0.124164
    34  H    0.191670
    35  H    0.189285
    36  N   -0.565963
    37  H    0.391104
    38  C   -0.065783
    39  H    0.211705
    40  C    0.627422
    41  C   -0.308465
    42  H    0.178307
    43  H    0.167355
    44  O   -0.411665
    45  C   -0.294104
    46  H    0.172258
    47  H    0.151797
    48  C   -0.240311
    49  H    0.134251
    50  H    0.167180
    51  C   -0.156730
    52  H    0.162740
    53  H    0.115342
    54  N   -0.723998
    55  H    0.301446
    56  H    0.314688
    57  O   -0.599169
    58  H    0.477419
    59  H    0.451311
 Sum of Mulliken charges =   1.00000

 Dipole moment (field-independent basis, Debye):
    X=             -2.4988    Y=              5.1534    Z=              6.1561  Tot=              8.4082
 Quadrupole moment (field-independent basis, Debye-Ang):
   XX=           -137.7991   YY=           -118.5966   ZZ=           -148.9392
   XY=             -6.2112   XZ=            -14.8899   YZ=             -0.7651

 Normal termination of Gaussian 16 at Wed May 25 20:22:07 2022.
