 Gaussian 16, Revision C.01,
 Gaussian 16:  ES64L-G16RevC.01  3-Jul-2019

 -------------------------------------------------------------------
 # B3LYP/6-31G* guess=read geom=check nosymm integral(ultrafinegrid)
 -------------------------------------------------------------------

 ------------------------------------------------------
 Candidate Structure: Conf:883 Charge calc in gas phase
 ------------------------------------------------------
 Structure from the checkpoint file:  "conf-883.chk"
 Charge =  1 Multiplicity = 1

                          Input orientation:
 ---------------------------------------------------------------------
 Center     Atomic      Atomic             Coordinates (Angstroms)
 Number     Number       Type             X           Y           Z
 ---------------------------------------------------------------------
      1          7           0       -4.063421    0.249006    4.243865
      2          1           0       -4.525380   -0.530877    3.782472
      3          1           0       -4.690479    0.602189    4.962902
      4          6           0       -3.758918    1.318570    3.308902
      5          1           0       -4.647688    1.789249    2.852420
      6          6           0       -2.884525    0.759787    2.185993
      7          6           0       -2.965754    2.432973    4.061911
      8          1           0       -2.071574    1.958117    4.479032
      9          1           0       -2.636013    3.196636    3.347024
     10          8           0       -2.202657   -0.264998    2.331288
     11          6           0       -3.780760    3.082060    5.160699
     12          6           0       -4.641738    4.151069    4.874528
     13          1           0       -4.701911    4.538697    3.858888
     14          6           0       -3.707550    2.612649    6.479954
     15          1           0       -3.039297    1.788818    6.717505
     16          6           0       -5.412852    4.736117    5.878598
     17          1           0       -6.069330    5.568391    5.640545
     18          6           0       -4.479180    3.196333    7.486799
     19          1           0       -4.406841    2.824041    8.504816
     20          6           0       -5.333813    4.258423    7.188615
     21          1           0       -5.930392    4.715923    7.972515
     22          7           0       -2.839662    1.445858    0.999904
     23          6           0       -2.182349    0.822666   -0.167380
     24          1           0       -2.423890   -0.245262   -0.204701
     25          6           0       -0.675766    0.874631   -0.025967
     26          6           0       -2.736192    1.599891   -1.374502
     27          1           0       -2.026413    1.653677   -2.201486
     28          1           0       -3.630013    1.079847   -1.732489
     29          8           0        0.091063    1.495665   -0.905287
     30          6           0       -3.107101    2.970865   -0.788353
     31          1           0       -2.217834    3.606046   -0.704755
     32          1           0       -3.843252    3.504697   -1.393740
     33          6           0       -3.646760    2.625198    0.604369
     34          1           0       -4.710147    2.358395    0.564637
     35          1           0       -3.521819    3.439674    1.320381
     36          7           0       -0.014676    0.323281    0.948015
     37          1           0       -0.554419   -0.156842    1.691565
     38          6           0        1.431288    0.481798    0.782721
     39          1           0        1.828355    1.104153    1.593789
     40          6           0        1.479350    1.278334   -0.511623
     41          6           0        2.208762   -0.848366    0.692890
     42          1           0        3.234556   -0.580938    0.413631
     43          1           0        1.785903   -1.425839   -0.135601
     44          8           0        2.368914    1.686085   -1.171851
     45          6           0        2.183838   -1.667128    1.995259
     46          1           0        1.144478   -1.913886    2.252958
     47          1           0        2.669238   -2.628766    1.791647
     48          6           0        2.877636   -1.028901    3.209498
     49          1           0        2.690225   -1.675703    4.073518
     50          1           0        2.432152   -0.051674    3.453110
     51          6           0        4.400366   -0.865104    3.066638
     52          1           0        4.635399   -0.103142    2.301424
     53          1           0        4.782032   -0.465819    4.012275
     54          7           0        5.046594   -2.158789    2.820714
     55          1           0        5.991305   -2.161648    3.196272
     56          1           0        5.140897   -2.339733    1.824193
     57          8           0       -0.301528   -1.246323   -1.769804
     58          1           0       -0.099642   -1.116325   -2.709867
     59          1           0       -0.495292   -2.194147   -1.697369
 ---------------------------------------------------------------------

 SCF Done:  E(RB3LYP) =  -1300.48389557     A.U. after    1 cycles

 Alpha  occ. eigenvalues --  -19.38313 -19.31725 -19.28631 -19.25079 -14.55113
 Alpha  occ. eigenvalues --  -14.50435 -14.40604 -14.39380 -10.48877 -10.48644
 Alpha  occ. eigenvalues --  -10.41626 -10.40425 -10.39231 -10.35208 -10.33324
 Alpha  occ. eigenvalues --  -10.32619 -10.32392 -10.31721 -10.29562 -10.29386
 Alpha  occ. eigenvalues --  -10.29107 -10.27778 -10.27612 -10.26765 -10.26431
 Alpha  occ. eigenvalues --  -10.26412 -10.26273 -10.26151  -1.30382  -1.22099
 Alpha  occ. eigenvalues --   -1.17084  -1.14151  -1.12274  -1.07994  -0.98859
 Alpha  occ. eigenvalues --   -0.96560  -0.95879  -0.93019  -0.92895  -0.90228
 Alpha  occ. eigenvalues --   -0.87151  -0.86249  -0.82370  -0.81870  -0.81595
 Alpha  occ. eigenvalues --   -0.80282  -0.77957  -0.77217  -0.74353  -0.73791
 Alpha  occ. eigenvalues --   -0.72994  -0.69759  -0.68497  -0.68055  -0.66780
 Alpha  occ. eigenvalues --   -0.66058  -0.65875  -0.65669  -0.64473  -0.61941
 Alpha  occ. eigenvalues --   -0.61861  -0.60453  -0.59426  -0.59034  -0.58820
 Alpha  occ. eigenvalues --   -0.58142  -0.57854  -0.57410  -0.56425  -0.56143
 Alpha  occ. eigenvalues --   -0.55610  -0.54948  -0.54709  -0.53615  -0.53493
 Alpha  occ. eigenvalues --   -0.53319  -0.52274  -0.51866  -0.51700  -0.50350
 Alpha  occ. eigenvalues --   -0.50064  -0.49642  -0.49386  -0.49214  -0.48365
 Alpha  occ. eigenvalues --   -0.48009  -0.47902  -0.47270  -0.47103  -0.46255
 Alpha  occ. eigenvalues --   -0.45687  -0.44726  -0.43943  -0.43544  -0.43205
 Alpha  occ. eigenvalues --   -0.43098  -0.42059  -0.41855  -0.41472  -0.38487
 Alpha  occ. eigenvalues --   -0.38232  -0.33274  -0.32482  -0.31817  -0.31642
 Alpha virt. eigenvalues --   -0.19574  -0.14718  -0.12028  -0.07875  -0.07759
 Alpha virt. eigenvalues --   -0.07661  -0.04699  -0.03751  -0.02796  -0.01988
 Alpha virt. eigenvalues --   -0.01356  -0.00851  -0.00499   0.00539   0.01192

 Mulliken charges:
               1
     1  N   -0.713419
     2  H    0.312834
     3  H    0.326205
     4  C   -0.046659
     5  H    0.141164
     6  C    0.612267
     7  C   -0.355473
     8  H    0.171464
     9  H    0.142528
    10  O   -0.549480
    11  C    0.151095
    12  C   -0.181923
    13  H    0.115827
    14  C   -0.187298
    15  H    0.147724
    16  C   -0.126242
    17  H    0.146405
    18  C   -0.127550
    19  H    0.149926
    20  C   -0.126306
    21  H    0.150820
    22  N   -0.461134
    23  C   -0.072316
    24  H    0.224783
    25  C    0.735377
    26  C   -0.315516
    27  H    0.194678
    28  H    0.185538
    29  O   -0.458496
    30  C   -0.308905
    31  H    0.174086
    32  H    0.192650
    33  C   -0.140506
    34  H    0.185746
    35  H    0.190460
    36  N   -0.592079
    37  H    0.437107
    38  C   -0.060834
    39  H    0.243303
    40  C    0.618638
    41  C   -0.281442
    42  H    0.189496
    43  H    0.176308
    44  O   -0.357052
    45  C   -0.297622
    46  H    0.146911
    47  H    0.186788
    48  C   -0.248316
    49  H    0.174388
    50  H    0.114471
    51  C   -0.155588
    52  H    0.116403
    53  H    0.161962
    54  N   -0.715292
    55  H    0.318573
    56  H    0.299341
    57  O   -0.796427
    58  H    0.420680
    59  H    0.419929
 Sum of Mulliken charges =   1.00000

 Dipole moment (field-independent basis, Debye):
    X=             -5.5165    Y=              3.7752    Z=              2.6144  Tot=              7.1777
 Quadrupole moment (field-independent basis, Debye-Ang):
   XX=           -101.2585   YY=           -143.1517   ZZ=           -129.1597
   XY=            -27.7019   XZ=             -8.0821   YZ=             21.6636

 Normal termination of Gaussian 16 at Wed May 25 20:21:57 2022.
