 Gaussian 16, Revision C.01,
 Gaussian 16:  ES64L-G16RevC.01  3-Jul-2019

 -------------------------------------------------------------------
 # B3LYP/6-31G* guess=read geom=check nosymm integral(ultrafinegrid)
 -------------------------------------------------------------------

 ------------------------------------------------------
 Candidate Structure: Conf:234 Charge calc in gas phase
 ------------------------------------------------------
 Structure from the checkpoint file:  "conf-234.chk"
 Charge =  1 Multiplicity = 1

                          Input orientation:
 ---------------------------------------------------------------------
 Center     Atomic      Atomic             Coordinates (Angstroms)
 Number     Number       Type             X           Y           Z
 ---------------------------------------------------------------------
      1          7           0       -4.447191    1.730505    2.772210
      2          1           0       -3.608946    1.332964    3.192731
      3          1           0       -5.082238    0.948491    2.622082
      4          6           0       -4.094756    2.344595    1.503315
      5          1           0       -5.026904    2.555163    0.965241
      6          6           0       -3.217517    1.426852    0.631099
      7          6           0       -3.398859    3.720412    1.744748
      8          1           0       -3.335249    4.268072    0.798218
      9          1           0       -4.085540    4.277352    2.389926
     10          8           0       -2.595194    0.480333    1.134824
     11          6           0       -2.022497    3.665347    2.375415
     12          6           0       -0.873788    3.874892    1.598104
     13          1           0       -0.980081    4.086603    0.535321
     14          6           0       -1.864496    3.450464    3.753126
     15          1           0       -2.745969    3.320753    4.375250
     16          6           0        0.397891    3.872323    2.177056
     17          1           0        1.272654    4.085118    1.566413
     18          6           0       -0.594603    3.434197    4.333114
     19          1           0       -0.494112    3.281167    5.404011
     20          6           0        0.541367    3.646771    3.548294
     21          1           0        1.526466    3.663304    4.005944
     22          7           0       -3.098985    1.687518   -0.706504
     23          6           0       -2.362473    0.725211   -1.549411
     24          1           0       -2.589299   -0.294245   -1.221595
     25          6           0       -0.859870    0.928406   -1.352167
     26          6           0       -2.864933    1.008265   -2.978074
     27          1           0       -2.104991    0.827498   -3.740500
     28          1           0       -3.704846    0.335416   -3.177703
     29          8           0       -0.255094    1.675616   -2.230772
     30          6           0       -3.342161    2.469295   -2.927932
     31          1           0       -2.496485    3.152861   -3.053004
     32          1           0       -4.077653    2.697151   -3.702983
     33          6           0       -3.932443    2.605880   -1.519943
     34          1           0       -4.980082    2.280800   -1.492957
     35          1           0       -3.877117    3.626570   -1.137962
     36          7           0       -0.281361    0.347854   -0.329881
     37          1           0       -0.975071   -0.031406    0.336503
     38          6           0        1.113641    0.452792    0.187973
     39          1           0        1.255234    1.486395    0.528587
     40          6           0        2.143735    0.156333   -0.916683
     41          6           0        1.317172   -0.529503    1.352313
     42          1           0        2.365357   -0.426865    1.656800
     43          1           0        1.214283   -1.551011    0.968435
     44          8           0        2.754970   -0.860853   -1.068470
     45          6           0        0.404879   -0.305689    2.565198
     46          1           0        0.470752    0.740039    2.895057
     47          1           0       -0.641988   -0.488447    2.297457
     48          6           0        0.769764   -1.244435    3.724491
     49          1           0        1.793458   -1.032723    4.062802
     50          1           0        0.749040   -2.283334    3.372066
     51          6           0       -0.189162   -1.124405    4.915387
     52          1           0        0.142600   -1.819216    5.694307
     53          1           0       -0.112881   -0.109422    5.345763
     54          7           0       -1.554994   -1.503752    4.530527
     55          1           0       -2.030716   -0.721505    4.085119
     56          1           0       -2.100182   -1.730653    5.359281
     57          8           0        2.315610    1.254946   -1.732443
     58          1           0        0.729077    1.745511   -2.097652
     59          1           0        2.982432    1.029965   -2.413908
 ---------------------------------------------------------------------

 SCF Done:  E(RB3LYP) =  -1300.50190068     A.U. after    1 cycles

 Alpha  occ. eigenvalues --  -19.37718 -19.36570 -19.30158 -19.25749 -14.55675
 Alpha  occ. eigenvalues --  -14.50782 -14.41725 -14.38860 -10.49579 -10.48014
 Alpha  occ. eigenvalues --  -10.41751 -10.40160 -10.39196 -10.35470 -10.34074
 Alpha  occ. eigenvalues --  -10.32802 -10.31790 -10.31393 -10.29755 -10.29667
 Alpha  occ. eigenvalues --  -10.29102 -10.29028 -10.28584 -10.28517 -10.28486
 Alpha  occ. eigenvalues --  -10.28448 -10.28332 -10.26567  -1.28238  -1.26241
 Alpha  occ. eigenvalues --   -1.18028  -1.17531  -1.12645  -1.08231  -0.99710
 Alpha  occ. eigenvalues --   -0.95958  -0.95419  -0.95107  -0.93099  -0.89996
 Alpha  occ. eigenvalues --   -0.87747  -0.87267  -0.84075  -0.82719  -0.82374
 Alpha  occ. eigenvalues --   -0.81270  -0.78526  -0.77345  -0.74354  -0.74269
 Alpha  occ. eigenvalues --   -0.73787  -0.71735  -0.70242  -0.69614  -0.67849
 Alpha  occ. eigenvalues --   -0.67138  -0.66722  -0.65383  -0.64883  -0.64063
 Alpha  occ. eigenvalues --   -0.62527  -0.61448  -0.60257  -0.59882  -0.59527
 Alpha  occ. eigenvalues --   -0.59216  -0.58129  -0.57370  -0.57009  -0.56568
 Alpha  occ. eigenvalues --   -0.56255  -0.55559  -0.55149  -0.54851  -0.54572
 Alpha  occ. eigenvalues --   -0.53902  -0.53256  -0.52538  -0.51961  -0.51646
 Alpha  occ. eigenvalues --   -0.51509  -0.49960  -0.49333  -0.49014  -0.48578
 Alpha  occ. eigenvalues --   -0.48434  -0.48022  -0.47737  -0.47454  -0.47384
 Alpha  occ. eigenvalues --   -0.46800  -0.46271  -0.45168  -0.43584  -0.43320
 Alpha  occ. eigenvalues --   -0.43089  -0.42912  -0.42497  -0.41432  -0.39330
 Alpha  occ. eigenvalues --   -0.38765  -0.35046  -0.34816  -0.33767  -0.31107
 Alpha virt. eigenvalues --   -0.18756  -0.15902  -0.12052  -0.10389  -0.09928
 Alpha virt. eigenvalues --   -0.08103  -0.05048  -0.03155  -0.03051  -0.02610
 Alpha virt. eigenvalues --   -0.01171  -0.00464  -0.00401   0.00738   0.01032

 Mulliken charges:
               1
     1  N   -0.691693
     2  H    0.320358
     3  H    0.317920
     4  C   -0.088463
     5  H    0.166157
     6  C    0.610935
     7  C   -0.356431
     8  H    0.150814
     9  H    0.198781
    10  O   -0.549976
    11  C    0.163939
    12  C   -0.200491
    13  H    0.114488
    14  C   -0.192280
    15  H    0.164792
    16  C   -0.141142
    17  H    0.135206
    18  C   -0.127837
    19  H    0.156553
    20  C   -0.133154
    21  H    0.151840
    22  N   -0.452138
    23  C   -0.068193
    24  H    0.212498
    25  C    0.637907
    26  C   -0.308897
    27  H    0.189537
    28  H    0.189118
    29  O   -0.559056
    30  C   -0.308003
    31  H    0.179002
    32  H    0.191898
    33  C   -0.142062
    34  H    0.185538
    35  H    0.191096
    36  N   -0.583690
    37  H    0.436169
    38  C   -0.063406
    39  H    0.220978
    40  C    0.593960
    41  C   -0.299232
    42  H    0.183029
    43  H    0.188663
    44  O   -0.375990
    45  C   -0.321521
    46  H    0.156995
    47  H    0.173880
    48  C   -0.239043
    49  H    0.137321
    50  H    0.154983
    51  C   -0.152172
    52  H    0.158235
    53  H    0.120330
    54  N   -0.725392
    55  H    0.297782
    56  H    0.311181
    57  O   -0.614030
    58  H    0.479666
    59  H    0.452748
 Sum of Mulliken charges =   1.00000

 Dipole moment (field-independent basis, Debye):
    X=             -4.5613    Y=              7.5976    Z=             -2.8323  Tot=              9.3033
 Quadrupole moment (field-independent basis, Debye-Ang):
   XX=           -120.7913   YY=           -153.6198   ZZ=           -122.7440
   XY=             -7.6311   XZ=              6.1168   YZ=             -7.1068

 Normal termination of Gaussian 16 at Wed May 25 20:18:27 2022.
