 Gaussian 16, Revision C.01,
 Gaussian 16:  ES64L-G16RevC.01  3-Jul-2019

 -------------------------------------------------------------------
 # B3LYP/6-31G* guess=read geom=check nosymm integral(ultrafinegrid)
 -------------------------------------------------------------------

 ------------------------------------------------------
 Candidate Structure: Conf:448 Charge calc in gas phase
 ------------------------------------------------------
 Structure from the checkpoint file:  "conf-448.chk"
 Charge =  1 Multiplicity = 1

                          Input orientation:
 ---------------------------------------------------------------------
 Center     Atomic      Atomic             Coordinates (Angstroms)
 Number     Number       Type             X           Y           Z
 ---------------------------------------------------------------------
      1          7           0       -3.962299    3.333727    0.952390
      2          1           0       -3.297936    2.971872    1.635516
      3          1           0       -4.864376    2.914242    1.167799
      4          6           0       -3.523287    2.971058   -0.384305
      5          1           0       -4.364999    3.110630   -1.069070
      6          6           0       -3.024964    1.520124   -0.457843
      7          6           0       -2.359013    3.905736   -0.841723
      8          1           0       -1.643446    3.951522   -0.010531
      9          1           0       -1.829149    3.443806   -1.685626
     10          8           0       -2.464752    1.001439    0.527163
     11          6           0       -2.818502    5.289987   -1.246381
     12          6           0       -2.840491    5.651462   -2.599997
     13          1           0       -2.499964    4.941757   -3.352856
     14          6           0       -3.238147    6.228182   -0.292311
     15          1           0       -3.235253    5.957645    0.758199
     16          6           0       -3.274968    6.916618   -2.998360
     17          1           0       -3.279088    7.180582   -4.052336
     18          6           0       -3.673370    7.492660   -0.688820
     19          1           0       -3.994232    8.209677    0.061773
     20          6           0       -3.694170    7.840944   -2.041191
     21          1           0       -4.029556    8.828210   -2.345905
     22          7           0       -3.153227    0.826393   -1.623827
     23          6           0       -2.890917   -0.628993   -1.662652
     24          1           0       -3.258837   -1.082668   -0.734129
     25          6           0       -1.387948   -0.919395   -1.700014
     26          6           0       -3.666344   -1.108168   -2.902083
     27          1           0       -3.229032   -1.996071   -3.360448
     28          1           0       -4.684932   -1.357563   -2.588426
     29          8           0       -0.921388   -1.537643   -2.750045
     30          6           0       -3.672280    0.121306   -3.824512
     31          1           0       -2.718454    0.205082   -4.357090
     32          1           0       -4.469877    0.085897   -4.570016
     33          6           0       -3.848043    1.292001   -2.850782
     34          1           0       -4.907948    1.471636   -2.634875
     35          1           0       -3.407041    2.223263   -3.213760
     36          7           0       -0.654004   -0.547025   -0.684447
     37          1           0       -1.204625   -0.037564    0.046980
     38          6           0        0.829009   -0.540650   -0.578472
     39          1           0        1.224468   -0.138030   -1.519713
     40          6           0        1.337207   -1.985441   -0.435148
     41          6           0        1.260166    0.339012    0.599177
     42          1           0        0.986310   -0.168552    1.531529
     43          1           0        0.686487    1.273326    0.552218
     44          8           0        1.711524   -2.525655    0.564008
     45          6           0        2.764803    0.640630    0.578056
     46          1           0        3.345964   -0.287036    0.584935
     47          1           0        3.016927    1.169164   -0.353272
     48          6           0        3.211537    1.487683    1.776310
     49          1           0        2.914335    0.984275    2.708104
     50          1           0        2.697809    2.458719    1.771283
     51          6           0        4.727300    1.726347    1.796398
     52          1           0        5.023553    2.238212    0.871813
     53          1           0        4.964443    2.414435    2.625468
     54          7           0        5.452737    0.451548    1.849514
     55          1           0        5.374070    0.048856    2.782940
     56          1           0        6.446775    0.610404    1.696689
     57          8           0        1.285735   -2.612794   -1.658809
     58          1           0       -0.006198   -1.899555   -2.612360
     59          1           0        1.584705   -3.539044   -1.555041
 ---------------------------------------------------------------------

 SCF Done:  E(RB3LYP) =  -1300.50639214     A.U. after    1 cycles

 Alpha  occ. eigenvalues --  -19.37839 -19.36066 -19.29613 -19.26028 -14.55282
 Alpha  occ. eigenvalues --  -14.51016 -14.41446 -14.38587 -10.49523 -10.47508
 Alpha  occ. eigenvalues --  -10.41924 -10.40067 -10.39586 -10.35465 -10.33526
 Alpha  occ. eigenvalues --  -10.32801 -10.31915 -10.31447 -10.29120 -10.28420
 Alpha  occ. eigenvalues --  -10.28143 -10.27067 -10.26864 -10.26176 -10.25721
 Alpha  occ. eigenvalues --  -10.25490 -10.25440 -10.25386  -1.28193  -1.25784
 Alpha  occ. eigenvalues --   -1.17751  -1.17514  -1.12497  -1.08438  -0.99301
 Alpha  occ. eigenvalues --   -0.95928  -0.95288  -0.93317  -0.92391  -0.90053
 Alpha  occ. eigenvalues --   -0.86934  -0.86213  -0.82397  -0.81391  -0.81231
 Alpha  occ. eigenvalues --   -0.81069  -0.77880  -0.77213  -0.74168  -0.73866
 Alpha  occ. eigenvalues --   -0.73117  -0.70937  -0.69672  -0.67636  -0.67324
 Alpha  occ. eigenvalues --   -0.66801  -0.66186  -0.65562  -0.64529  -0.63959
 Alpha  occ. eigenvalues --   -0.62213  -0.61271  -0.59365  -0.59245  -0.58871
 Alpha  occ. eigenvalues --   -0.58198  -0.57696  -0.57344  -0.56844  -0.56136
 Alpha  occ. eigenvalues --   -0.55217  -0.54688  -0.54485  -0.54153  -0.53232
 Alpha  occ. eigenvalues --   -0.53200  -0.52557  -0.52230  -0.51870  -0.50882
 Alpha  occ. eigenvalues --   -0.50053  -0.49713  -0.48662  -0.48470  -0.48130
 Alpha  occ. eigenvalues --   -0.47692  -0.47446  -0.47377  -0.47162  -0.46443
 Alpha  occ. eigenvalues --   -0.46167  -0.45556  -0.43482  -0.42493  -0.42410
 Alpha  occ. eigenvalues --   -0.42275  -0.41744  -0.41393  -0.40795  -0.39741
 Alpha  occ. eigenvalues --   -0.38978  -0.34063  -0.31622  -0.31253  -0.30905
 Alpha virt. eigenvalues --   -0.18917  -0.15004  -0.12402  -0.07862  -0.07087
 Alpha virt. eigenvalues --   -0.06832  -0.04778  -0.03054  -0.02340  -0.01331
 Alpha virt. eigenvalues --   -0.00649  -0.00516   0.00488   0.00644   0.01255

 Mulliken charges:
               1
     1  N   -0.685830
     2  H    0.321993
     3  H    0.316376
     4  C   -0.068193
     5  H    0.167724
     6  C    0.596669
     7  C   -0.354590
     8  H    0.164662
     9  H    0.133231
    10  O   -0.567936
    11  C    0.165395
    12  C   -0.193127
    13  H    0.108430
    14  C   -0.159390
    15  H    0.150145
    16  C   -0.126752
    17  H    0.140620
    18  C   -0.130955
    19  H    0.145808
    20  C   -0.126071
    21  H    0.146546
    22  N   -0.449108
    23  C   -0.078081
    24  H    0.223115
    25  C    0.629878
    26  C   -0.306884
    27  H    0.195918
    28  H    0.187932
    29  O   -0.557467
    30  C   -0.312912
    31  H    0.174731
    32  H    0.194638
    33  C   -0.139841
    34  H    0.188997
    35  H    0.194585
    36  N   -0.587344
    37  H    0.445540
    38  C   -0.072916
    39  H    0.208789
    40  C    0.629183
    41  C   -0.304558
    42  H    0.188458
    43  H    0.165077
    44  O   -0.383087
    45  C   -0.274100
    46  H    0.191376
    47  H    0.136177
    48  C   -0.261279
    49  H    0.142045
    50  H    0.139369
    51  C   -0.144475
    52  H    0.144731
    53  H    0.136717
    54  N   -0.721431
    55  H    0.302766
    56  H    0.311832
    57  O   -0.617880
    58  H    0.481508
    59  H    0.453247
 Sum of Mulliken charges =   1.00000

 Dipole moment (field-independent basis, Debye):
    X=             -4.9722    Y=             -0.4668    Z=             -7.4522  Tot=              8.9708
 Quadrupole moment (field-independent basis, Debye-Ang):
   XX=           -108.5022   YY=           -133.3251   ZZ=           -134.3252
   XY=             -6.6104   XZ=             25.3938   YZ=              7.0118

 Normal termination of Gaussian 16 at Wed May 25 20:18:11 2022.
