 Gaussian 16, Revision C.01,
 Gaussian 16:  ES64L-G16RevC.01  3-Jul-2019

 -------------------------------------------------------------------
 # B3LYP/6-31G* guess=read geom=check nosymm integral(ultrafinegrid)
 -------------------------------------------------------------------

 ------------------------------------------------------
 Candidate Structure: Conf:123 Charge calc in gas phase
 ------------------------------------------------------
 Structure from the checkpoint file:  "conf-123.chk"
 Charge =  1 Multiplicity = 1

                          Input orientation:
 ---------------------------------------------------------------------
 Center     Atomic      Atomic             Coordinates (Angstroms)
 Number     Number       Type             X           Y           Z
 ---------------------------------------------------------------------
      1          7           0       -3.633175   -0.880220    4.865577
      2          1           0       -2.712560   -1.248674    5.098056
      3          1           0       -4.184781   -1.671392    4.539417
      4          6           0       -3.505945    0.117751    3.821630
      5          1           0       -4.516868    0.363288    3.479514
      6          6           0       -2.665718   -0.378510    2.629587
      7          6           0       -2.884997    1.430034    4.396667
      8          1           0       -2.890269    2.203441    3.618913
      9          1           0       -3.570314    1.756869    5.184789
     10          8           0       -1.860694   -1.314421    2.794769
     11          6           0       -1.485845    1.269223    4.953892
     12          6           0       -1.285383    0.768109    6.249033
     13          1           0       -2.147081    0.514501    6.860215
     14          6           0       -0.360911    1.616281    4.191858
     15          1           0       -0.499507    2.045405    3.200314
     16          6           0        0.003418    0.602150    6.758531
     17          1           0        0.137970    0.218531    7.765966
     18          6           0        0.930721    1.456435    4.699612
     19          1           0        1.789545    1.748141    4.101551
     20          6           0        1.114603    0.942271    5.985088
     21          1           0        2.116800    0.826117    6.387847
     22          7           0       -2.754296    0.227873    1.409284
     23          6           0       -2.146966   -0.426114    0.220139
     24          1           0       -2.312427   -1.508149    0.313457
     25          6           0       -0.625536   -0.254415    0.139857
     26          6           0       -2.906859    0.166430   -0.989231
     27          1           0       -2.334144    0.983870   -1.434225
     28          1           0       -3.065181   -0.585039   -1.765869
     29          8           0       -0.162429    0.194640   -0.993154
     30          6           0       -4.212051    0.703928   -0.382400
     31          1           0       -4.667938    1.481571   -0.999984
     32          1           0       -4.944153   -0.100388   -0.251999
     33          6           0       -3.762106    1.226254    0.983802
     34          1           0       -4.571646    1.292245    1.709737
     35          1           0       -3.294905    2.215407    0.902966
     36          7           0        0.101384   -0.599467    1.169704
     37          1           0       -0.495141   -0.967611    1.954176
     38          6           0        1.570978   -0.722841    1.354703
     39          1           0        1.694276   -0.835020    2.433280
     40          6           0        2.348403    0.552959    1.014292
     41          6           0        2.129348   -1.967763    0.628417
     42          1           0        1.966406   -1.867313   -0.451891
     43          1           0        1.537340   -2.828136    0.962688
     44          8           0        2.965799    1.223283    1.791892
     45          6           0        3.617327   -2.213938    0.918997
     46          1           0        4.214646   -1.363088    0.562361
     47          1           0        3.772009   -2.265428    2.005548
     48          6           0        4.138572   -3.502305    0.265554
     49          1           0        3.977865   -3.456683   -0.821681
     50          1           0        3.557251   -4.361111    0.631239
     51          6           0        5.635301   -3.747780    0.545364
     52          1           0        6.215934   -2.889932    0.180599
     53          1           0        5.797698   -3.787458    1.630509
     54          7           0        6.211250   -4.954524   -0.035160
     55          1           0        6.110770   -4.953088   -1.048572
     56          1           0        5.732108   -5.785312    0.307237
     57          8           0        2.314091    0.830771   -0.332561
     58          1           0        0.815062    0.375649   -0.973984
     59          1           0        2.837193    1.641600   -0.497582
 ---------------------------------------------------------------------

 SCF Done:  E(RB3LYP) =  -1300.50253421     A.U. after    1 cycles

 Alpha  occ. eigenvalues --  -19.37423 -19.36808 -19.30188 -19.25987 -14.55046
 Alpha  occ. eigenvalues --  -14.51104 -14.41244 -14.38378 -10.49482 -10.48221
 Alpha  occ. eigenvalues --  -10.42055 -10.40299 -10.39568 -10.35551 -10.33908
 Alpha  occ. eigenvalues --  -10.33058 -10.32705 -10.31760 -10.30145 -10.29327
 Alpha  occ. eigenvalues --  -10.28694 -10.28618 -10.27972 -10.27749 -10.27563
 Alpha  occ. eigenvalues --  -10.27274 -10.27218 -10.27148  -1.28057  -1.26392
 Alpha  occ. eigenvalues --   -1.18099  -1.17881  -1.12246  -1.08344  -0.99386
 Alpha  occ. eigenvalues --   -0.96248  -0.95348  -0.93972  -0.93231  -0.90520
 Alpha  occ. eigenvalues --   -0.87755  -0.86951  -0.82870  -0.82491  -0.81923
 Alpha  occ. eigenvalues --   -0.81212  -0.78880  -0.78323  -0.73957  -0.73595
 Alpha  occ. eigenvalues --   -0.73392  -0.72430  -0.70230  -0.69042  -0.68802
 Alpha  occ. eigenvalues --   -0.67820  -0.66743  -0.65254  -0.64360  -0.63016
 Alpha  occ. eigenvalues --   -0.62215  -0.61718  -0.60376  -0.60151  -0.59296
 Alpha  occ. eigenvalues --   -0.59241  -0.58444  -0.57907  -0.57393  -0.56180
 Alpha  occ. eigenvalues --   -0.56022  -0.55283  -0.54877  -0.54785  -0.54360
 Alpha  occ. eigenvalues --   -0.53547  -0.52891  -0.52661  -0.51326  -0.51141
 Alpha  occ. eigenvalues --   -0.50352  -0.50223  -0.49941  -0.48892  -0.48580
 Alpha  occ. eigenvalues --   -0.48368  -0.48269  -0.48052  -0.47493  -0.46986
 Alpha  occ. eigenvalues --   -0.46873  -0.45781  -0.45278  -0.44188  -0.44075
 Alpha  occ. eigenvalues --   -0.42774  -0.42428  -0.42194  -0.42097  -0.39631
 Alpha  occ. eigenvalues --   -0.39063  -0.34439  -0.33566  -0.32802  -0.30380
 Alpha virt. eigenvalues --   -0.18522  -0.15720  -0.12302  -0.09121  -0.08725
 Alpha virt. eigenvalues --   -0.08621  -0.04982  -0.03107  -0.02760  -0.02116
 Alpha virt. eigenvalues --   -0.01093  -0.00772   0.00255   0.00502   0.00803

 Mulliken charges:
               1
     1  N   -0.686924
     2  H    0.327204
     3  H    0.314864
     4  C   -0.083305
     5  H    0.160626
     6  C    0.613022
     7  C   -0.355167
     8  H    0.149121
     9  H    0.193560
    10  O   -0.563155
    11  C    0.161268
    12  C   -0.189421
    13  H    0.161932
    14  C   -0.202815
    15  H    0.100522
    16  C   -0.125408
    17  H    0.153708
    18  C   -0.151822
    19  H    0.155197
    20  C   -0.132132
    21  H    0.149379
    22  N   -0.451576
    23  C   -0.064408
    24  H    0.223899
    25  C    0.610752
    26  C   -0.314511
    27  H    0.188394
    28  H    0.193455
    29  O   -0.556569
    30  C   -0.295635
    31  H    0.189496
    32  H    0.176784
    33  C   -0.149944
    34  H    0.196182
    35  H    0.180464
    36  N   -0.583426
    37  H    0.448566
    38  C   -0.084919
    39  H    0.232119
    40  C    0.609681
    41  C   -0.273968
    42  H    0.157931
    43  H    0.180721
    44  O   -0.388158
    45  C   -0.281259
    46  H    0.153175
    47  H    0.161620
    48  C   -0.270620
    49  H    0.133923
    50  H    0.139045
    51  C   -0.140906
    52  H    0.148363
    53  H    0.151959
    54  N   -0.696406
    55  H    0.299739
    56  H    0.301190
    57  O   -0.612945
    58  H    0.482318
    59  H    0.455219
 Sum of Mulliken charges =   1.00000

 Dipole moment (field-independent basis, Debye):
    X=             -3.4927    Y=             -0.8972    Z=              1.9712  Tot=              4.1097
 Quadrupole moment (field-independent basis, Debye-Ang):
   XX=           -131.5233   YY=           -148.9628   ZZ=           -145.1757
   XY=             -3.7785   XZ=             -8.0650   YZ=             -3.8593

 Normal termination of Gaussian 16 at Wed May 25 20:18:22 2022.
