 Gaussian 16, Revision C.01,
 Gaussian 16:  ES64L-G16RevC.01  3-Jul-2019

 -------------------------------------------------------------------
 # B3LYP/6-31G* guess=read geom=check nosymm integral(ultrafinegrid)
 -------------------------------------------------------------------

 ------------------------------------------------------
 Candidate Structure: Conf:885 Charge calc in gas phase
 ------------------------------------------------------
 Structure from the checkpoint file:  "conf-885.chk"
 Charge =  1 Multiplicity = 1

                          Input orientation:
 ---------------------------------------------------------------------
 Center     Atomic      Atomic             Coordinates (Angstroms)
 Number     Number       Type             X           Y           Z
 ---------------------------------------------------------------------
      1          7           0       -3.939987    3.913322   -0.808801
      2          1           0       -3.067135    4.096168   -0.317241
      3          1           0       -4.617280    3.647803   -0.096180
      4          6           0       -3.743752    2.823443   -1.751169
      5          1           0       -4.734718    2.495017   -2.082429
      6          6           0       -3.001276    1.630738   -1.122776
      7          6           0       -2.996306    3.325686   -3.025234
      8          1           0       -2.980797    2.522108   -3.771265
      9          1           0       -3.619927    4.129645   -3.429300
     10          8           0       -2.230929    1.785451   -0.162427
     11          6           0       -1.585172    3.828515   -2.796068
     12          6           0       -1.352522    5.088422   -2.220662
     13          1           0       -2.198086    5.713558   -1.948240
     14          6           0       -0.479730    3.053948   -3.176322
     15          1           0       -0.638667    2.088978   -3.652175
     16          6           0       -0.050710    5.548956   -2.014054
     17          1           0        0.109673    6.530523   -1.576728
     18          6           0        0.824450    3.514871   -2.981279
     19          1           0        1.664905    2.905654   -3.302546
     20          6           0        1.043550    4.764362   -2.393652
     21          1           0        2.055706    5.136042   -2.258647
     22          7           0       -3.168418    0.378356   -1.633184
     23          6           0       -2.474419   -0.742315   -0.978861
     24          1           0       -2.802176   -0.829185    0.063623
     25          6           0       -0.989098   -0.520114   -0.953671
     26          6           0       -2.883553   -1.978648   -1.819406
     27          1           0       -2.161262   -2.138115   -2.626459
     28          1           0       -2.921021   -2.884179   -1.209464
     29          8           0       -0.356981   -0.317382   -2.110734
     30          6           0       -4.248262   -1.571317   -2.399839
     31          1           0       -4.513528   -2.151447   -3.286880
     32          1           0       -5.038265   -1.711582   -1.654175
     33          6           0       -4.072992   -0.079517   -2.707990
     34          1           0       -5.016410    0.469885   -2.680618
     35          1           0       -3.609379    0.077187   -3.689351
     36          7           0       -0.212166   -0.545910    0.078904
     37          1           0       -0.484756   -0.458016    1.153378
     38          6           0        1.159088   -0.186271   -0.304082
     39          1           0        1.288336    0.864762    0.010591
     40          6           0        1.055598   -0.144386   -1.812702
     41          6           0        2.252115   -1.113289    0.261830
     42          1           0        3.206665   -0.582790    0.176794
     43          1           0        2.330620   -2.002832   -0.373645
     44          8           0        1.846660    0.005381   -2.679765
     45          6           0        2.014330   -1.584993    1.710209
     46          1           0        1.077880   -2.157038    1.747708
     47          1           0        2.803138   -2.315059    1.925042
     48          6           0        2.039656   -0.550722    2.854591
     49          1           0        3.002288   -0.023648    2.855464
     50          1           0        2.016012   -1.123045    3.791785
     51          6           0        0.934938    0.517964    2.915262
     52          1           0        0.985945    1.008205    3.895722
     53          1           0        1.074429    1.302847    2.166822
     54          7           0       -0.426049   -0.048840    2.682490
     55          1           0       -1.121851    0.685205    2.821086
     56          1           0       -0.632481   -0.776532    3.368730
     57          8           0        0.420160    2.686982    0.330255
     58          1           0       -0.536674    2.610300    0.152221
     59          1           0        0.718272    3.409413   -0.247341
 ---------------------------------------------------------------------

 SCF Done:  E(RB3LYP) =  -1300.51649315     A.U. after    1 cycles

 Alpha  occ. eigenvalues --  -19.36752 -19.30138 -19.24953 -19.23544 -14.52677
 Alpha  occ. eigenvalues --  -14.50255 -14.47424 -14.41470 -10.47281 -10.47085
 Alpha  occ. eigenvalues --  -10.41231 -10.38992 -10.37761 -10.35180 -10.33684
 Alpha  occ. eigenvalues --  -10.32999 -10.32808 -10.32111 -10.31747 -10.30606
 Alpha  occ. eigenvalues --  -10.29986 -10.29242 -10.29032 -10.28088 -10.28030
 Alpha  occ. eigenvalues --  -10.27981 -10.27911 -10.27666  -1.28656  -1.20419
 Alpha  occ. eigenvalues --   -1.16829  -1.10260  -1.09243  -1.07817  -1.02474
 Alpha  occ. eigenvalues --   -0.99391  -0.95108  -0.94437  -0.92654  -0.90641
 Alpha  occ. eigenvalues --   -0.87542  -0.87089  -0.83302  -0.83208  -0.82080
 Alpha  occ. eigenvalues --   -0.79952  -0.77873  -0.76461  -0.74851  -0.74013
 Alpha  occ. eigenvalues --   -0.73073  -0.70056  -0.69392  -0.68776  -0.67264
 Alpha  occ. eigenvalues --   -0.65887  -0.64898  -0.63608  -0.63205  -0.62947
 Alpha  occ. eigenvalues --   -0.62081  -0.61009  -0.59623  -0.59462  -0.59204
 Alpha  occ. eigenvalues --   -0.58619  -0.58131  -0.57386  -0.56919  -0.56180
 Alpha  occ. eigenvalues --   -0.55407  -0.55298  -0.54983  -0.54722  -0.54133
 Alpha  occ. eigenvalues --   -0.53652  -0.53325  -0.52629  -0.51456  -0.51224
 Alpha  occ. eigenvalues --   -0.50746  -0.50467  -0.50061  -0.49121  -0.48689
 Alpha  occ. eigenvalues --   -0.48207  -0.47769  -0.47391  -0.46987  -0.46773
 Alpha  occ. eigenvalues --   -0.45805  -0.45142  -0.44835  -0.44493  -0.43409
 Alpha  occ. eigenvalues --   -0.42995  -0.42733  -0.42572  -0.39929  -0.39385
 Alpha  occ. eigenvalues --   -0.38501  -0.38036  -0.34678  -0.34014  -0.33265
 Alpha virt. eigenvalues --   -0.18088  -0.13619  -0.11403  -0.09672  -0.09154
 Alpha virt. eigenvalues --   -0.05960  -0.04324  -0.02820  -0.02178  -0.01771
 Alpha virt. eigenvalues --   -0.01216  -0.00537   0.00033   0.00875   0.01447

 Mulliken charges:
               1
     1  N   -0.687407
     2  H    0.316751
     3  H    0.313685
     4  C   -0.089544
     5  H    0.157873
     6  C    0.614266
     7  C   -0.349775
     8  H    0.151864
     9  H    0.194468
    10  O   -0.571624
    11  C    0.153149
    12  C   -0.193487
    13  H    0.167029
    14  C   -0.201508
    15  H    0.134489
    16  C   -0.131465
    17  H    0.157174
    18  C   -0.141293
    19  H    0.157795
    20  C   -0.168446
    21  H    0.155049
    22  N   -0.451122
    23  C   -0.032826
    24  H    0.190022
    25  C    0.702892
    26  C   -0.323356
    27  H    0.190886
    28  H    0.189820
    29  O   -0.467728
    30  C   -0.307065
    31  H    0.191808
    32  H    0.178449
    33  C   -0.135585
    34  H    0.190434
    35  H    0.186923
    36  N   -0.614010
    37  H    0.449984
    38  C   -0.097214
    39  H    0.293097
    40  C    0.616605
    41  C   -0.272444
    42  H    0.189764
    43  H    0.172778
    44  O   -0.378471
    45  C   -0.289302
    46  H    0.142495
    47  H    0.180577
    48  C   -0.282117
    49  H    0.171365
    50  H    0.161611
    51  C   -0.183364
    52  H    0.174144
    53  H    0.212008
    54  N   -0.794059
    55  H    0.355392
    56  H    0.341399
    57  O   -0.835491
    58  H    0.430970
    59  H    0.411687
 Sum of Mulliken charges =   1.00000

 Dipole moment (field-independent basis, Debye):
    X=             -6.6967    Y=             -0.7657    Z=              0.4141  Tot=              6.7530
 Quadrupole moment (field-independent basis, Debye-Ang):
   XX=           -119.9589   YY=           -141.0926   ZZ=           -138.8812
   XY=              3.6807   XZ=             19.3342   YZ=             -2.3974

 Normal termination of Gaussian 16 at Wed May 25 20:22:00 2022.
