 Gaussian 16, Revision C.01,
 Gaussian 16:  ES64L-G16RevC.01  3-Jul-2019

 -------------------------------------------------------------------
 # B3LYP/6-31G* guess=read geom=check nosymm integral(ultrafinegrid)
 -------------------------------------------------------------------

 ------------------------------------------------------
 Candidate Structure: Conf:669 Charge calc in gas phase
 ------------------------------------------------------
 Structure from the checkpoint file:  "conf-669.chk"
 Charge =  1 Multiplicity = 1

                          Input orientation:
 ---------------------------------------------------------------------
 Center     Atomic      Atomic             Coordinates (Angstroms)
 Number     Number       Type             X           Y           Z
 ---------------------------------------------------------------------
      1          7           0       -4.446973   -3.628367    0.909862
      2          1           0       -4.954044   -4.344770    1.425779
      3          1           0       -4.818661   -3.632255   -0.039320
      4          6           0       -3.020806   -3.942954    0.912300
      5          1           0       -2.734194   -4.125192    1.955869
      6          6           0       -2.273882   -2.675047    0.502417
      7          6           0       -2.586705   -5.187703    0.091445
      8          1           0       -2.883517   -5.056514   -0.960878
      9          1           0       -1.492141   -5.288906    0.128698
     10          8           0       -1.544580   -2.637754   -0.599023
     11          6           0       -3.221110   -6.454240    0.632236
     12          6           0       -2.639139   -7.123521    1.717822
     13          1           0       -1.706161   -6.758769    2.143232
     14          6           0       -4.410950   -6.952154    0.085507
     15          1           0       -4.863055   -6.457612   -0.771777
     16          6           0       -3.237389   -8.266370    2.247962
     17          1           0       -2.771550   -8.780424    3.083512
     18          6           0       -5.009941   -8.096786    0.615060
     19          1           0       -5.926999   -8.477816    0.175419
     20          6           0       -4.425158   -8.754069    1.698262
     21          1           0       -4.887434   -9.647548    2.107068
     22          7           0       -2.330525   -1.569699    1.181780
     23          6           0       -1.529076   -0.372834    0.822417
     24          1           0       -1.629498   -0.177776   -0.248282
     25          6           0       -0.052397   -0.659453    1.206671
     26          6           0       -2.158192    0.727708    1.701313
     27          1           0       -1.455071    1.542080    1.891420
     28          1           0       -3.033476    1.146721    1.193138
     29          8           0        0.216006   -1.510373    2.044966
     30          6           0       -2.567630   -0.026777    2.976269
     31          1           0       -1.699621   -0.179166    3.623018
     32          1           0       -3.337135    0.497233    3.547567
     33          6           0       -3.077769   -1.377532    2.458804
     34          1           0       -4.144224   -1.385068    2.225118
     35          1           0       -2.862440   -2.205899    3.136914
     36          7           0        0.854994    0.129111    0.586517
     37          1           0        0.547294    0.719564   -0.173798
     38          6           0        2.299245    0.041004    0.836604
     39          1           0        2.760452    0.715687    0.103529
     40          6           0        2.870165   -1.347791    0.513407
     41          6           0        2.721706    0.501759    2.243144
     42          1           0        3.791264    0.288193    2.334413
     43          1           0        2.212928   -0.121321    2.986291
     44          8           0        3.938809   -1.740773    0.911910
     45          6           0        2.458786    1.988782    2.506678
     46          1           0        2.958150    2.592778    1.733340
     47          1           0        1.382902    2.198836    2.415063
     48          6           0        2.950700    2.438661    3.888843
     49          1           0        4.025620    2.225182    3.973981
     50          1           0        2.456261    1.837711    4.667151
     51          6           0        2.719658    3.934396    4.182030
     52          1           0        3.195831    4.183288    5.137693
     53          1           0        3.230113    4.538214    3.420054
     54          7           0        1.331411    4.395690    4.252079
     55          1           0        0.820196    3.871325    4.960784
     56          1           0        0.852750    4.241806    3.366961
     57          8           0        2.078959   -2.070771   -0.315300
     58          1           0       -1.516122   -3.510692   -1.028804
     59          1           0        2.569870   -2.900639   -0.472627
 ---------------------------------------------------------------------

 SCF Done:  E(RB3LYP) =  -1300.49861692     A.U. after    1 cycles

 Alpha  occ. eigenvalues --  -19.38008 -19.29216 -19.24108 -19.23198 -14.55790
 Alpha  occ. eigenvalues --  -14.48701 -14.46610 -14.37709 -10.48485 -10.41630
 Alpha  occ. eigenvalues --  -10.41568 -10.39130 -10.38331 -10.36624 -10.34763
 Alpha  occ. eigenvalues --  -10.33762 -10.32994 -10.32004 -10.31057 -10.29558
 Alpha  occ. eigenvalues --  -10.29451 -10.28917 -10.28886 -10.28671 -10.27328
 Alpha  occ. eigenvalues --  -10.26946 -10.26761 -10.25168  -1.27900  -1.20093
 Alpha  occ. eigenvalues --   -1.16491  -1.13238  -1.10981  -1.04877  -1.04539
 Alpha  occ. eigenvalues --   -0.96196  -0.96028  -0.94376  -0.90995  -0.90502
 Alpha  occ. eigenvalues --   -0.88490  -0.85736  -0.84588  -0.84134  -0.82708
 Alpha  occ. eigenvalues --   -0.78274  -0.77646  -0.76528  -0.73592  -0.72887
 Alpha  occ. eigenvalues --   -0.71410  -0.70981  -0.69905  -0.69275  -0.67998
 Alpha  occ. eigenvalues --   -0.67086  -0.66787  -0.65413  -0.63497  -0.62097
 Alpha  occ. eigenvalues --   -0.61394  -0.60518  -0.59885  -0.58936  -0.58046
 Alpha  occ. eigenvalues --   -0.57571  -0.57293  -0.56755  -0.56105  -0.55989
 Alpha  occ. eigenvalues --   -0.55821  -0.55400  -0.54530  -0.54137  -0.53743
 Alpha  occ. eigenvalues --   -0.52856  -0.52461  -0.52165  -0.51889  -0.50983
 Alpha  occ. eigenvalues --   -0.50449  -0.50181  -0.49805  -0.49152  -0.48406
 Alpha  occ. eigenvalues --   -0.48167  -0.47780  -0.46948  -0.46152  -0.45779
 Alpha  occ. eigenvalues --   -0.44653  -0.44322  -0.43980  -0.43534  -0.42270
 Alpha  occ. eigenvalues --   -0.41200  -0.40748  -0.40070  -0.39209  -0.39041
 Alpha  occ. eigenvalues --   -0.37721  -0.35757  -0.35157  -0.34915  -0.29553
 Alpha virt. eigenvalues --   -0.18372  -0.11095  -0.10626  -0.10391  -0.08667
 Alpha virt. eigenvalues --   -0.08489  -0.05203  -0.04306  -0.03733  -0.03055
 Alpha virt. eigenvalues --   -0.01820  -0.01455  -0.00942  -0.00608   0.00044

 Mulliken charges:
               1
     1  N   -0.709839
     2  H    0.348746
     3  H    0.323216
     4  C   -0.079103
     5  H    0.211862
     6  C    0.650288
     7  C   -0.441978
     8  H    0.160341
     9  H    0.175761
    10  O   -0.557593
    11  C    0.160349
    12  C   -0.180242
    13  H    0.138285
    14  C   -0.191192
    15  H    0.130311
    16  C   -0.126265
    17  H    0.160659
    18  C   -0.126397
    19  H    0.159764
    20  C   -0.122539
    21  H    0.162810
    22  N   -0.384291
    23  C   -0.111088
    24  H    0.197208
    25  C    0.665076
    26  C   -0.299902
    27  H    0.191892
    28  H    0.185527
    29  O   -0.520644
    30  C   -0.320972
    31  H    0.199332
    32  H    0.193326
    33  C   -0.126704
    34  H    0.223433
    35  H    0.198766
    36  N   -0.606152
    37  H    0.346527
    38  C   -0.070727
    39  H    0.190638
    40  C    0.620781
    41  C   -0.266118
    42  H    0.187969
    43  H    0.172957
    44  O   -0.441632
    45  C   -0.268206
    46  H    0.136202
    47  H    0.106697
    48  C   -0.263224
    49  H    0.145034
    50  H    0.127740
    51  C   -0.148508
    52  H    0.157924
    53  H    0.147554
    54  N   -0.699327
    55  H    0.291696
    56  H    0.287406
    57  O   -0.583047
    58  H    0.471229
    59  H    0.418384
 Sum of Mulliken charges =   1.00000

 Dipole moment (field-independent basis, Debye):
    X=            -12.1374    Y=            -12.7784    Z=              2.1929  Tot=             17.7599
 Quadrupole moment (field-independent basis, Debye-Ang):
   XX=           -119.1275   YY=            -89.7021   ZZ=           -148.5188
   XY=             53.2117   XZ=            -14.2788   YZ=            -10.6880

 Normal termination of Gaussian 16 at Wed May 25 20:21:56 2022.
