 Gaussian 16, Revision C.01,
 Gaussian 16:  ES64L-G16RevC.01  3-Jul-2019

 -------------------------------------------------------------------
 # B3LYP/6-31G* guess=read geom=check nosymm integral(ultrafinegrid)
 -------------------------------------------------------------------

 -----------------------------------------------------
 Candidate Structure: Conf:34 Charge calc in gas phase
 -----------------------------------------------------
 Structure from the checkpoint file:  "conf-34.chk"
 Charge =  1 Multiplicity = 1

                          Input orientation:
 ---------------------------------------------------------------------
 Center     Atomic      Atomic             Coordinates (Angstroms)
 Number     Number       Type             X           Y           Z
 ---------------------------------------------------------------------
      1          7           0       -4.485520    4.087142    1.155306
      2          1           0       -5.106066    4.879114    0.998268
      3          1           0       -4.020976    4.243471    2.049044
      4          6           0       -3.489414    4.004346    0.081447
      5          1           0       -4.037546    3.946495   -0.863568
      6          6           0       -2.781364    2.671442    0.332578
      7          6           0       -2.477989    5.172035   -0.028124
      8          1           0       -3.060331    6.100506    0.011064
      9          1           0       -1.830632    5.161147    0.856074
     10          8           0       -1.882388    2.550511    1.182045
     11          6           0       -1.663079    5.127422   -1.305972
     12          6           0       -0.433260    4.457610   -1.366440
     13          1           0       -0.026324    3.993947   -0.472095
     14          6           0       -2.157435    5.722748   -2.475733
     15          1           0       -3.102452    6.261736   -2.445617
     16          6           0        0.280789    4.379977   -2.563827
     17          1           0        1.231586    3.854486   -2.589304
     18          6           0       -1.444701    5.650786   -3.672949
     19          1           0       -1.839104    6.128790   -4.565358
     20          6           0       -0.223138    4.975960   -3.720753
     21          1           0        0.335277    4.923004   -4.651007
     22          7           0       -3.182997    1.567804   -0.341374
     23          6           0       -2.598326    0.284584    0.035982
     24          1           0       -2.961465   -0.031434    1.024547
     25          6           0       -1.102971    0.351699    0.124118
     26          6           0       -3.096965   -0.675315   -1.073911
     27          1           0       -2.437924   -0.606389   -1.945883
     28          1           0       -3.122622   -1.714031   -0.736207
     29          8           0       -0.396223    0.881709   -0.847588
     30          6           0       -4.486374   -0.097672   -1.397736
     31          1           0       -4.848237   -0.416138   -2.378062
     32          1           0       -5.213978   -0.425367   -0.647830
     33          6           0       -4.287624    1.424679   -1.314851
     34          1           0       -5.177991    1.941788   -0.950301
     35          1           0       -3.992443    1.852063   -2.279257
     36          7           0       -0.365607   -0.243228    1.028304
     37          1           0       -0.743048   -0.639229    1.881449
     38          6           0        1.074123   -0.111319    0.755286
     39          1           0        1.518734    0.529328    1.523859
     40          6           0        1.029928    0.697197   -0.531629
     41          6           0        1.801735   -1.465415    0.630800
     42          1           0        1.390368   -2.026903   -0.217292
     43          1           0        1.570383   -2.042093    1.535922
     44          8           0        1.856830    1.102392   -1.266915
     45          6           0        3.324329   -1.313703    0.495622
     46          1           0        3.561416   -0.723028   -0.397274
     47          1           0        3.704917   -0.745947    1.356298
     48          6           0        4.027010   -2.675653    0.426404
     49          1           0        3.650731   -3.237516   -0.441428
     50          1           0        3.788454   -3.276049    1.313176
     51          6           0        5.551802   -2.556701    0.326020
     52          1           0        5.811146   -1.934102   -0.550702
     53          1           0        5.927068   -2.022752    1.208275
     54          7           0        6.157433   -3.888981    0.323321
     55          1           0        7.168190   -3.814116    0.418926
     56          1           0        5.991898   -4.346947   -0.571953
     57          8           0        0.846407    2.676239    1.569640
     58          1           0       -0.092494    2.933271    1.633311
     59          1           0        1.350721    3.500764    1.636409
 ---------------------------------------------------------------------

 SCF Done:  E(RB3LYP) =  -1300.49316100     A.U. after    2 cycles

 Alpha  occ. eigenvalues --  -19.38129 -19.31501 -19.25772 -19.25086 -14.56848
 Alpha  occ. eigenvalues --  -14.50570 -14.42613 -14.37928 -10.50039 -10.48555
 Alpha  occ. eigenvalues --  -10.41873 -10.40146 -10.40094 -10.35075 -10.33909
 Alpha  occ. eigenvalues --  -10.33664 -10.32853 -10.32130 -10.29182 -10.28505
 Alpha  occ. eigenvalues --  -10.28259 -10.28011 -10.26887 -10.26875 -10.26830
 Alpha  occ. eigenvalues --  -10.26751 -10.26718 -10.26556  -1.30447  -1.22033
 Alpha  occ. eigenvalues --   -1.17627  -1.13122  -1.10738  -1.08507  -0.99961
 Alpha  occ. eigenvalues --   -0.96563  -0.94937  -0.93480  -0.93249  -0.90895
 Alpha  occ. eigenvalues --   -0.87203  -0.86700  -0.82322  -0.82199  -0.81487
 Alpha  occ. eigenvalues --   -0.81148  -0.78459  -0.77876  -0.74767  -0.74096
 Alpha  occ. eigenvalues --   -0.72265  -0.70658  -0.68454  -0.67685  -0.66873
 Alpha  occ. eigenvalues --   -0.66636  -0.66108  -0.64913  -0.64398  -0.63209
 Alpha  occ. eigenvalues --   -0.62361  -0.60397  -0.59521  -0.59122  -0.58584
 Alpha  occ. eigenvalues --   -0.58331  -0.57790  -0.56424  -0.56359  -0.55727
 Alpha  occ. eigenvalues --   -0.54932  -0.54801  -0.54691  -0.54200  -0.53943
 Alpha  occ. eigenvalues --   -0.53545  -0.53060  -0.51919  -0.50770  -0.50415
 Alpha  occ. eigenvalues --   -0.50048  -0.49714  -0.48988  -0.48955  -0.48863
 Alpha  occ. eigenvalues --   -0.48424  -0.47564  -0.47399  -0.46211  -0.46064
 Alpha  occ. eigenvalues --   -0.45787  -0.44506  -0.43787  -0.43290  -0.42529
 Alpha  occ. eigenvalues --   -0.42344  -0.42074  -0.41608  -0.40551  -0.39396
 Alpha  occ. eigenvalues --   -0.38358  -0.35216  -0.32859  -0.32055  -0.30212
 Alpha virt. eigenvalues --   -0.19700  -0.14562  -0.11942  -0.08284  -0.08100
 Alpha virt. eigenvalues --   -0.07686  -0.04979  -0.03759  -0.03150  -0.02040
 Alpha virt. eigenvalues --   -0.01709  -0.00532   0.00070   0.00774   0.01115

 Mulliken charges:
               1
     1  N   -0.722917
     2  H    0.326675
     3  H    0.321646
     4  C   -0.073980
     5  H    0.162937
     6  C    0.683737
     7  C   -0.365981
     8  H    0.159274
     9  H    0.153059
    10  O   -0.580770
    11  C    0.158039
    12  C   -0.192930
    13  H    0.104236
    14  C   -0.188387
    15  H    0.131508
    16  C   -0.136494
    17  H    0.145396
    18  C   -0.126408
    19  H    0.148116
    20  C   -0.130191
    21  H    0.147336
    22  N   -0.459003
    23  C   -0.031714
    24  H    0.191286
    25  C    0.737439
    26  C   -0.313356
    27  H    0.191377
    28  H    0.187988
    29  O   -0.448915
    30  C   -0.317031
    31  H    0.194770
    32  H    0.184409
    33  C   -0.131186
    34  H    0.206344
    35  H    0.194681
    36  N   -0.619258
    37  H    0.390231
    38  C   -0.045717
    39  H    0.277025
    40  C    0.640693
    41  C   -0.274636
    42  H    0.165066
    43  H    0.171295
    44  O   -0.359599
    45  C   -0.283641
    46  H    0.173893
    47  H    0.153106
    48  C   -0.252300
    49  H    0.135615
    50  H    0.158137
    51  C   -0.138317
    52  H    0.122487
    53  H    0.146465
    54  N   -0.715396
    55  H    0.310325
    56  H    0.299635
    57  O   -0.823563
    58  H    0.442102
    59  H    0.415358
 Sum of Mulliken charges =   1.00000

 Dipole moment (field-independent basis, Debye):
    X=             -6.3925    Y=              3.3098    Z=              0.1004  Tot=              7.1993
 Quadrupole moment (field-independent basis, Debye-Ang):
   XX=           -103.1964   YY=           -128.3787   ZZ=           -148.5037
   XY=            -23.9685   XZ=              5.2671   YZ=              2.3982

 Normal termination of Gaussian 16 at Wed May 25 20:18:37 2022.
