 Gaussian 16, Revision C.01,
 Gaussian 16:  ES64L-G16RevC.01  3-Jul-2019

 -------------------------------------------------------------------
 # B3LYP/6-31G* guess=read geom=check nosymm integral(ultrafinegrid)
 -------------------------------------------------------------------

 ------------------------------------------------------
 Candidate Structure: Conf:669 Charge calc in gas phase
 ------------------------------------------------------
 Structure from the checkpoint file:  "conf-669.chk"
 Charge =  1 Multiplicity = 1

                          Input orientation:
 ---------------------------------------------------------------------
 Center     Atomic      Atomic             Coordinates (Angstroms)
 Number     Number       Type             X           Y           Z
 ---------------------------------------------------------------------
      1          7           0       -2.029218   -3.296985   -0.965494
      2          1           0       -2.723616   -3.953521   -0.615883
      3          1           0       -1.346784   -3.819271   -1.510899
      4          6           0       -2.688365   -2.315676   -1.823873
      5          1           0       -3.377955   -2.776258   -2.554785
      6          6           0       -1.613986   -1.596917   -2.654870
      7          6           0       -3.522761   -1.336202   -0.955311
      8          1           0       -2.837436   -0.842472   -0.257081
      9          1           0       -3.959538   -0.557787   -1.592701
     10          8           0       -0.419784   -1.915573   -2.598749
     11          6           0       -4.634786   -2.033184   -0.197871
     12          6           0       -5.873590   -2.267118   -0.811764
     13          1           0       -6.045191   -1.916342   -1.827640
     14          6           0       -4.444448   -2.481582    1.116269
     15          1           0       -3.490720   -2.302879    1.606796
     16          6           0       -6.894166   -2.933090   -0.133114
     17          1           0       -7.849353   -3.099424   -0.623344
     18          6           0       -5.463915   -3.148136    1.798815
     19          1           0       -5.300770   -3.483824    2.819409
     20          6           0       -6.691448   -3.376445    1.175472
     21          1           0       -7.487034   -3.890741    1.706977
     22          7           0       -2.055174   -0.630176   -3.498396
     23          1           0       -3.018838   -0.316128   -3.491265
     24          6           0       -1.208038    0.004035   -4.506863
     25          1           0       -0.509850   -0.752236   -4.884598
     26          6           0       -0.390650    1.163464   -3.894337
     27          6           0       -2.103879    0.524813   -5.637905
     28          1           0       -2.607799   -0.318936   -6.118306
     29          1           0       -1.485039    1.031653   -6.388926
     30          8           0       -0.604496    2.347093   -4.167803
     31          8           0       -3.116584    1.372502   -5.122983
     32          1           0       -2.648250    2.176258   -4.831506
     33          7           0        0.578831    0.761177   -3.036101
     34          1           0        0.622361   -0.228581   -2.775189
     35          6           0        1.452702    1.685142   -2.350640
     36          1           0        1.957069    2.344343   -3.067457
     37          6           0        2.462260    0.856124   -1.562838
     38          6           0        0.667330    2.576784   -1.348323
     39          1           0        0.085397    1.936729   -0.674894
     40          1           0       -0.009833    3.211254   -1.922529
     41          8           0        2.224107   -0.306894   -1.243729
     42          8           0        1.599397    3.368321   -0.586109
     43          1           0        1.274886    4.277194   -0.500920
     44          7           0        3.586284    1.504275   -1.128824
     45          1           0        3.607323    2.516933   -1.209575
     46          6           0        4.278291    0.924811    0.013645
     47          1           0        4.542685   -0.107767   -0.222318
     48          6           0        3.322914    0.872080    1.211044
     49          6           0        5.594308    1.652182    0.349705
     50          1           0        6.066046    1.182931    1.219610
     51          1           0        6.288752    1.510273   -0.487329
     52          8           0        2.552084    1.882319    1.510454
     53          6           0        5.462128    3.142001    0.600734
     54          8           0        4.446832    3.790676    0.419820
     55          8           0        6.613322    3.667815    1.025796
     56          7           0        3.274006   -0.193763    1.956903
     57          1           0        3.755167   -1.042201    1.585139
     58          6           0        2.444899   -0.326489    3.169245
     59          1           0        1.718096    0.491571    3.150819
     60          6           0        3.284259   -0.118472    4.440079
     61          6           0        1.703544   -1.675148    3.213721
     62          1           0        1.263262   -1.736016    4.212511
     63          1           0        2.438355   -2.484383    3.157857
     64          8           0        2.868154   -0.361072    5.544424
     65          6           0        0.606885   -1.843700    2.128293
     66          1           0        0.696584   -1.065795    1.357680
     67          1           0       -0.377969   -1.697748    2.588927
     68          6           0        0.605217   -3.207815    1.403722
     69          1           0        0.693378   -4.029198    2.122119
     70          1           0       -0.344659   -3.325306    0.873854
     71          7           0        1.658453   -3.333482    0.375215
     72          1           0        1.455768   -2.732399   -0.419859
     73          7           0        3.362689   -4.148999    1.752369
     74          1           0        4.366546   -4.264674    1.825077
     75          1           0        2.857822   -5.026598    1.775983
     76          7           0        3.893394   -2.480742    0.234353
     77          1           0        3.435796   -1.897090   -0.468929
     78          6           0        2.999860   -3.284531    0.734041
     79          8           0        4.510499    0.389992    4.186698
     80          1           0        4.947643    0.503198    5.053778
     81          1           0        2.503393    2.581446    0.798613
     82          1           0        6.484401    4.629921    1.141379
 ---------------------------------------------------------------------

 SCF Done:  E(RB3LYP) =  -2166.25975716     A.U. after    3 cycles

 Alpha  occ. eigenvalues --  -19.34774 -19.32453 -19.31282 -19.29806 -19.27485
 Alpha  occ. eigenvalues --  -19.25827 -19.25179 -19.22011 -19.21800 -19.21272
 Alpha  occ. eigenvalues --  -14.53025 -14.49534 -14.45550 -14.45377 -14.43769
 Alpha  occ. eigenvalues --  -14.43239 -14.39661 -14.38322 -10.47085 -10.45827
 Alpha  occ. eigenvalues --  -10.43670 -10.42362 -10.39203 -10.38543 -10.37981
 Alpha  occ. eigenvalues --  -10.37963 -10.36954 -10.36175 -10.35515 -10.34685
 Alpha  occ. eigenvalues --  -10.32294 -10.31473 -10.31107 -10.30419 -10.29377
 Alpha  occ. eigenvalues --  -10.28399 -10.27423 -10.26589 -10.25551 -10.25522
 Alpha  occ. eigenvalues --  -10.25434 -10.25353 -10.25206  -1.25192  -1.23782
 Alpha  occ. eigenvalues --   -1.22011  -1.17944  -1.16051  -1.14896  -1.13730
 Alpha  occ. eigenvalues --   -1.13101  -1.12642  -1.10441  -1.09508  -1.06877
 Alpha  occ. eigenvalues --   -1.06620  -1.02787  -1.01322  -0.97543  -0.97121
 Alpha  occ. eigenvalues --   -0.94399  -0.93693  -0.91953  -0.91394  -0.88645
 Alpha  occ. eigenvalues --   -0.85708  -0.85451  -0.83967  -0.82893  -0.80841
 Alpha  occ. eigenvalues --   -0.79598  -0.78919  -0.77886  -0.77494  -0.74663
 Alpha  occ. eigenvalues --   -0.73883  -0.73001  -0.72266  -0.70813  -0.70354
 Alpha  occ. eigenvalues --   -0.69256  -0.69001  -0.68287  -0.67939  -0.67624
 Alpha  occ. eigenvalues --   -0.66987  -0.65562  -0.64609  -0.64247  -0.63950
 Alpha  occ. eigenvalues --   -0.62982  -0.62790  -0.62324  -0.61341  -0.61128
 Alpha  occ. eigenvalues --   -0.60365  -0.59778  -0.59180  -0.58806  -0.58741
 Alpha  occ. eigenvalues --   -0.58026  -0.57684  -0.57525  -0.57251  -0.56688
 Alpha  occ. eigenvalues --   -0.56576  -0.56518  -0.55700  -0.54929  -0.54735
 Alpha  occ. eigenvalues --   -0.54181  -0.53842  -0.53214  -0.53089  -0.52642
 Alpha  occ. eigenvalues --   -0.52488  -0.52311  -0.51755  -0.51647  -0.51576
 Alpha  occ. eigenvalues --   -0.51305  -0.51017  -0.50438  -0.50348  -0.49805
 Alpha  occ. eigenvalues --   -0.49372  -0.48941  -0.48471  -0.48330  -0.47955
 Alpha  occ. eigenvalues --   -0.47724  -0.47027  -0.46729  -0.46384  -0.45984
 Alpha  occ. eigenvalues --   -0.45765  -0.45304  -0.44654  -0.44588  -0.44322
 Alpha  occ. eigenvalues --   -0.43705  -0.42851  -0.42179  -0.42010  -0.41625
 Alpha  occ. eigenvalues --   -0.41460  -0.40799  -0.40446  -0.40058  -0.39374
 Alpha  occ. eigenvalues --   -0.38225  -0.37392  -0.37310  -0.35734  -0.35400
 Alpha  occ. eigenvalues --   -0.35038  -0.34637  -0.33442  -0.32212  -0.31613
 Alpha  occ. eigenvalues --   -0.31485  -0.30772
 Alpha virt. eigenvalues --   -0.16374  -0.12445  -0.12062  -0.10443  -0.08420
 Alpha virt. eigenvalues --   -0.07381  -0.06645  -0.06533  -0.06156  -0.06004
 Alpha virt. eigenvalues --   -0.03569  -0.03448  -0.02117  -0.01213  -0.00814

 Mulliken charges:
               1
     1  N   -0.732433
     2  H    0.320353
     3  H    0.323873
     4  C   -0.058040
     5  H    0.154737
     6  C    0.626087
     7  C   -0.347623
     8  H    0.150153
     9  H    0.145228
    10  O   -0.554186
    11  C    0.153653
    12  C   -0.182046
    13  H    0.127731
    14  C   -0.182267
    15  H    0.125536
    16  C   -0.126602
    17  H    0.145985
    18  C   -0.128777
    19  H    0.139104
    20  C   -0.127923
    21  H    0.145839
    22  N   -0.607448
    23  H    0.358864
    24  C   -0.079137
    25  H    0.188533
    26  C    0.633200
    27  C   -0.060152
    28  H    0.166762
    29  H    0.162490
    30  O   -0.544496
    31  O   -0.629501
    32  H    0.418868
    33  N   -0.657147
    34  H    0.411457
    35  C   -0.026282
    36  H    0.195284
    37  C    0.603820
    38  C   -0.071613
    39  H    0.167505
    40  H    0.211940
    41  O   -0.520248
    42  O   -0.657938
    43  H    0.439314
    44  N   -0.611457
    45  H    0.381917
    46  C   -0.092812
    47  H    0.241690
    48  C    0.641794
    49  C   -0.384302
    50  H    0.228253
    51  H    0.238503
    52  O   -0.588015
    53  C    0.594737
    54  O   -0.483060
    55  O   -0.535100
    56  N   -0.553122
    57  H    0.404330
    58  C   -0.103486
    59  H    0.228263
    60  C    0.614749
    61  C   -0.315737
    62  H    0.201434
    63  H    0.202613
    64  O   -0.424521
    65  C   -0.286073
    66  H    0.142608
    67  H    0.162485
    68  C   -0.189745
    69  H    0.156686
    70  H    0.210185
    71  N   -0.577919
    72  H    0.351978
    73  N   -0.727311
    74  H    0.351269
    75  H    0.348305
    76  N   -0.732719
    77  H    0.324460
    78  C    0.556747
    79  O   -0.576191
    80  H    0.433620
    81  H    0.504987
    82  H    0.437500
 Sum of Mulliken charges =   1.00000

 Dipole moment (field-independent basis, Debye):
    X=             10.6295    Y=              2.4113    Z=              2.1628  Tot=             11.1120
 Quadrupole moment (field-independent basis, Debye-Ang):
   XX=           -157.3906   YY=           -190.7216   ZZ=           -224.5627
   XY=             41.7993   XZ=             24.1278   YZ=             -1.4831

 Normal termination of Gaussian 16 at Thu May 26 21:39:59 2022.
