 Gaussian 16, Revision C.01,
 Gaussian 16:  ES64L-G16RevC.01  3-Jul-2019

 -------------------------------------------------------------------
 # B3LYP/6-31G* guess=read geom=check nosymm integral(ultrafinegrid)
 -------------------------------------------------------------------

 -----------------------------------------------------
 Candidate Structure: Conf:34 Charge calc in gas phase
 -----------------------------------------------------
 Structure from the checkpoint file:  "conf-34.chk"
 Charge =  1 Multiplicity = 1

                          Input orientation:
 ---------------------------------------------------------------------
 Center     Atomic      Atomic             Coordinates (Angstroms)
 Number     Number       Type             X           Y           Z
 ---------------------------------------------------------------------
      1          7           0       -4.116941   -4.733825   -2.413723
      2          1           0       -3.951177   -5.278814   -3.258027
      3          1           0       -3.384557   -4.994519   -1.753456
      4          6           0       -3.997630   -3.309869   -2.693775
      5          1           0       -4.563570   -3.090611   -3.607009
      6          6           0       -2.539777   -2.864412   -2.880946
      7          6           0       -4.606863   -2.473519   -1.527826
      8          1           0       -4.194409   -2.874746   -0.593161
      9          1           0       -4.252153   -1.437373   -1.606475
     10          8           0       -1.631938   -3.365761   -2.209072
     11          6           0       -6.120048   -2.482671   -1.503424
     12          6           0       -6.834185   -1.358390   -1.938526
     13          1           0       -6.292949   -0.474351   -2.271782
     14          6           0       -6.837017   -3.604787   -1.064111
     15          1           0       -6.296211   -4.486520   -0.736663
     16          6           0       -8.229973   -1.350338   -1.939759
     17          1           0       -8.765634   -0.466803   -2.276462
     18          6           0       -8.231865   -3.599051   -1.064742
     19          1           0       -8.773057   -4.476135   -0.720186
     20          6           0       -8.933007   -2.473222   -1.502331
     21          1           0      -10.019451   -2.470176   -1.498151
     22          7           0       -2.318783   -1.882818   -3.801811
     23          1           0       -3.136244   -1.371716   -4.116872
     24          6           0       -1.036847   -1.185498   -3.900470
     25          1           0       -0.250832   -1.941074   -3.910066
     26          6           0       -0.811319   -0.269894   -2.705507
     27          6           0       -0.965463   -0.422811   -5.239220
     28          1           0       -0.047527    0.171111   -5.257014
     29          1           0       -1.814417    0.276461   -5.314719
     30          8           0       -1.890512    0.482951   -2.447716
     31          8           0       -0.891068   -1.299877   -6.340443
     32          1           0       -1.704998   -1.827345   -6.367610
     33          7           0        0.321613   -0.281473   -2.104217
     34          1           0        1.471863   -1.796160   -2.523449
     35          6           0        0.609415    0.644852   -1.011524
     36          1           0        0.432060    1.685252   -1.330249
     37          6           0        2.084733    0.512547   -0.584440
     38          6           0       -0.252679    0.399932    0.258980
     39          1           0        0.247488    0.795673    1.147738
     40          1           0       -0.391252   -0.675325    0.393442
     41          8           0        2.731115   -0.525444   -0.710950
     42          8           0       -1.566471    0.971754    0.130458
     43          1           0       -1.551505    1.881335    0.467662
     44          7           0        2.575752    1.599192    0.057978
     45          1           0        2.119201    2.506846    0.014329
     46          6           0        3.851121    1.556996    0.754374
     47          1           0        4.677049    1.549749    0.029470
     48          6           0        3.909739    0.287567    1.643070
     49          6           0        3.991109    2.775280    1.695054
     50          1           0        3.258255    2.661266    2.503674
     51          1           0        4.986823    2.777722    2.143600
     52          8           0        2.984236    0.002694    2.393621
     53          6           0        3.720829    4.110213    1.029053
     54          8           0        2.738626    4.355618    0.349233
     55          8           0        4.668194    5.018503    1.296038
     56          7           0        5.069235   -0.412976    1.564532
     57          1           0        5.778816   -0.116977    0.908801
     58          6           0        5.342238   -1.596083    2.365716
     59          1           0        4.683723   -1.536022    3.240629
     60          6           0        6.774823   -1.607262    2.907809
     61          6           0        5.053658   -2.915696    1.607766
     62          1           0        5.637783   -3.715188    2.074276
     63          1           0        5.435695   -2.795297    0.583582
     64          8           0        7.255697   -2.550157    3.489235
     65          6           0        3.565480   -3.307666    1.594927
     66          1           0        2.934256   -2.431750    1.414841
     67          1           0        3.295442   -3.696734    2.584577
     68          6           0        3.249199   -4.384239    0.539974
     69          1           0        4.032205   -5.149008    0.508057
     70          1           0        2.324600   -4.918530    0.775919
     71          7           0        3.130465   -3.829701   -0.816235
     72          1           0        3.992457   -3.477238   -1.211475
     73          7           0        0.816215   -3.455120   -0.780762
     74          1           0       -0.030791   -3.307870   -1.343035
     75          1           0        0.713850   -3.959231    0.085872
     76          7           0        2.059784   -2.651030   -2.532332
     77          1           0        2.989597   -2.459551   -2.885651
     78          6           0        2.012697   -3.306902   -1.350744
     79          8           0        7.443610   -0.456103    2.670747
     80          1           0        8.330495   -0.566324    3.065919
     81          1           0       -1.861153    0.850117   -1.522746
     82          1           0        4.400833    5.857152    0.870448
 ---------------------------------------------------------------------

 SCF Done:  E(RB3LYP) =  -2166.27429546     A.U. after    2 cycles

 Alpha  occ. eigenvalues --  -19.30187 -19.29490 -19.28708 -19.28259 -19.24853
 Alpha  occ. eigenvalues --  -19.23529 -19.23333 -19.22852 -19.22548 -19.21563
 Alpha  occ. eigenvalues --  -14.49842 -14.47995 -14.46761 -14.46620 -14.46313
 Alpha  occ. eigenvalues --  -14.46266 -14.43227 -14.39504 -10.44704 -10.43169
 Alpha  occ. eigenvalues --  -10.41766 -10.39506 -10.39483 -10.39139 -10.38831
 Alpha  occ. eigenvalues --  -10.35393 -10.35110 -10.34790 -10.34227 -10.34205
 Alpha  occ. eigenvalues --  -10.33345 -10.33274 -10.31274 -10.31036 -10.29553
 Alpha  occ. eigenvalues --  -10.29278 -10.26764 -10.25319 -10.24463 -10.24193
 Alpha  occ. eigenvalues --  -10.24017 -10.23962 -10.23840  -1.21300  -1.20242
 Alpha  occ. eigenvalues --   -1.18000  -1.15033  -1.14723  -1.14118  -1.13407
 Alpha  occ. eigenvalues --   -1.13202  -1.12243  -1.11200  -1.11184  -1.03416
 Alpha  occ. eigenvalues --   -1.03140  -1.03103  -1.03017  -1.01623  -1.00645
 Alpha  occ. eigenvalues --   -0.97095  -0.91133  -0.90753  -0.90059  -0.88218
 Alpha  occ. eigenvalues --   -0.85904  -0.85374  -0.83878  -0.80493  -0.79505
 Alpha  occ. eigenvalues --   -0.78941  -0.78529  -0.77076  -0.75726  -0.74509
 Alpha  occ. eigenvalues --   -0.72818  -0.72090  -0.71717  -0.70891  -0.70242
 Alpha  occ. eigenvalues --   -0.69782  -0.69737  -0.68154  -0.68152  -0.65968
 Alpha  occ. eigenvalues --   -0.65731  -0.64361  -0.63785  -0.63254  -0.62865
 Alpha  occ. eigenvalues --   -0.62492  -0.62240  -0.61350  -0.60809  -0.60102
 Alpha  occ. eigenvalues --   -0.60030  -0.59356  -0.58892  -0.58693  -0.58250
 Alpha  occ. eigenvalues --   -0.57528  -0.57504  -0.57390  -0.57009  -0.56320
 Alpha  occ. eigenvalues --   -0.56110  -0.55773  -0.55747  -0.55472  -0.54045
 Alpha  occ. eigenvalues --   -0.53460  -0.53255  -0.53016  -0.52768  -0.52054
 Alpha  occ. eigenvalues --   -0.51721  -0.51547  -0.51349  -0.51085  -0.50902
 Alpha  occ. eigenvalues --   -0.50532  -0.50247  -0.49998  -0.49424  -0.49190
 Alpha  occ. eigenvalues --   -0.49083  -0.48630  -0.48493  -0.47968  -0.47683
 Alpha  occ. eigenvalues --   -0.47086  -0.47010  -0.46212  -0.45650  -0.45347
 Alpha  occ. eigenvalues --   -0.45012  -0.44655  -0.44455  -0.44051  -0.42561
 Alpha  occ. eigenvalues --   -0.42360  -0.41734  -0.41169  -0.40717  -0.39672
 Alpha  occ. eigenvalues --   -0.39394  -0.39251  -0.38977  -0.38856  -0.38169
 Alpha  occ. eigenvalues --   -0.38100  -0.37949  -0.36906  -0.36748  -0.36523
 Alpha  occ. eigenvalues --   -0.35704  -0.35545  -0.35208  -0.34637  -0.32021
 Alpha  occ. eigenvalues --   -0.30044  -0.29606
 Alpha virt. eigenvalues --   -0.10409  -0.10316  -0.09791  -0.08869  -0.08767
 Alpha virt. eigenvalues --   -0.08505  -0.07282  -0.05398  -0.05348  -0.05204
 Alpha virt. eigenvalues --   -0.04711  -0.03928  -0.02556  -0.02340  -0.01403

 Mulliken charges:
               1
     1  N   -0.686755
     2  H    0.312020
     3  H    0.309867
     4  C   -0.081115
     5  H    0.154422
     6  C    0.617908
     7  C   -0.356348
     8  H    0.157160
     9  H    0.145378
    10  O   -0.557398
    11  C    0.168421
    12  C   -0.191133
    13  H    0.111290
    14  C   -0.157510
    15  H    0.142937
    16  C   -0.127654
    17  H    0.135906
    18  C   -0.131941
    19  H    0.139374
    20  C   -0.127473
    21  H    0.140420
    22  N   -0.601185
    23  H    0.345749
    24  C   -0.062710
    25  H    0.195165
    26  C    0.565346
    27  C   -0.049478
    28  H    0.173193
    29  H    0.146870
    30  O   -0.634788
    31  O   -0.594153
    32  H    0.401430
    33  N   -0.504685
    34  H    0.417402
    35  C   -0.110385
    36  H    0.159396
    37  C    0.625827
    38  C   -0.067379
    39  H    0.193033
    40  H    0.188395
    41  O   -0.553213
    42  O   -0.626820
    43  H    0.426342
    44  N   -0.628238
    45  H    0.370957
    46  C   -0.019874
    47  H    0.161406
    48  C    0.651683
    49  C   -0.395523
    50  H    0.221538
    51  H    0.202778
    52  O   -0.538282
    53  C    0.599947
    54  O   -0.475238
    55  O   -0.539991
    56  N   -0.601453
    57  H    0.341838
    58  C   -0.062206
    59  H    0.223387
    60  C    0.584259
    61  C   -0.271365
    62  H    0.195166
    63  H    0.124744
    64  O   -0.440117
    65  C   -0.281338
    66  H    0.195141
    67  H    0.169237
    68  C   -0.190659
    69  H    0.192426
    70  H    0.168706
    71  N   -0.577397
    72  H    0.352768
    73  N   -0.783089
    74  H    0.432307
    75  H    0.363638
    76  N   -0.762561
    77  H    0.342452
    78  C    0.777267
    79  O   -0.571396
    80  H    0.429103
    81  H    0.457721
    82  H    0.429133
 Sum of Mulliken charges =   1.00000

 Dipole moment (field-independent basis, Debye):
    X=              9.1166    Y=             -2.6886    Z=             -3.3781  Tot=             10.0873
 Quadrupole moment (field-independent basis, Debye-Ang):
   XX=           -152.6173   YY=           -185.5297   ZZ=           -233.9344
   XY=              6.5817   XZ=             20.7596   YZ=             14.2869

 Normal termination of Gaussian 16 at Thu May 26 21:39:35 2022.
