 Gaussian 16, Revision C.01,
 Gaussian 16:  ES64L-G16RevC.01  3-Jul-2019

 -------------------------------------------------------------------
 # B3LYP/6-31G* guess=read geom=check nosymm integral(ultrafinegrid)
 -------------------------------------------------------------------

 ------------------------------------------------------
 Candidate Structure: Conf:981 Charge calc in gas phase
 ------------------------------------------------------
 Structure from the checkpoint file:  "conf-981.chk"
 Charge =  1 Multiplicity = 1

                          Input orientation:
 ---------------------------------------------------------------------
 Center     Atomic      Atomic             Coordinates (Angstroms)
 Number     Number       Type             X           Y           Z
 ---------------------------------------------------------------------
      1          7           0       -4.599496   -2.080134   -4.214199
      2          1           0       -4.443476   -1.892486   -5.203408
      3          1           0       -4.033159   -2.895304   -3.980224
      4          6           0       -4.163632   -0.947862   -3.400482
      5          1           0       -4.662169   -0.051796   -3.787671
      6          6           0       -2.642754   -0.745738   -3.476089
      7          6           0       -4.611934   -1.176197   -1.939159
      8          1           0       -5.694765   -1.341409   -1.974904
      9          1           0       -4.162130   -2.112246   -1.586613
     10          8           0       -1.852249   -1.681077   -3.263178
     11          6           0       -4.264341   -0.049506   -0.987225
     12          6           0       -3.442403   -0.278246    0.123699
     13          1           0       -3.066170   -1.282926    0.304774
     14          6           0       -4.767270    1.245827   -1.184396
     15          1           0       -5.434716    1.444400   -2.020596
     16          6           0       -3.129975    0.753004    1.012939
     17          1           0       -2.514895    0.546147    1.885485
     18          6           0       -4.445948    2.282862   -0.307974
     19          1           0       -4.850157    3.276896   -0.477776
     20          6           0       -3.624191    2.039855    0.795026
     21          1           0       -3.387006    2.843241    1.486853
     22          7           0       -2.204987    0.481629   -3.844623
     23          1           0       -2.830715    1.277103   -3.759264
     24          6           0       -0.790238    0.826075   -3.920069
     25          1           0       -0.326740    0.292909   -4.759149
     26          6           0       -0.085375    0.457102   -2.609231
     27          6           0       -0.684548    2.351845   -4.149685
     28          1           0       -1.014413    2.588240   -5.165651
     29          1           0        0.367830    2.657501   -4.054068
     30          8           0       -0.366341    1.047886   -1.560900
     31          8           0       -1.537409    3.058257   -3.272902
     32          1           0       -1.293363    2.790118   -2.366729
     33          7           0        0.879039   -0.505993   -2.688182
     34          1           0        0.880377   -1.050831   -3.543025
     35          6           0        1.309937   -1.202517   -1.482409
     36          1           0        0.841485   -0.639959   -0.676512
     37          6           0        2.791251   -1.056820   -1.119029
     38          6           0        0.737403   -2.622536   -1.366748
     39          1           0        1.328380   -3.176108   -0.635172
     40          1           0        0.792295   -3.159554   -2.323045
     41          8           0        3.353856   -1.875225   -0.390936
     42          8           0       -0.603638   -2.570737   -0.887624
     43          1           0       -0.506788   -1.633350    0.918866
     44          7           0        3.354090    0.130559   -1.446436
     45          1           0        2.939497    0.734836   -2.150341
     46          6           0        4.592523    0.559346   -0.817404
     47          1           0        5.413035   -0.108840   -1.108131
     48          6           0        4.414566    0.528629    0.724200
     49          6           0        4.928588    2.015368   -1.213927
     50          1           0        4.200985    2.675496   -0.727774
     51          1           0        5.923035    2.272569   -0.843530
     52          8           0        3.508340    1.182417    1.261880
     53          6           0        4.841466    2.280802   -2.705249
     54          8           0        3.841267    2.094327   -3.375257
     55          8           0        5.981773    2.773093   -3.206828
     56          7           0        5.310882   -0.195272    1.418029
     57          1           0        5.985074   -0.752714    0.909371
     58          6           0        5.300619   -0.309636    2.871362
     59          1           0        4.609815    0.449220    3.242525
     60          6           0        6.661285    0.030634    3.485577
     61          6           0        4.891542   -1.719012    3.375857
     62          1           0        4.983982   -1.702319    4.468508
     63          1           0        5.643893   -2.432245    3.014931
     64          8           0        6.805177    0.334022    4.643911
     65          6           0        3.505585   -2.258261    2.974643
     66          1           0        3.493987   -3.312034    3.279684
     67          1           0        3.384646   -2.253173    1.886244
     68          6           0        2.280000   -1.592971    3.641068
     69          1           0        1.480290   -2.329241    3.752751
     70          1           0        2.516938   -1.262511    4.658250
     71          7           0        1.737218   -0.426666    2.931302
     72          1           0        2.345377    0.386341    2.880994
     73          7           0        0.672567    0.666637    1.213663
     74          1           0       -0.058238    0.751523    0.510281
     75          1           0        1.516296    1.217557    1.060402
     76          7           0       -0.090601   -1.436989    1.835826
     77          1           0       -0.058194   -2.220914    2.470289
     78          6           0        0.782136   -0.424791    1.986956
     79          8           0        7.676500   -0.112823    2.604710
     80          1           0        8.504017    0.075096    3.089196
     81          1           0       -1.182225   -2.316100   -1.639399
     82          1           0        5.835596    2.949527   -4.157243
 ---------------------------------------------------------------------

 SCF Done:  E(RB3LYP) =  -2166.31295235     A.U. after    1 cycles

 Alpha  occ. eigenvalues --  -19.30710 -19.30228 -19.25306 -19.24754 -19.24703
 Alpha  occ. eigenvalues --  -19.24507 -19.24099 -19.23653 -19.23081 -19.22302
 Alpha  occ. eigenvalues --  -14.49550 -14.49041 -14.48871 -14.48234 -14.47923
 Alpha  occ. eigenvalues --  -14.46942 -14.46511 -14.39733 -10.45638 -10.43700
 Alpha  occ. eigenvalues --  -10.42486 -10.41739 -10.41003 -10.40133 -10.38621
 Alpha  occ. eigenvalues --  -10.36472 -10.35481 -10.35074 -10.34294 -10.33987
 Alpha  occ. eigenvalues --  -10.33722 -10.33570 -10.32091 -10.31146 -10.30491
 Alpha  occ. eigenvalues --  -10.29754 -10.27462 -10.26881 -10.26805 -10.26699
 Alpha  occ. eigenvalues --  -10.26540 -10.26492 -10.26458  -1.21781  -1.20947
 Alpha  occ. eigenvalues --   -1.16543  -1.16220  -1.14768  -1.13975  -1.13614
 Alpha  occ. eigenvalues --   -1.12748  -1.12020  -1.11707  -1.11236  -1.05219
 Alpha  occ. eigenvalues --   -1.04880  -1.03594  -1.03418  -1.02509  -1.01797
 Alpha  occ. eigenvalues --   -0.97246  -0.93059  -0.91910  -0.90532  -0.88321
 Alpha  occ. eigenvalues --   -0.86923  -0.85849  -0.84869  -0.81998  -0.81527
 Alpha  occ. eigenvalues --   -0.79930  -0.79307  -0.76378  -0.76067  -0.74913
 Alpha  occ. eigenvalues --   -0.73451  -0.73040  -0.72575  -0.71266  -0.70803
 Alpha  occ. eigenvalues --   -0.70518  -0.70092  -0.69315  -0.68501  -0.67916
 Alpha  occ. eigenvalues --   -0.67506  -0.65721  -0.64608  -0.64172  -0.63419
 Alpha  occ. eigenvalues --   -0.62999  -0.62566  -0.61934  -0.61726  -0.61500
 Alpha  occ. eigenvalues --   -0.60645  -0.60075  -0.59837  -0.59608  -0.59140
 Alpha  occ. eigenvalues --   -0.58460  -0.58177  -0.57546  -0.57178  -0.56803
 Alpha  occ. eigenvalues --   -0.56300  -0.56053  -0.55359  -0.55038  -0.54832
 Alpha  occ. eigenvalues --   -0.54523  -0.54065  -0.53748  -0.53438  -0.53151
 Alpha  occ. eigenvalues --   -0.52914  -0.52678  -0.52170  -0.51947  -0.51669
 Alpha  occ. eigenvalues --   -0.51337  -0.51158  -0.50693  -0.50424  -0.50223
 Alpha  occ. eigenvalues --   -0.49902  -0.49687  -0.49132  -0.49029  -0.48825
 Alpha  occ. eigenvalues --   -0.48546  -0.47271  -0.47073  -0.46451  -0.46242
 Alpha  occ. eigenvalues --   -0.45857  -0.45250  -0.44075  -0.43989  -0.43342
 Alpha  occ. eigenvalues --   -0.42850  -0.42660  -0.42011  -0.41536  -0.41256
 Alpha  occ. eigenvalues --   -0.40589  -0.40254  -0.39954  -0.39687  -0.38898
 Alpha  occ. eigenvalues --   -0.38658  -0.38489  -0.38033  -0.37196  -0.36883
 Alpha  occ. eigenvalues --   -0.36677  -0.36203  -0.35881  -0.34635  -0.32656
 Alpha  occ. eigenvalues --   -0.32230  -0.31599
 Alpha virt. eigenvalues --   -0.11707  -0.10624  -0.10556  -0.10038  -0.09450
 Alpha virt. eigenvalues --   -0.08828  -0.08562  -0.08180  -0.07569  -0.05440
 Alpha virt. eigenvalues --   -0.03310  -0.02487  -0.02169  -0.01979  -0.01151

 Mulliken charges:
               1
     1  N   -0.691572
     2  H    0.311236
     3  H    0.315316
     4  C   -0.077308
     5  H    0.148838
     6  C    0.633026
     7  C   -0.346864
     8  H    0.190528
     9  H    0.151782
    10  O   -0.595091
    11  C    0.165883
    12  C   -0.195968
    13  H    0.126402
    14  C   -0.196651
    15  H    0.138921
    16  C   -0.141113
    17  H    0.128860
    18  C   -0.126171
    19  H    0.150048
    20  C   -0.131688
    21  H    0.142639
    22  N   -0.587626
    23  H    0.365311
    24  C   -0.066646
    25  H    0.166370
    26  C    0.644165
    27  C   -0.070282
    28  H    0.179150
    29  H    0.161445
    30  O   -0.556185
    31  O   -0.617634
    32  H    0.420767
    33  N   -0.603224
    34  H    0.352112
    35  C   -0.093282
    36  H    0.183369
    37  C    0.613667
    38  C   -0.051060
    39  H    0.184692
    40  H    0.160150
    41  O   -0.537349
    42  O   -0.668462
    43  H    0.417540
    44  N   -0.619192
    45  H    0.384025
    46  C   -0.021923
    47  H    0.175543
    48  C    0.649141
    49  C   -0.393902
    50  H    0.217579
    51  H    0.204077
    52  O   -0.580003
    53  C    0.597309
    54  O   -0.472099
    55  O   -0.539649
    56  N   -0.566014
    57  H    0.361713
    58  C   -0.076894
    59  H    0.196485
    60  C    0.599062
    61  C   -0.286488
    62  H    0.186038
    63  H    0.166787
    64  O   -0.434523
    65  C   -0.304046
    66  H    0.169955
    67  H    0.210932
    68  C   -0.177373
    69  H    0.164996
    70  H    0.193956
    71  N   -0.600717
    72  H    0.380070
    73  N   -0.788312
    74  H    0.406532
    75  H    0.398204
    76  N   -0.785914
    77  H    0.367996
    78  C    0.776930
    79  O   -0.573047
    80  H    0.432742
    81  H    0.452541
    82  H    0.429441
 Sum of Mulliken charges =   1.00000

 Dipole moment (field-independent basis, Debye):
    X=             11.5516    Y=             -1.1910    Z=             -2.5724  Tot=             11.8943
 Quadrupole moment (field-independent basis, Debye-Ang):
   XX=           -158.6258   YY=           -234.5497   ZZ=           -191.2826
   XY=             -1.1995   XZ=              7.4498   YZ=            -19.4147

 Normal termination of Gaussian 16 at Thu May 26 21:40:36 2022.
