 Gaussian 16, Revision C.01,
 Gaussian 16:  ES64L-G16RevC.01  3-Jul-2019

 -------------------------------------------------------------------
 # B3LYP/6-31G* guess=read geom=check nosymm integral(ultrafinegrid)
 -------------------------------------------------------------------

 ------------------------------------------------------
 Candidate Structure: Conf:123 Charge calc in gas phase
 ------------------------------------------------------
 Structure from the checkpoint file:  "conf-123.chk"
 Charge =  1 Multiplicity = 1

                          Input orientation:
 ---------------------------------------------------------------------
 Center     Atomic      Atomic             Coordinates (Angstroms)
 Number     Number       Type             X           Y           Z
 ---------------------------------------------------------------------
      1          7           0       -4.985238   -1.782812   -4.189665
      2          1           0       -4.670860   -2.113412   -3.278055
      3          1           0       -5.988264   -1.952021   -4.245000
      4          6           0       -4.724586   -0.350384   -4.295679
      5          1           0       -5.020137   -0.035918   -5.304867
      6          6           0       -3.219283   -0.177155   -4.132469
      7          6           0       -5.454424    0.563906   -3.263549
      8          1           0       -5.122100    0.266348   -2.262065
      9          1           0       -5.127507    1.602003   -3.416120
     10          8           0       -2.618035   -0.517846   -3.112585
     11          6           0       -6.958931    0.474221   -3.379424
     12          6           0       -7.687782   -0.440779   -2.606240
     13          1           0       -7.169116   -1.058737   -1.876537
     14          6           0       -7.654168    1.276151   -4.296160
     15          1           0       -7.107694    1.999940   -4.898009
     16          6           0       -9.072778   -0.553123   -2.746012
     17          1           0       -9.620938   -1.263430   -2.133230
     18          6           0       -9.037265    1.167567   -4.437922
     19          1           0       -9.559037    1.802489   -5.148704
     20          6           0       -9.750839    0.250016   -3.663484
     21          1           0      -10.828582    0.166932   -3.770484
     22          7           0       -2.528050    0.385749   -5.169732
     23          1           0       -2.999325    0.912320   -5.894422
     24          6           0       -1.111691    0.596833   -5.003633
     25          1           0       -0.609579   -0.372816   -4.897187
     26          6           0       -0.828769    1.368523   -3.717616
     27          6           0       -0.527819    1.290392   -6.244794
     28          1           0       -0.599177    0.577952   -7.078967
     29          1           0        0.537147    1.506406   -6.072751
     30          8           0       -1.611017    2.360598   -3.446922
     31          8           0       -1.285094    2.461635   -6.478758
     32          1           0       -1.010724    2.849166   -7.324437
     33          7           0        0.216822    1.034062   -2.999176
     34          1           0        0.746481    0.185924   -3.241171
     35          6           0        0.775489    1.651431   -1.790613
     36          1           0        1.198356    2.632445   -2.047228
     37          6           0        1.975302    0.734103   -1.420342
     38          6           0       -0.253284    1.808294   -0.656469
     39          1           0        0.247410    2.004831    0.295257
     40          1           0       -0.846011    0.895966   -0.556194
     41          8           0        2.229586   -0.246624   -2.116724
     42          8           0       -1.187274    2.865224   -0.942756
     43          1           0       -0.822238    3.719700   -0.659160
     44          7           0        2.675086    1.112044   -0.339129
     45          1           0        2.523664    2.022680    0.092470
     46          6           0        4.012122    0.609608   -0.054019
     47          1           0        3.972144   -0.474020    0.092374
     48          6           0        4.451561    1.333826    1.234809
     49          6           0        5.016951    0.907418   -1.207779
     50          1           0        6.024628    0.617977   -0.900429
     51          1           0        4.722729    0.306837   -2.072854
     52          8           0        3.938317    2.412559    1.529444
     53          6           0        4.990353    2.367879   -1.619633
     54          8           0        4.034008    2.923722   -2.124942
     55          8           0        6.149609    2.992613   -1.352170
     56          7           0        5.426598    0.724578    1.944718
     57          1           0        5.833210   -0.126386    1.576728
     58          6           0        6.159685    1.390105    3.019495
     59          1           0        5.724692    2.388225    3.118198
     60          6           0        7.636680    1.581550    2.668430
     61          6           0        6.044596    0.651184    4.370983
     62          1           0        6.715225    1.158678    5.073001
     63          1           0        6.425838   -0.373121    4.253213
     64          8           0        8.389795    2.269452    3.311194
     65          6           0        4.617921    0.625968    4.928440
     66          1           0        3.944967    0.153991    4.198539
     67          1           0        4.255487    1.650719    5.077000
     68          6           0        4.535123   -0.130267    6.257325
     69          1           0        4.906444   -1.161964    6.122729
     70          1           0        5.192578    0.349367    6.992445
     71          7           0        3.179337   -0.097459    6.781208
     72          1           0        2.465772   -0.320193    6.094641
     73          7           0        1.526829   -0.688329    8.290175
     74          1           0        1.354008   -1.011991    9.236103
     75          1           0        1.069731    0.201503    8.116137
     76          7           0        3.725215   -1.148530    8.888525
     77          1           0        4.673992   -1.209007    8.519303
     78          6           0        2.902979   -0.670771    8.030937
     79          8           0        8.020208    0.858213    1.585764
     80          1           0        8.976499    1.020119    1.468795
     81          1           0       -1.496996    2.716880   -2.506725
     82          1           0        6.052119    3.922904   -1.635486
 ---------------------------------------------------------------------

 SCF Done:  E(RB3LYP) =  -2166.23341757     A.U. after    2 cycles

 Alpha  occ. eigenvalues --  -19.34039 -19.32552 -19.30075 -19.29271 -19.27183
 Alpha  occ. eigenvalues --  -19.26003 -19.24541 -19.23602 -19.22951 -19.22464
 Alpha  occ. eigenvalues --  -14.53403 -14.48951 -14.47737 -14.47316 -14.40321
 Alpha  occ. eigenvalues --  -14.39102 -14.38302 -14.33116 -10.47324 -10.43101
 Alpha  occ. eigenvalues --  -10.42949 -10.41288 -10.40758 -10.39362 -10.39152
 Alpha  occ. eigenvalues --  -10.38934 -10.37613 -10.37006 -10.36571 -10.33738
 Alpha  occ. eigenvalues --  -10.32428 -10.31584 -10.31045 -10.28782 -10.28193
 Alpha  occ. eigenvalues --  -10.26937 -10.26781 -10.26379 -10.25381 -10.25360
 Alpha  occ. eigenvalues --  -10.25206 -10.25186 -10.24992  -1.25054  -1.21028
 Alpha  occ. eigenvalues --   -1.19830  -1.18978  -1.18097  -1.15528  -1.15028
 Alpha  occ. eigenvalues --   -1.14221  -1.11966  -1.10860  -1.10426  -1.05981
 Alpha  occ. eigenvalues --   -1.04224  -1.03924  -1.02279  -0.96970  -0.93987
 Alpha  occ. eigenvalues --   -0.93867  -0.91740  -0.90972  -0.89006  -0.88578
 Alpha  occ. eigenvalues --   -0.88124  -0.84571  -0.83336  -0.82927  -0.81287
 Alpha  occ. eigenvalues --   -0.80663  -0.79650  -0.78378  -0.75597  -0.75228
 Alpha  occ. eigenvalues --   -0.73833  -0.73428  -0.72361  -0.71531  -0.70573
 Alpha  occ. eigenvalues --   -0.69557  -0.68990  -0.68747  -0.68024  -0.66815
 Alpha  occ. eigenvalues --   -0.66173  -0.65255  -0.64583  -0.64435  -0.63187
 Alpha  occ. eigenvalues --   -0.62807  -0.61965  -0.61769  -0.61396  -0.60438
 Alpha  occ. eigenvalues --   -0.59483  -0.59037  -0.58701  -0.58422  -0.58127
 Alpha  occ. eigenvalues --   -0.57390  -0.57295  -0.57135  -0.56844  -0.56756
 Alpha  occ. eigenvalues --   -0.56169  -0.56113  -0.55249  -0.54893  -0.54315
 Alpha  occ. eigenvalues --   -0.53916  -0.53886  -0.53227  -0.52887  -0.52714
 Alpha  occ. eigenvalues --   -0.52457  -0.52325  -0.51648  -0.51332  -0.51203
 Alpha  occ. eigenvalues --   -0.50694  -0.50425  -0.49943  -0.49805  -0.49375
 Alpha  occ. eigenvalues --   -0.49152  -0.48812  -0.48632  -0.48173  -0.48012
 Alpha  occ. eigenvalues --   -0.47278  -0.47241  -0.46577  -0.46282  -0.46059
 Alpha  occ. eigenvalues --   -0.46016  -0.43842  -0.43779  -0.43461  -0.43396
 Alpha  occ. eigenvalues --   -0.42601  -0.42260  -0.41965  -0.41024  -0.40806
 Alpha  occ. eigenvalues --   -0.40454  -0.40328  -0.40260  -0.39765  -0.39489
 Alpha  occ. eigenvalues --   -0.38988  -0.37651  -0.37447  -0.37359  -0.36139
 Alpha  occ. eigenvalues --   -0.35089  -0.32038  -0.31226  -0.30959  -0.30316
 Alpha  occ. eigenvalues --   -0.30284  -0.27868
 Alpha virt. eigenvalues --   -0.15793  -0.11898  -0.10172  -0.09223  -0.08760
 Alpha virt. eigenvalues --   -0.08211  -0.07921  -0.06482  -0.06296  -0.04631
 Alpha virt. eigenvalues --   -0.03355  -0.03081  -0.02687  -0.01456  -0.01230

 Mulliken charges:
               1
     1  N   -0.712682
     2  H    0.313901
     3  H    0.322621
     4  C   -0.070172
     5  H    0.146761
     6  C    0.668998
     7  C   -0.365422
     8  H    0.160098
     9  H    0.142267
    10  O   -0.552469
    11  C    0.167853
    12  C   -0.195674
    13  H    0.126859
    14  C   -0.179637
    15  H    0.120502
    16  C   -0.126393
    17  H    0.144414
    18  C   -0.126150
    19  H    0.142917
    20  C   -0.127908
    21  H    0.146206
    22  N   -0.601656
    23  H    0.363102
    24  C   -0.041373
    25  H    0.204703
    26  C    0.674187
    27  C   -0.068001
    28  H    0.180288
    29  H    0.159988
    30  O   -0.554695
    31  O   -0.610276
    32  H    0.423936
    33  N   -0.603389
    34  H    0.404158
    35  C   -0.094500
    36  H    0.226214
    37  C    0.655937
    38  C   -0.079251
    39  H    0.196156
    40  H    0.229197
    41  O   -0.525481
    42  O   -0.626120
    43  H    0.438311
    44  N   -0.620276
    45  H    0.365463
    46  C   -0.067088
    47  H    0.197079
    48  C    0.637543
    49  C   -0.366192
    50  H    0.198189
    51  H    0.221996
    52  O   -0.530892
    53  C    0.590136
    54  O   -0.482142
    55  O   -0.543722
    56  N   -0.596198
    57  H    0.351136
    58  C   -0.078971
    59  H    0.221846
    60  C    0.598664
    61  C   -0.277895
    62  H    0.190324
    63  H    0.147568
    64  O   -0.433963
    65  C   -0.284436
    66  H    0.132187
    67  H    0.166354
    68  C   -0.121741
    69  H    0.139650
    70  H    0.167139
    71  N   -0.606417
    72  H    0.315091
    73  N   -0.753577
    74  H    0.340285
    75  H    0.318240
    76  N   -0.635918
    77  H    0.279267
    78  C    0.575809
    79  O   -0.583315
    80  H    0.428986
    81  H    0.476277
    82  H    0.425185
 Sum of Mulliken charges =   1.00000

 Dipole moment (field-independent basis, Debye):
    X=              3.9653    Y=              8.4404    Z=            -13.9044  Tot=             16.7420
 Quadrupole moment (field-independent basis, Debye-Ang):
   XX=           -143.2462   YY=           -232.3539   ZZ=           -195.2640
   XY=             -0.7520   XZ=              7.5660   YZ=            -22.3366

 Normal termination of Gaussian 16 at Thu May 26 21:39:26 2022.
