 Gaussian 16, Revision C.01,
 Gaussian 16:  ES64L-G16RevC.01  3-Jul-2019

 -------------------------------------------------------------------
 # B3LYP/6-31G* guess=read geom=check nosymm integral(ultrafinegrid)
 -------------------------------------------------------------------

 ------------------------------------------------------
 Candidate Structure: Conf:883 Charge calc in gas phase
 ------------------------------------------------------
 Structure from the checkpoint file:  "conf-883.chk"
 Charge =  1 Multiplicity = 1

                          Input orientation:
 ---------------------------------------------------------------------
 Center     Atomic      Atomic             Coordinates (Angstroms)
 Number     Number       Type             X           Y           Z
 ---------------------------------------------------------------------
      1          7           0       -3.550875   -3.664118   -4.822322
      2          1           0       -2.632726   -3.666004   -5.266095
      3          1           0       -3.580581   -4.506896   -4.246613
      4          6           0       -3.667942   -2.510612   -3.929883
      5          1           0       -3.458599   -1.605959   -4.515231
      6          6           0       -2.697152   -2.601515   -2.741137
      7          6           0       -5.122773   -2.436035   -3.403636
      8          1           0       -5.773264   -2.447713   -4.284309
      9          1           0       -5.318851   -3.357048   -2.841937
     10          8           0       -2.593359   -3.630244   -2.075985
     11          6           0       -5.409231   -1.229101   -2.536740
     12          6           0       -5.361631   -1.317198   -1.138414
     13          1           0       -5.133038   -2.273738   -0.674111
     14          6           0       -5.712922    0.011332   -3.116235
     15          1           0       -5.770440    0.094784   -4.199744
     16          6           0       -5.611526   -0.198550   -0.341418
     17          1           0       -5.584253   -0.291932    0.741495
     18          6           0       -5.961257    1.132438   -2.323482
     19          1           0       -6.205817    2.081991   -2.792492
     20          6           0       -5.911662    1.030371   -0.931618
     21          1           0       -6.118832    1.899643   -0.312774
     22          7           0       -1.954654   -1.487892   -2.472174
     23          1           0       -2.093471   -0.626358   -2.986150
     24          6           0       -1.099243   -1.414344   -1.305366
     25          1           0       -1.556969   -1.985933   -0.491328
     26          6           0       -0.921086    0.051859   -0.929850
     27          6           0        0.292924   -2.036991   -1.626190
     28          1           0        0.704721   -1.530794   -2.509448
     29          1           0        0.131824   -3.089927   -1.864113
     30          8           0       -0.879857    0.939455   -1.778590
     31          8           0        1.205858   -1.989067   -0.533531
     32          1           0        1.473061   -1.059762   -0.395643
     33          7           0       -0.719247    0.315587    0.398254
     34          1           0       -0.604555   -0.449584    1.073910
     35          6           0       -0.181832    1.604011    0.751374
     36          1           0       -0.779557    2.393745    0.284776
     37          6           0        1.274438    1.742855    0.264628
     38          6           0       -0.232158    1.756766    2.285646
     39          1           0        0.243335    0.900999    2.776850
     40          1           0       -1.278533    1.813288    2.596918
     41          8           0        2.003177    0.782341    0.023348
     42          8           0        0.455533    2.979582    2.650755
     43          1           0        0.106087    3.312316    3.492743
     44          7           0        1.772334    3.020678    0.223738
     45          1           0        1.218368    3.769538    0.627234
     46          6           0        3.209926    3.186284    0.238421
     47          1           0        3.623179    2.549010   -0.548724
     48          6           0        3.767029    2.638075    1.566619
     49          6           0        3.644719    4.636407   -0.046019
     50          1           0        4.736890    4.715579   -0.074851
     51          1           0        3.294004    4.907552   -1.049060
     52          8           0        3.076060    2.643532    2.657938
     53          6           0        3.099563    5.652486    0.942247
     54          8           0        2.281385    5.398352    1.805977
     55          8           0        3.621260    6.862705    0.731473
     56          7           0        4.973230    2.127768    1.609259
     57          1           0        5.522863    2.117567    0.755088
     58          6           0        5.593032    1.481712    2.787460
     59          1           0        5.107228    1.888611    3.675176
     60          6           0        7.077145    1.831600    2.868258
     61          6           0        5.421285   -0.062059    2.762748
     62          1           0        5.844946   -0.421533    3.708067
     63          1           0        6.040209   -0.481800    1.958702
     64          8           0        7.726476    1.714764    3.873032
     65          6           0        3.961008   -0.501802    2.600527
     66          1           0        3.611377   -0.257139    1.591751
     67          1           0        3.323395    0.046511    3.301655
     68          6           0        3.732603   -2.009700    2.827824
     69          1           0        4.452526   -2.600780    2.251866
     70          1           0        3.910791   -2.263259    3.880769
     71          7           0        2.404311   -2.464810    2.418498
     72          1           0        2.331948   -2.717396    1.437662
     73          7           0        1.289101   -1.341238    4.169516
     74          1           0        0.356480   -1.281228    4.565904
     75          1           0        1.916996   -1.811274    4.814153
     76          7           0        0.092492   -1.929938    2.269125
     77          1           0        0.231835   -2.348811    1.346894
     78          6           0        1.218364   -1.931309    2.901042
     79          8           0        7.573034    2.214706    1.666218
     80          1           0        8.533002    2.364107    1.774464
     81          1           0        2.104982    2.937585    2.574546
     82          1           0        3.217918    7.486613    1.367078
 ---------------------------------------------------------------------

 SCF Done:  E(RB3LYP) =  -2166.24811749     A.U. after    1 cycles

 Alpha  occ. eigenvalues --  -19.36584 -19.33577 -19.33510 -19.32034 -19.28517
 Alpha  occ. eigenvalues --  -19.27286 -19.26779 -19.23080 -19.21052 -19.16961
 Alpha  occ. eigenvalues --  -14.56350 -14.50613 -14.45339 -14.43969 -14.43724
 Alpha  occ. eigenvalues --  -14.42309 -14.36813 -14.36361 -10.49791 -10.46924
 Alpha  occ. eigenvalues --  -10.45849 -10.42998 -10.41323 -10.39409 -10.37827
 Alpha  occ. eigenvalues --  -10.37634 -10.37248 -10.36344 -10.35877 -10.33809
 Alpha  occ. eigenvalues --  -10.32683 -10.32609 -10.31080 -10.30709 -10.29697
 Alpha  occ. eigenvalues --  -10.27560 -10.24351 -10.23851 -10.23811 -10.23745
 Alpha  occ. eigenvalues --  -10.23585 -10.23536 -10.23481  -1.27355  -1.24840
 Alpha  occ. eigenvalues --   -1.24148  -1.18786  -1.17915  -1.16016  -1.15393
 Alpha  occ. eigenvalues --   -1.13150  -1.13120  -1.10048  -1.08889  -1.07839
 Alpha  occ. eigenvalues --   -1.06632  -1.02629  -0.98609  -0.97950  -0.96100
 Alpha  occ. eigenvalues --   -0.93787  -0.93703  -0.93027  -0.90099  -0.88993
 Alpha  occ. eigenvalues --   -0.87859  -0.84829  -0.83359  -0.82302  -0.82079
 Alpha  occ. eigenvalues --   -0.79126  -0.79042  -0.78297  -0.76450  -0.76077
 Alpha  occ. eigenvalues --   -0.74565  -0.73947  -0.72655  -0.72351  -0.71823
 Alpha  occ. eigenvalues --   -0.70608  -0.69170  -0.68711  -0.67558  -0.66857
 Alpha  occ. eigenvalues --   -0.65980  -0.65236  -0.64743  -0.64481  -0.64401
 Alpha  occ. eigenvalues --   -0.63903  -0.63395  -0.62885  -0.62607  -0.61052
 Alpha  occ. eigenvalues --   -0.60910  -0.60804  -0.60678  -0.60154  -0.59851
 Alpha  occ. eigenvalues --   -0.58973  -0.58159  -0.57551  -0.56878  -0.56696
 Alpha  occ. eigenvalues --   -0.56321  -0.56169  -0.55660  -0.55102  -0.54987
 Alpha  occ. eigenvalues --   -0.54549  -0.54312  -0.54053  -0.53544  -0.53427
 Alpha  occ. eigenvalues --   -0.52864  -0.52641  -0.52521  -0.52069  -0.51292
 Alpha  occ. eigenvalues --   -0.50959  -0.50827  -0.50518  -0.50268  -0.49698
 Alpha  occ. eigenvalues --   -0.49365  -0.49015  -0.48607  -0.47897  -0.47540
 Alpha  occ. eigenvalues --   -0.46908  -0.46705  -0.46419  -0.46063  -0.45993
 Alpha  occ. eigenvalues --   -0.45826  -0.45287  -0.44794  -0.44420  -0.44071
 Alpha  occ. eigenvalues --   -0.43707  -0.42613  -0.41917  -0.41812  -0.41044
 Alpha  occ. eigenvalues --   -0.40981  -0.40635  -0.39942  -0.39517  -0.38411
 Alpha  occ. eigenvalues --   -0.38408  -0.37042  -0.36139  -0.35515  -0.35056
 Alpha  occ. eigenvalues --   -0.34734  -0.31771  -0.31355  -0.30877  -0.29745
 Alpha  occ. eigenvalues --   -0.29261  -0.28179
 Alpha virt. eigenvalues --   -0.18690  -0.13542  -0.12915  -0.12479  -0.08181
 Alpha virt. eigenvalues --   -0.07568  -0.06996  -0.05048  -0.04921  -0.04563
 Alpha virt. eigenvalues --   -0.04478  -0.04242  -0.03352  -0.03073  -0.02474

 Mulliken charges:
               1
     1  N   -0.694961
     2  H    0.299588
     3  H    0.315901
     4  C   -0.069521
     5  H    0.132061
     6  C    0.613077
     7  C   -0.345289
     8  H    0.172562
     9  H    0.163124
    10  O   -0.543261
    11  C    0.156772
    12  C   -0.187371
    13  H    0.143091
    14  C   -0.189753
    15  H    0.131618
    16  C   -0.132431
    17  H    0.125718
    18  C   -0.127069
    19  H    0.133139
    20  C   -0.132563
    21  H    0.124892
    22  N   -0.619786
    23  H    0.351444
    24  C   -0.046777
    25  H    0.191840
    26  C    0.592445
    27  C   -0.048624
    28  H    0.147518
    29  H    0.194616
    30  O   -0.533683
    31  O   -0.672141
    32  H    0.436206
    33  N   -0.643217
    34  H    0.398037
    35  C   -0.061559
    36  H    0.208127
    37  C    0.635134
    38  C   -0.096949
    39  H    0.206081
    40  H    0.202091
    41  O   -0.531467
    42  O   -0.664563
    43  H    0.444933
    44  N   -0.609739
    45  H    0.383019
    46  C   -0.067059
    47  H    0.224038
    48  C    0.665138
    49  C   -0.380327
    50  H    0.211969
    51  H    0.245657
    52  O   -0.580350
    53  C    0.590466
    54  O   -0.472526
    55  O   -0.535245
    56  N   -0.556376
    57  H    0.391289
    58  C   -0.091698
    59  H    0.231848
    60  C    0.607404
    61  C   -0.280984
    62  H    0.197949
    63  H    0.166579
    64  O   -0.413479
    65  C   -0.305780
    66  H    0.168725
    67  H    0.171415
    68  C   -0.154331
    69  H    0.170600
    70  H    0.157820
    71  N   -0.591986
    72  H    0.356028
    73  N   -0.754993
    74  H    0.345056
    75  H    0.335277
    76  N   -0.719509
    77  H    0.324006
    78  C    0.583173
    79  O   -0.588696
    80  H    0.444285
    81  H    0.511760
    82  H    0.440551
 Sum of Mulliken charges =   1.00000

 Dipole moment (field-independent basis, Debye):
    X=             18.6019    Y=             15.4603    Z=              9.1030  Tot=             25.8440
 Quadrupole moment (field-independent basis, Debye-Ang):
   XX=           -155.1800   YY=           -183.2412   ZZ=           -214.3930
   XY=             32.9573   XZ=             12.6304   YZ=             13.0678

 Normal termination of Gaussian 16 at Thu May 26 21:39:23 2022.
