 Gaussian 16, Revision C.01,
 Gaussian 16:  ES64L-G16RevC.01  3-Jul-2019

 -------------------------------------------------------------------
 # B3LYP/6-31G* guess=read geom=check nosymm integral(ultrafinegrid)
 -------------------------------------------------------------------

 ------------------------------------------------------
 Candidate Structure: Conf:662 Charge calc in gas phase
 ------------------------------------------------------
 Structure from the checkpoint file:  "conf-662.chk"
 Charge =  1 Multiplicity = 1

                          Input orientation:
 ---------------------------------------------------------------------
 Center     Atomic      Atomic             Coordinates (Angstroms)
 Number     Number       Type             X           Y           Z
 ---------------------------------------------------------------------
      1          7           0       -6.307144   -1.206604   -3.143844
      2          1           0       -7.250531   -0.902548   -3.381519
      3          1           0       -6.379495   -2.195346   -2.910214
      4          6           0       -5.426030   -1.019429   -4.304475
      5          1           0       -5.416096   -1.880029   -4.988057
      6          6           0       -3.979981   -0.828339   -3.845092
      7          6           0       -5.844687    0.230040   -5.125647
      8          1           0       -5.812405    1.104883   -4.463935
      9          1           0       -5.087196    0.378126   -5.902227
     10          8           0       -3.018826   -0.871423   -4.618662
     11          6           0       -7.222497    0.094820   -5.738666
     12          6           0       -7.421297   -0.705067   -6.873937
     13          1           0       -6.571905   -1.205413   -7.334556
     14          6           0       -8.328607    0.744617   -5.174130
     15          1           0       -8.188323    1.388754   -4.308087
     16          6           0       -8.692244   -0.853763   -7.426709
     17          1           0       -8.827311   -1.470498   -8.310868
     18          6           0       -9.604152    0.596229   -5.725489
     19          1           0      -10.448747    1.113350   -5.278702
     20          6           0       -9.788512   -0.204771   -6.851903
     21          1           0      -10.777885   -0.317886   -7.285671
     22          7           0       -3.824149   -0.559504   -2.519734
     23          1           0       -4.670441   -0.509956   -1.956156
     24          6           0       -2.485561   -0.347084   -2.039178
     25          1           0       -1.858650   -1.197075   -2.336402
     26          6           0       -2.378657   -0.208929   -0.556507
     27          6           0       -1.772477    0.918122   -2.698850
     28          1           0       -1.329770    1.571357   -1.946794
     29          1           0       -2.543812    1.465983   -3.249207
     30          8           0       -3.320715    0.409417    0.092037
     31          8           0       -0.712123    0.508606   -3.529912
     32          1           0       -1.118957   -0.016478   -4.250060
     33          7           0       -1.274294   -0.618562    0.018522
     34          1           0       -0.593194   -1.160419   -0.529614
     35          6           0       -0.626575   -0.075896    1.227180
     36          1           0       -0.775150    1.008585    1.236147
     37          6           0        0.874747   -0.366316    0.943484
     38          6           0       -1.203938   -0.662647    2.509631
     39          1           0       -0.634947   -0.304961    3.375589
     40          1           0       -1.178507   -1.757916    2.484919
     41          8           0        1.158469   -1.274547    0.160880
     42          8           0       -2.554820   -0.171631    2.564713
     43          1           0       -3.050061   -0.598376    3.282115
     44          7           0        1.777601    0.465263    1.482201
     45          1           0        1.505955    1.257333    2.058190
     46          6           0        3.079562    0.625918    0.841194
     47          1           0        3.437759   -0.363240    0.551840
     48          6           0        3.987167    1.299470    1.886952
     49          6           0        3.003918    1.557122   -0.423463
     50          1           0        2.999480    2.595497   -0.075417
     51          1           0        3.891397    1.395450   -1.039588
     52          8           0        3.493350    2.090511    2.689037
     53          6           0        1.739888    1.391025   -1.252484
     54          8           0        0.641093    1.731958   -0.830538
     55          8           0        1.933983    0.857968   -2.452720
     56          7           0        5.297064    0.993206    1.820540
     57          1           0        5.662330    0.386379    1.093218
     58          6           0        6.303148    1.662647    2.641139
     59          1           0        6.075930    2.734909    2.665026
     60          6           0        7.634938    1.469174    1.926546
     61          6           0        6.342154    1.155039    4.101859
     62          1           0        5.347789    1.334470    4.525082
     63          1           0        7.041430    1.782931    4.661442
     64          8           0        7.789272    0.762611    0.952022
     65          6           0        6.722164   -0.322805    4.252738
     66          1           0        7.742631   -0.494486    3.879407
     67          1           0        6.062671   -0.946660    3.636233
     68          6           0        6.624039   -0.819341    5.699463
     69          1           0        5.606806   -0.645632    6.070647
     70          1           0        6.793325   -1.908934    5.724450
     71          7           0        7.538275   -0.099182    6.572892
     72          1           0        8.501459   -0.101926    6.250999
     73          7           0        8.499495    0.387490    8.620242
     74          1           0        8.369944    0.352961    9.625347
     75          1           0        8.677758    1.331823    8.294416
     76          7           0        6.562084   -0.892077    8.639467
     77          1           0        5.952396   -1.448049    8.040242
     78          6           0        7.447716   -0.257117    7.964531
     79          8           0        8.622631    2.160421    2.515970
     80          1           0        9.441232    1.982888    2.013369
     81          1           0       -3.177160    0.331877    1.086355
     82          1           0        1.058123    0.770187   -2.911326
 ---------------------------------------------------------------------

 SCF Done:  E(RB3LYP) =  -2166.24619660     A.U. after    1 cycles

 Alpha  occ. eigenvalues --  -19.36223 -19.32434 -19.28994 -19.28542 -19.26752
 Alpha  occ. eigenvalues --  -19.25597 -19.23876 -19.23616 -19.22314 -19.21986
 Alpha  occ. eigenvalues --  -14.54104 -14.48773 -14.47083 -14.46329 -14.41851
 Alpha  occ. eigenvalues --  -14.40268 -14.38237 -14.33088 -10.48562 -10.43008
 Alpha  occ. eigenvalues --  -10.42466 -10.41562 -10.39494 -10.39363 -10.39358
 Alpha  occ. eigenvalues --  -10.38856 -10.37629 -10.35623 -10.35435 -10.33164
 Alpha  occ. eigenvalues --  -10.32458 -10.31945 -10.30978 -10.28679 -10.27789
 Alpha  occ. eigenvalues --  -10.26982 -10.26898 -10.26610 -10.25974 -10.25777
 Alpha  occ. eigenvalues --  -10.25714 -10.25652 -10.25483  -1.26737  -1.20114
 Alpha  occ. eigenvalues --   -1.20091  -1.18890  -1.17962  -1.14751  -1.14082
 Alpha  occ. eigenvalues --   -1.13413  -1.11281  -1.11231  -1.10983  -1.05457
 Alpha  occ. eigenvalues --   -1.04209  -1.02797  -1.02213  -0.98890  -0.94322
 Alpha  occ. eigenvalues --   -0.93817  -0.92334  -0.90180  -0.88709  -0.88487
 Alpha  occ. eigenvalues --   -0.87486  -0.85566  -0.82754  -0.82320  -0.81172
 Alpha  occ. eigenvalues --   -0.80608  -0.80194  -0.78347  -0.76574  -0.75036
 Alpha  occ. eigenvalues --   -0.74585  -0.73423  -0.72279  -0.71291  -0.70341
 Alpha  occ. eigenvalues --   -0.69495  -0.68941  -0.68447  -0.67594  -0.67114
 Alpha  occ. eigenvalues --   -0.66092  -0.65080  -0.64508  -0.63912  -0.63180
 Alpha  occ. eigenvalues --   -0.62985  -0.62021  -0.60705  -0.60253  -0.59755
 Alpha  occ. eigenvalues --   -0.59409  -0.59307  -0.58823  -0.58542  -0.58349
 Alpha  occ. eigenvalues --   -0.58051  -0.57877  -0.57466  -0.56921  -0.56732
 Alpha  occ. eigenvalues --   -0.56215  -0.55923  -0.55506  -0.55126  -0.54700
 Alpha  occ. eigenvalues --   -0.54561  -0.53791  -0.53439  -0.53411  -0.52780
 Alpha  occ. eigenvalues --   -0.52663  -0.52070  -0.51788  -0.51204  -0.51055
 Alpha  occ. eigenvalues --   -0.50689  -0.50672  -0.50384  -0.49658  -0.49444
 Alpha  occ. eigenvalues --   -0.49113  -0.48680  -0.48468  -0.47774  -0.47626
 Alpha  occ. eigenvalues --   -0.46886  -0.46756  -0.46418  -0.46135  -0.45644
 Alpha  occ. eigenvalues --   -0.45490  -0.44481  -0.44365  -0.43570  -0.42623
 Alpha  occ. eigenvalues --   -0.42253  -0.42182  -0.41305  -0.41181  -0.40951
 Alpha  occ. eigenvalues --   -0.40734  -0.40700  -0.40391  -0.39734  -0.38890
 Alpha  occ. eigenvalues --   -0.37524  -0.37212  -0.37083  -0.36440  -0.35774
 Alpha  occ. eigenvalues --   -0.35452  -0.34186  -0.31802  -0.31300  -0.30940
 Alpha  occ. eigenvalues --   -0.30178  -0.27814
 Alpha virt. eigenvalues --   -0.17929  -0.11975  -0.10207  -0.08935  -0.08462
 Alpha virt. eigenvalues --   -0.07985  -0.07238  -0.07066  -0.06518  -0.03643
 Alpha virt. eigenvalues --   -0.02733  -0.02180  -0.01809  -0.01383  -0.00362

 Mulliken charges:
               1
     1  N   -0.771672
     2  H    0.334384
     3  H    0.320230
     4  C   -0.050910
     5  H    0.171177
     6  C    0.623523
     7  C   -0.375979
     8  H    0.152899
     9  H    0.187158
    10  O   -0.553632
    11  C    0.159280
    12  C   -0.180985
    13  H    0.136656
    14  C   -0.199433
    15  H    0.130957
    16  C   -0.126622
    17  H    0.148037
    18  C   -0.126294
    19  H    0.145665
    20  C   -0.127190
    21  H    0.148667
    22  N   -0.623873
    23  H    0.373768
    24  C   -0.015590
    25  H    0.207092
    26  C    0.585665
    27  C   -0.054904
    28  H    0.209218
    29  H    0.185882
    30  O   -0.555782
    31  O   -0.638426
    32  H    0.444435
    33  N   -0.568485
    34  H    0.409805
    35  C   -0.101484
    36  H    0.226853
    37  C    0.626331
    38  C   -0.023917
    39  H    0.191663
    40  H    0.188682
    41  O   -0.525892
    42  O   -0.654383
    43  H    0.445170
    44  N   -0.584177
    45  H    0.362586
    46  C   -0.073831
    47  H    0.205883
    48  C    0.631699
    49  C   -0.343495
    50  H    0.206060
    51  H    0.199258
    52  O   -0.532068
    53  C    0.585860
    54  O   -0.512022
    55  O   -0.564826
    56  N   -0.618169
    57  H    0.361954
    58  C   -0.043256
    59  H    0.205436
    60  C    0.587538
    61  C   -0.261037
    62  H    0.176153
    63  H    0.181085
    64  O   -0.466680
    65  C   -0.299165
    66  H    0.145711
    67  H    0.142807
    68  C   -0.130604
    69  H    0.154784
    70  H    0.148858
    71  N   -0.601968
    72  H    0.321877
    73  N   -0.749610
    74  H    0.340723
    75  H    0.319577
    76  N   -0.639720
    77  H    0.275173
    78  C    0.577657
    79  O   -0.556873
    80  H    0.429901
    81  H    0.482275
    82  H    0.456900
 Sum of Mulliken charges =   1.00000

 Dipole moment (field-independent basis, Debye):
    X=             -5.6008    Y=             -0.2593    Z=             -0.1053  Tot=              5.6078
 Quadrupole moment (field-independent basis, Debye-Ang):
   XX=            -86.5430   YY=           -241.8298   ZZ=           -231.3837
   XY=             36.7552   XZ=             44.2973   YZ=             12.3170

 Normal termination of Gaussian 16 at Thu May 26 21:39:16 2022.
