 Gaussian 16, Revision C.01,
 Gaussian 16:  ES64L-G16RevC.01  3-Jul-2019

 -------------------------------------------------------------------
 # B3LYP/6-31G* guess=read geom=check nosymm integral(ultrafinegrid)
 -------------------------------------------------------------------

 ------------------------------------------------------
 Candidate Structure: Conf:549 Charge calc in gas phase
 ------------------------------------------------------
 Structure from the checkpoint file:  "conf-549.chk"
 Charge =  1 Multiplicity = 1

                          Input orientation:
 ---------------------------------------------------------------------
 Center     Atomic      Atomic             Coordinates (Angstroms)
 Number     Number       Type             X           Y           Z
 ---------------------------------------------------------------------
      1          7           0       -4.415030    0.493721   -4.073617
      2          1           0       -4.438419    0.125535   -5.024442
      3          1           0       -5.370215    0.765569   -3.854407
      4          6           0       -3.956653   -0.540182   -3.140470
      5          1           0       -4.331582   -0.263072   -2.145689
      6          6           0       -2.422140   -0.503970   -3.013381
      7          6           0       -4.444479   -1.979829   -3.447172
      8          1           0       -4.077155   -2.267423   -4.441602
      9          1           0       -3.974469   -2.660631   -2.730617
     10          8           0       -1.803310   -1.410925   -2.419356
     11          6           0       -5.952063   -2.100776   -3.393096
     12          6           0       -6.611064   -2.219625   -2.160738
     13          1           0       -6.028287   -2.264586   -1.242339
     14          6           0       -6.724352   -2.063525   -4.561335
     15          1           0       -6.231703   -1.992448   -5.529041
     16          6           0       -8.002162   -2.295421   -2.097069
     17          1           0       -8.494569   -2.394640   -1.133587
     18          6           0       -8.117528   -2.140450   -4.502667
     19          1           0       -8.698377   -2.117839   -5.420546
     20          6           0       -8.760155   -2.254243   -3.269622
     21          1           0       -9.843402   -2.318341   -3.221933
     22          7           0       -1.838677    0.580120   -3.542744
     23          1           0       -2.468405    1.235822   -4.008790
     24          6           0       -0.410354    0.862829   -3.591798
     25          1           0        0.017597    0.402884   -4.493742
     26          6           0        0.298192    0.332089   -2.338293
     27          6           0       -0.210000    2.379307   -3.691112
     28          1           0        0.864768    2.590976   -3.786862
     29          1           0       -0.577418    2.841261   -2.765316
     30          8           0        0.050492    0.778731   -1.217664
     31          8           0       -0.945379    2.800259   -4.830227
     32          1           0       -0.956713    3.769056   -4.853015
     33          7           0        1.245216   -0.617617   -2.567229
     34          1           0        1.380061   -0.930907   -3.520515
     35          6           0        1.782995   -1.465479   -1.509903
     36          1           0        1.251610   -1.159130   -0.604533
     37          6           0        3.268878   -1.215288   -1.191305
     38          6           0        1.467109   -2.946694   -1.761799
     39          1           0        2.083746   -3.556776   -1.101403
     40          1           0        1.719513   -3.227566   -2.794541
     41          8           0        4.019023   -2.144199   -0.888784
     42          8           0        0.103724   -3.255696   -1.475330
     43          1           0       -1.709531   -1.540080   -0.289110
     44          7           0        3.616593    0.089395   -1.128583
     45          1           0        3.007860    0.795147   -1.532423
     46          6           0        4.945264    0.526339   -0.691176
     47          1           0        5.677116   -0.185061   -1.088477
     48          6           0        4.987506    0.494412    0.869650
     49          6           0        5.259143    1.959612   -1.162856
     50          1           0        4.789848    2.652134   -0.453830
     51          1           0        6.336115    2.126863   -1.107594
     52          8           0        4.920877    1.518069    1.542662
     53          6           0        4.748886    2.306696   -2.542881
     54          8           0        3.580842    2.229858   -2.891704
     55          8           0        5.717051    2.755569   -3.355582
     56          7           0        5.043975   -0.751693    1.399585
     57          1           0        4.994586   -1.563699    0.783388
     58          6           0        4.921919   -0.985995    2.829431
     59          1           0        5.678890   -0.402582    3.362899
     60          6           0        5.191631   -2.465420    3.072273
     61          6           0        3.531035   -0.601538    3.419682
     62          1           0        3.514622    0.483843    3.553285
     63          1           0        3.454064   -1.054192    4.415948
     64          8           0        5.086077   -3.334185    2.234408
     65          6           0        2.348457   -1.017420    2.527287
     66          1           0        2.513803   -2.020003    2.114905
     67          1           0        2.290863   -0.329899    1.676749
     68          6           0        1.009800   -0.965133    3.289047
     69          1           0        0.859482   -1.865461    3.897464
     70          1           0        1.007611   -0.125366    3.989003
     71          7           0       -0.166419   -0.742832    2.427048
     72          1           0       -0.612548    0.163115    2.487472
     73          7           0       -0.252761   -2.802249    1.311090
     74          1           0       -0.239774   -3.223048    0.371313
     75          1           0        0.215409   -3.277004    2.069172
     76          7           0       -1.391682   -0.958584    0.483459
     77          1           0       -1.135045   -0.028226    0.152433
     78          6           0       -0.583207   -1.511423    1.408969
     79          8           0        5.517123   -2.699853    4.357893
     80          1           0        5.655189   -3.662409    4.448992
     81          1           0       -0.484839   -2.713111   -2.040005
     82          1           0        5.298038    2.998083   -4.204179
 ---------------------------------------------------------------------

 SCF Done:  E(RB3LYP) =  -2166.31271210     A.U. after    2 cycles

 Alpha  occ. eigenvalues --  -19.29174 -19.28823 -19.25705 -19.24739 -19.23835
 Alpha  occ. eigenvalues --  -19.23734 -19.23332 -19.23031 -19.22025 -19.20429
 Alpha  occ. eigenvalues --  -14.50562 -14.49328 -14.48293 -14.47855 -14.46454
 Alpha  occ. eigenvalues --  -14.45946 -14.44155 -14.41861 -10.45796 -10.42087
 Alpha  occ. eigenvalues --  -10.41296 -10.41089 -10.39520 -10.39143 -10.37476
 Alpha  occ. eigenvalues --  -10.35351 -10.34608 -10.34281 -10.33950 -10.33690
 Alpha  occ. eigenvalues --  -10.33666 -10.33104 -10.32340 -10.29905 -10.29277
 Alpha  occ. eigenvalues --  -10.29059 -10.27499 -10.26968 -10.25980 -10.25951
 Alpha  occ. eigenvalues --  -10.25796 -10.25729 -10.25540  -1.20237  -1.19845
 Alpha  occ. eigenvalues --   -1.15914  -1.14427  -1.14048  -1.13874  -1.12528
 Alpha  occ. eigenvalues --   -1.12189  -1.12086  -1.11099  -1.10921  -1.04673
 Alpha  occ. eigenvalues --   -1.04075  -1.03310  -1.02381  -1.01883  -1.01057
 Alpha  occ. eigenvalues --   -0.98724  -0.92393  -0.90705  -0.89468  -0.87937
 Alpha  occ. eigenvalues --   -0.85704  -0.85638  -0.85266  -0.81244  -0.80411
 Alpha  occ. eigenvalues --   -0.80038  -0.78753  -0.76300  -0.75698  -0.74901
 Alpha  occ. eigenvalues --   -0.73201  -0.72265  -0.71378  -0.71040  -0.70393
 Alpha  occ. eigenvalues --   -0.69362  -0.68535  -0.67999  -0.67420  -0.67380
 Alpha  occ. eigenvalues --   -0.65982  -0.65225  -0.64497  -0.63971  -0.63318
 Alpha  occ. eigenvalues --   -0.62590  -0.61955  -0.61475  -0.61139  -0.60543
 Alpha  occ. eigenvalues --   -0.59717  -0.59539  -0.58862  -0.58613  -0.58524
 Alpha  occ. eigenvalues --   -0.58268  -0.57762  -0.57381  -0.57257  -0.56733
 Alpha  occ. eigenvalues --   -0.55585  -0.55118  -0.54500  -0.54249  -0.54098
 Alpha  occ. eigenvalues --   -0.53647  -0.53406  -0.53118  -0.53030  -0.52456
 Alpha  occ. eigenvalues --   -0.52353  -0.52118  -0.51778  -0.51203  -0.51016
 Alpha  occ. eigenvalues --   -0.50423  -0.50226  -0.50078  -0.49703  -0.49320
 Alpha  occ. eigenvalues --   -0.48874  -0.48755  -0.48226  -0.47907  -0.47551
 Alpha  occ. eigenvalues --   -0.47344  -0.46953  -0.46782  -0.45784  -0.45390
 Alpha  occ. eigenvalues --   -0.44739  -0.44669  -0.44627  -0.44515  -0.43783
 Alpha  occ. eigenvalues --   -0.42569  -0.41416  -0.41113  -0.40995  -0.40954
 Alpha  occ. eigenvalues --   -0.40832  -0.40038  -0.38870  -0.38535  -0.38194
 Alpha  occ. eigenvalues --   -0.37735  -0.37499  -0.37251  -0.37018  -0.36719
 Alpha  occ. eigenvalues --   -0.36185  -0.34781  -0.34170  -0.34052  -0.33102
 Alpha  occ. eigenvalues --   -0.31852  -0.31210
 Alpha virt. eigenvalues --   -0.11703  -0.10106  -0.09189  -0.09091  -0.08776
 Alpha virt. eigenvalues --   -0.08488  -0.07052  -0.06971  -0.06074  -0.05738
 Alpha virt. eigenvalues --   -0.03661  -0.03195  -0.01752  -0.01037  -0.00886

 Mulliken charges:
               1
     1  N   -0.748408
     2  H    0.318650
     3  H    0.336656
     4  C   -0.071404
     5  H    0.178093
     6  C    0.641446
     7  C   -0.367920
     8  H    0.149274
     9  H    0.168939
    10  O   -0.610607
    11  C    0.173151
    12  C   -0.183791
    13  H    0.119975
    14  C   -0.195348
    15  H    0.124146
    16  C   -0.126100
    17  H    0.142970
    18  C   -0.126518
    19  H    0.146242
    20  C   -0.128436
    21  H    0.147641
    22  N   -0.601774
    23  H    0.392971
    24  C   -0.028241
    25  H    0.168699
    26  C    0.650127
    27  C   -0.062216
    28  H    0.173232
    29  H    0.163808
    30  O   -0.566096
    31  O   -0.623502
    32  H    0.416983
    33  N   -0.607440
    34  H    0.346266
    35  C   -0.109050
    36  H    0.193391
    37  C    0.623906
    38  C   -0.050599
    39  H    0.199963
    40  H    0.155656
    41  O   -0.532080
    42  O   -0.666579
    43  H    0.382282
    44  N   -0.619631
    45  H    0.383738
    46  C   -0.062228
    47  H    0.197400
    48  C    0.633279
    49  C   -0.387960
    50  H    0.227471
    51  H    0.205235
    52  O   -0.521519
    53  C    0.594656
    54  O   -0.493989
    55  O   -0.540441
    56  N   -0.650787
    57  H    0.401593
    58  C   -0.008123
    59  H    0.205235
    60  C    0.569615
    61  C   -0.303385
    62  H    0.193739
    63  H    0.169943
    64  O   -0.453849
    65  C   -0.291927
    66  H    0.160493
    67  H    0.173183
    68  C   -0.167176
    69  H    0.179227
    70  H    0.191057
    71  N   -0.588012
    72  H    0.368225
    73  N   -0.762708
    74  H    0.421213
    75  H    0.369129
    76  N   -0.761772
    77  H    0.392673
    78  C    0.735579
    79  O   -0.561032
    80  H    0.425961
    81  H    0.446658
    82  H    0.420876
 Sum of Mulliken charges =   1.00000

 Dipole moment (field-independent basis, Debye):
    X=             -0.9317    Y=             -1.6527    Z=             -3.4398  Tot=              3.9283
 Quadrupole moment (field-independent basis, Debye-Ang):
   XX=           -179.2837   YY=           -227.1356   ZZ=           -169.1355
   XY=              2.2321   XZ=             20.2594   YZ=            -30.1793

 Normal termination of Gaussian 16 at Thu May 26 21:39:38 2022.
