 Gaussian 16, Revision C.01,
 Gaussian 16:  ES64L-G16RevC.01  3-Jul-2019

 -------------------------------------------------------------------
 # B3LYP/6-31G* guess=read geom=check nosymm integral(ultrafinegrid)
 -------------------------------------------------------------------

 ------------------------------------------------------
 Candidate Structure: Conf:684 Charge calc in gas phase
 ------------------------------------------------------
 Structure from the checkpoint file:  "conf-684.chk"
 Charge =  1 Multiplicity = 1

                          Input orientation:
 ---------------------------------------------------------------------
 Center     Atomic      Atomic             Coordinates (Angstroms)
 Number     Number       Type             X           Y           Z
 ---------------------------------------------------------------------
      1          7           0       -3.098672   -0.871978    0.831310
      2          1           0       -3.951779   -0.905332    1.389628
      3          1           0       -2.840747   -1.838938    0.632405
      4          6           0       -3.393474   -0.212322   -0.462728
      5          1           0       -4.252576   -0.687417   -0.962326
      6          6           0       -2.176395   -0.507061   -1.362648
      7          6           0       -3.732414    1.271407   -0.198640
      8          1           0       -4.484286    1.280732    0.602901
      9          1           0       -2.845176    1.769377    0.211396
     10          8           0       -1.618602   -1.613101   -1.277925
     11          6           0       -4.264973    2.064859   -1.379509
     12          6           0       -3.632401    3.253158   -1.776422
     13          1           0       -2.761599    3.607757   -1.227515
     14          6           0       -5.408383    1.649663   -2.079517
     15          1           0       -5.932050    0.744666   -1.779925
     16          6           0       -4.120991    4.001891   -2.851266
     17          1           0       -3.621023    4.922466   -3.138317
     18          6           0       -5.896776    2.395291   -3.151474
     19          1           0       -6.784855    2.060129   -3.679405
     20          6           0       -5.252666    3.572111   -3.542962
     21          1           0       -5.636370    4.151973   -4.377031
     22          7           0       -1.756562    0.447110   -2.214364
     23          1           0       -2.258048    1.329292   -2.247347
     24          6           0       -0.507914    0.347870   -2.980388
     25          1           0       -0.496145   -0.596552   -3.532978
     26          6           0        0.650802    0.396910   -1.963541
     27          6           0       -0.405525    1.523387   -3.966124
     28          1           0       -0.604235    2.462941   -3.431725
     29          1           0       -1.160669    1.406341   -4.749121
     30          8           0        1.009547    1.467492   -1.462772
     31          8           0        0.856986    1.531948   -4.594915
     32          1           0        1.480078    1.963957   -3.989351
     33          7           0        1.170911   -0.801278   -1.606449
     34          1           0        0.751379   -1.612668   -2.043037
     35          6           0        1.811484   -1.032066   -0.305650
     36          1           0        1.340490   -0.335726    0.403768
     37          6           0        3.324684   -0.714255   -0.239180
     38          6           0        1.508858   -2.458260    0.167322
     39          1           0        2.168353   -2.700628    0.999850
     40          1           0        1.719657   -3.183030   -0.631183
     41          8           0        4.118705   -1.513240    0.255111
     42          8           0        0.166391   -2.602750    0.634781
     43          1           0       -0.113137   -2.029636    2.281117
     44          7           0        3.652149    0.536820   -0.649791
     45          1           0        2.877367    1.163297   -0.873756
     46          6           0        4.936342    1.141814   -0.272581
     47          1           0        5.708339    0.375884   -0.362010
     48          6           0        4.789144    1.592240    1.199361
     49          6           0        5.254130    2.324810   -1.180478
     50          1           0        5.181492    2.032836   -2.234216
     51          1           0        4.541101    3.139053   -1.009634
     52          8           0        4.321943    2.687626    1.495436
     53          6           0        6.647777    2.852441   -0.910687
     54          8           0        7.421728    2.387344   -0.103139
     55          8           0        6.933545    3.914114   -1.691810
     56          7           0        5.099612    0.633115    2.114576
     57          1           0        5.366234   -0.285623    1.779950
     58          6           0        4.731880    0.785827    3.509113
     59          1           0        4.743726    1.858036    3.726748
     60          6           0        5.728641    0.121911    4.453501
     61          6           0        3.294776    0.243053    3.758997
     62          1           0        3.306312   -0.846843    3.614626
     63          1           0        2.675845    0.665149    2.958626
     64          8           0        5.702930    0.261350    5.657114
     65          6           0        2.685710    0.593009    5.122092
     66          1           0        2.576594    1.682344    5.213516
     67          1           0        3.360265    0.287086    5.927904
     68          6           0        1.331247   -0.081384    5.375595
     69          1           0        1.434464   -1.167435    5.306583
     70          1           0        0.982430    0.132727    6.390575
     71          7           0        0.264790    0.352150    4.453003
     72          1           0       -0.056686    1.303967    4.577185
     73          7           0       -0.962787    0.353463    2.478789
     74          1           0       -1.671756   -0.127464    1.884889
     75          1           0       -0.983533    1.363395    2.499054
     76          7           0       -0.073003   -1.625076    3.233108
     77          1           0        0.339000   -2.181541    3.966232
     78          6           0       -0.244159   -0.309361    3.399652
     79          8           0        6.609674   -0.675922    3.819218
     80          1           0        7.194355   -1.055082    4.503724
     81          1           0       -0.467283   -2.363158   -0.074830
     82          1           0        7.839274    4.196773   -1.461479
 ---------------------------------------------------------------------

 SCF Done:  E(RB3LYP) =  -2166.30373515     A.U. after    3 cycles

 Alpha  occ. eigenvalues --  -19.28193 -19.26387 -19.26145 -19.24688 -19.23931
 Alpha  occ. eigenvalues --  -19.23742 -19.22278 -19.21379 -19.20682 -19.19273
 Alpha  occ. eigenvalues --  -14.51354 -14.49255 -14.49116 -14.48724 -14.47752
 Alpha  occ. eigenvalues --  -14.45872 -14.44810 -14.43695 -10.46725 -10.41652
 Alpha  occ. eigenvalues --  -10.40651 -10.40368 -10.39025 -10.38477 -10.36436
 Alpha  occ. eigenvalues --  -10.35595 -10.35329 -10.34547 -10.34367 -10.34346
 Alpha  occ. eigenvalues --  -10.33582 -10.32707 -10.31683 -10.31168 -10.30215
 Alpha  occ. eigenvalues --  -10.29502 -10.29396 -10.28950 -10.28766 -10.28529
 Alpha  occ. eigenvalues --  -10.28441 -10.28194 -10.27855  -1.19100  -1.17160
 Alpha  occ. eigenvalues --   -1.16602  -1.15286  -1.14987  -1.13418  -1.12908
 Alpha  occ. eigenvalues --   -1.11472  -1.11169  -1.09982  -1.08234  -1.04875
 Alpha  occ. eigenvalues --   -1.04611  -1.04011  -1.02592  -1.01967  -1.01462
 Alpha  occ. eigenvalues --   -1.00639  -0.95451  -0.90672  -0.89719  -0.88396
 Alpha  occ. eigenvalues --   -0.86920  -0.85475  -0.85164  -0.84075  -0.82174
 Alpha  occ. eigenvalues --   -0.80050  -0.77705  -0.76789  -0.76763  -0.76074
 Alpha  occ. eigenvalues --   -0.73555  -0.72813  -0.72147  -0.71007  -0.70350
 Alpha  occ. eigenvalues --   -0.69666  -0.69285  -0.68520  -0.68110  -0.67835
 Alpha  occ. eigenvalues --   -0.66702  -0.65754  -0.64971  -0.64223  -0.63458
 Alpha  occ. eigenvalues --   -0.63086  -0.62808  -0.62083  -0.61671  -0.61002
 Alpha  occ. eigenvalues --   -0.60552  -0.60423  -0.60362  -0.59024  -0.58559
 Alpha  occ. eigenvalues --   -0.58038  -0.57629  -0.57417  -0.56485  -0.56266
 Alpha  occ. eigenvalues --   -0.55561  -0.55551  -0.55131  -0.54730  -0.54409
 Alpha  occ. eigenvalues --   -0.54375  -0.53897  -0.53604  -0.53489  -0.52996
 Alpha  occ. eigenvalues --   -0.52856  -0.51977  -0.51711  -0.51628  -0.51594
 Alpha  occ. eigenvalues --   -0.51271  -0.51173  -0.50502  -0.50003  -0.49935
 Alpha  occ. eigenvalues --   -0.49108  -0.48529  -0.48249  -0.48067  -0.47910
 Alpha  occ. eigenvalues --   -0.47393  -0.46874  -0.45817  -0.45511  -0.45349
 Alpha  occ. eigenvalues --   -0.45241  -0.45213  -0.44800  -0.44333  -0.44019
 Alpha  occ. eigenvalues --   -0.43871  -0.43619  -0.42791  -0.40964  -0.40543
 Alpha  occ. eigenvalues --   -0.40200  -0.39952  -0.39605  -0.39354  -0.38611
 Alpha  occ. eigenvalues --   -0.38383  -0.37681  -0.37055  -0.36606  -0.36432
 Alpha  occ. eigenvalues --   -0.36030  -0.34733  -0.34490  -0.34212  -0.33951
 Alpha  occ. eigenvalues --   -0.33185  -0.31892
 Alpha virt. eigenvalues --   -0.11557  -0.11060  -0.10269  -0.10021  -0.09844
 Alpha virt. eigenvalues --   -0.08449  -0.07885  -0.06908  -0.05487  -0.04939
 Alpha virt. eigenvalues --   -0.04832  -0.03755  -0.02910  -0.01750  -0.01619

 Mulliken charges:
               1
     1  N   -0.768011
     2  H    0.331147
     3  H    0.344456
     4  C   -0.074591
     5  H    0.184748
     6  C    0.653542
     7  C   -0.362228
     8  H    0.173218
     9  H    0.147013
    10  O   -0.574299
    11  C    0.129393
    12  C   -0.218231
    13  H    0.142034
    14  C   -0.176307
    15  H    0.138129
    16  C   -0.121089
    17  H    0.157672
    18  C   -0.124508
    19  H    0.159319
    20  C   -0.126017
    21  H    0.160900
    22  N   -0.622122
    23  H    0.373432
    24  C   -0.050904
    25  H    0.187540
    26  C    0.610461
    27  C   -0.060719
    28  H    0.150329
    29  H    0.179252
    30  O   -0.547216
    31  O   -0.603142
    32  H    0.411363
    33  N   -0.577357
    34  H    0.354222
    35  C   -0.097695
    36  H    0.177016
    37  C    0.629491
    38  C   -0.073648
    39  H    0.189907
    40  H    0.171538
    41  O   -0.529884
    42  O   -0.680567
    43  H    0.429983
    44  N   -0.628241
    45  H    0.378102
    46  C   -0.046977
    47  H    0.197174
    48  C    0.642578
    49  C   -0.384505
    50  H    0.191709
    51  H    0.206761
    52  O   -0.540110
    53  C    0.606187
    54  O   -0.458397
    55  O   -0.566414
    56  N   -0.603756
    57  H    0.368631
    58  C   -0.056050
    59  H    0.217184
    60  C    0.596945
    61  C   -0.278954
    62  H    0.142022
    63  H    0.154562
    64  O   -0.456658
    65  C   -0.277519
    66  H    0.158420
    67  H    0.208318
    68  C   -0.172993
    69  H    0.163328
    70  H    0.197076
    71  N   -0.594022
    72  H    0.354959
    73  N   -0.805437
    74  H    0.429601
    75  H    0.354907
    76  N   -0.792151
    77  H    0.366020
    78  C    0.784620
    79  O   -0.556540
    80  H    0.426831
    81  H    0.454305
    82  H    0.420914
 Sum of Mulliken charges =   1.00000

 Dipole moment (field-independent basis, Debye):
    X=             -6.1577    Y=              0.8548    Z=              6.1375  Tot=              8.7359
 Quadrupole moment (field-independent basis, Debye-Ang):
   XX=           -190.4115   YY=           -229.4018   ZZ=           -189.6601
   XY=            -10.2143   XZ=             11.5877   YZ=            -19.4883

 Normal termination of Gaussian 16 at Thu May 26 21:39:56 2022.
