 Gaussian 16, Revision C.01,
 Gaussian 16:  ES64L-G16RevC.01  3-Jul-2019

 -------------------------------------------------------------------
 # B3LYP/6-31G* guess=read geom=check nosymm integral(ultrafinegrid)
 -------------------------------------------------------------------

 ------------------------------------------------------
 Candidate Structure: Conf:367 Charge calc in gas phase
 ------------------------------------------------------
 Structure from the checkpoint file:  "conf-367.chk"
 Charge =  1 Multiplicity = 1

                          Input orientation:
 ---------------------------------------------------------------------
 Center     Atomic      Atomic             Coordinates (Angstroms)
 Number     Number       Type             X           Y           Z
 ---------------------------------------------------------------------
      1          7           0       -7.245320    0.188766   -4.950786
      2          1           0       -7.986572    0.616374   -5.500652
      3          1           0       -7.221965   -0.804814   -5.174499
      4          6           0       -5.956411    0.766919   -5.328441
      5          1           0       -5.811421    0.829659   -6.425197
      6          6           0       -4.882641   -0.229704   -4.856834
      7          6           0       -5.822624    2.200130   -4.765902
      8          1           0       -5.875374    2.148187   -3.672124
      9          1           0       -4.840711    2.605875   -5.042907
     10          8           0       -5.044454   -1.439780   -5.012253
     11          6           0       -6.892134    3.137091   -5.291020
     12          6           0       -6.684547    3.867000   -6.469623
     13          1           0       -5.735045    3.778275   -6.994156
     14          6           0       -8.119249    3.275465   -4.626672
     15          1           0       -8.294980    2.711677   -3.714397
     16          6           0       -7.674369    4.711279   -6.974181
     17          1           0       -7.492210    5.272011   -7.887188
     18          6           0       -9.111390    4.119344   -5.128687
     19          1           0      -10.055194    4.216162   -4.598481
     20          6           0       -8.892208    4.840104   -6.303995
     21          1           0       -9.662882    5.500026   -6.692783
     22          7           0       -3.737895    0.267143   -4.312939
     23          1           0       -3.639106    1.241415   -4.060195
     24          6           0       -2.721975   -0.628490   -3.807361
     25          1           0       -3.219071   -1.507426   -3.374641
     26          6           0       -1.949888    0.115940   -2.712657
     27          6           0       -1.784333   -1.141957   -4.913393
     28          1           0       -2.416194   -1.537312   -5.716971
     29          1           0       -1.177669   -1.978737   -4.525118
     30          8           0       -2.138863    1.299243   -2.452319
     31          8           0       -0.965467   -0.064955   -5.338438
     32          1           0       -0.641967   -0.257787   -6.230508
     33          7           0       -1.036387   -0.626676   -2.016375
     34          1           0       -0.842990   -1.595974   -2.239626
     35          6           0       -0.158486    0.009804   -1.065196
     36          1           0        0.121885    1.001430   -1.438050
     37          6           0        1.068094   -0.871057   -0.847916
     38          6           0       -0.884385    0.190032    0.288358
     39          1           0       -1.289981   -0.772649    0.619134
     40          1           0       -1.695025    0.907862    0.145614
     41          8           0        1.048578   -2.082960   -1.005937
     42          8           0        0.061559    0.696301    1.265051
     43          1           0       -0.427926    1.125448    1.985353
     44          7           0        2.167612   -0.210367   -0.353738
     45          1           0        2.104861    0.786892   -0.190932
     46          6           0        3.264823   -0.949378    0.225316
     47          1           0        3.437794   -1.839108   -0.386698
     48          6           0        2.884383   -1.443121    1.633804
     49          6           0        4.557480   -0.097771    0.257075
     50          1           0        4.629399    0.446316   -0.691713
     51          1           0        4.535233    0.650168    1.057289
     52          8           0        1.837130   -1.015484    2.264077
     53          6           0        5.821449   -0.940506    0.416253
     54          8           0        5.776770   -2.172181    0.454876
     55          8           0        6.907856   -0.222321    0.514535
     56          7           0        3.661050   -2.306116    2.237723
     57          1           0        4.490811   -2.569903    1.687957
     58          6           0        3.637987   -2.580780    3.682414
     59          1           0        2.652279   -2.962819    3.963404
     60          6           0        3.856496   -1.247321    4.423433
     61          6           0        4.739097   -3.605761    4.069144
     62          1           0        4.406327   -4.609538    3.784479
     63          1           0        4.807642   -3.594426    5.161773
     64          8           0        4.200799   -0.210536    3.903347
     65          6           0        6.086043   -3.263184    3.407718
     66          1           0        6.168098   -2.175256    3.305388
     67          1           0        6.105727   -3.669748    2.391142
     68          6           0        7.375725   -3.723245    4.106460
     69          1           0        7.492746   -3.224035    5.073753
     70          1           0        7.379760   -4.799777    4.301936
     71          7           0        8.555055   -3.440286    3.253531
     72          1           0        8.678410   -4.158592    2.547306
     73          7           0        8.579663   -1.138963    3.597586
     74          1           0        8.807894   -0.229706    3.214296
     75          1           0        9.013508   -1.319795    4.494497
     76          7           0        8.749655   -1.902873    1.417700
     77          1           0        8.647270   -2.742856    0.849744
     78          6           0        8.651627   -2.166648    2.684587
     79          8           0        3.628499   -1.402527    5.735544
     80          1           0        3.797561   -0.545383    6.172911
     81          1           0        1.247403   -0.355905    1.768730
     82          1           0        7.720461   -0.822517    0.780393
 ---------------------------------------------------------------------

 SCF Done:  E(RB3LYP) =  -2166.24831708     A.U. after    1 cycles

 Alpha  occ. eigenvalues --  -19.35346 -19.32615 -19.31354 -19.28287 -19.27255
 Alpha  occ. eigenvalues --  -19.25367 -19.25166 -19.21758 -19.20959 -19.16515
 Alpha  occ. eigenvalues --  -14.53058 -14.50037 -14.45870 -14.45671 -14.45469
 Alpha  occ. eigenvalues --  -14.41492 -14.40917 -14.34885 -10.47740 -10.45375
 Alpha  occ. eigenvalues --  -10.43884 -10.42082 -10.39973 -10.39154 -10.38497
 Alpha  occ. eigenvalues --  -10.38055 -10.36548 -10.35396 -10.33691 -10.33666
 Alpha  occ. eigenvalues --  -10.33485 -10.32324 -10.30875 -10.30723 -10.30193
 Alpha  occ. eigenvalues --  -10.26975 -10.23700 -10.23582 -10.22719 -10.22664
 Alpha  occ. eigenvalues --  -10.22621 -10.22510 -10.22420  -1.25821  -1.23686
 Alpha  occ. eigenvalues --   -1.20629  -1.17728  -1.16925  -1.14975  -1.13134
 Alpha  occ. eigenvalues --   -1.12203  -1.10638  -1.09236  -1.08961  -1.08484
 Alpha  occ. eigenvalues --   -1.06895  -1.02641  -0.99672  -0.98067  -0.95962
 Alpha  occ. eigenvalues --   -0.94835  -0.92784  -0.91944  -0.88965  -0.88363
 Alpha  occ. eigenvalues --   -0.86991  -0.83421  -0.82999  -0.81350  -0.80455
 Alpha  occ. eigenvalues --   -0.79120  -0.77983  -0.77708  -0.75804  -0.75396
 Alpha  occ. eigenvalues --   -0.73661  -0.72793  -0.71988  -0.70941  -0.70263
 Alpha  occ. eigenvalues --   -0.69381  -0.68999  -0.68797  -0.67526  -0.66058
 Alpha  occ. eigenvalues --   -0.65960  -0.64382  -0.64308  -0.64111  -0.63632
 Alpha  occ. eigenvalues --   -0.62590  -0.62003  -0.61562  -0.61123  -0.60841
 Alpha  occ. eigenvalues --   -0.60274  -0.59774  -0.59152  -0.59015  -0.58763
 Alpha  occ. eigenvalues --   -0.58269  -0.57897  -0.57092  -0.56955  -0.56560
 Alpha  occ. eigenvalues --   -0.55729  -0.55518  -0.55345  -0.54722  -0.54557
 Alpha  occ. eigenvalues --   -0.54318  -0.54020  -0.53640  -0.53124  -0.52736
 Alpha  occ. eigenvalues --   -0.52100  -0.51752  -0.51316  -0.50926  -0.50628
 Alpha  occ. eigenvalues --   -0.50184  -0.49963  -0.49414  -0.49124  -0.48823
 Alpha  occ. eigenvalues --   -0.48771  -0.48580  -0.48368  -0.47611  -0.47117
 Alpha  occ. eigenvalues --   -0.47082  -0.45785  -0.45573  -0.45440  -0.45016
 Alpha  occ. eigenvalues --   -0.44622  -0.44411  -0.43555  -0.43065  -0.42978
 Alpha  occ. eigenvalues --   -0.42036  -0.41827  -0.41585  -0.40669  -0.40493
 Alpha  occ. eigenvalues --   -0.40240  -0.39727  -0.39336  -0.39025  -0.38705
 Alpha  occ. eigenvalues --   -0.37893  -0.37537  -0.36468  -0.35498  -0.34920
 Alpha  occ. eigenvalues --   -0.34195  -0.34145  -0.31183  -0.30820  -0.28652
 Alpha  occ. eigenvalues --   -0.27990  -0.27314
 Alpha virt. eigenvalues --   -0.16744  -0.12223  -0.11663  -0.10538  -0.07871
 Alpha virt. eigenvalues --   -0.07099  -0.06524  -0.04337  -0.03996  -0.03956
 Alpha virt. eigenvalues --   -0.03827  -0.03218  -0.02731  -0.01849  -0.00910

 Mulliken charges:
               1
     1  N   -0.734288
     2  H    0.310086
     3  H    0.323915
     4  C   -0.047498
     5  H    0.145112
     6  C    0.628175
     7  C   -0.361990
     8  H    0.156535
     9  H    0.137474
    10  O   -0.542564
    11  C    0.146157
    12  C   -0.180365
    13  H    0.121052
    14  C   -0.178403
    15  H    0.141746
    16  C   -0.128602
    17  H    0.134442
    18  C   -0.131170
    19  H    0.135488
    20  C   -0.129143
    21  H    0.135898
    22  N   -0.626439
    23  H    0.366160
    24  C   -0.056658
    25  H    0.191728
    26  C    0.638879
    27  C   -0.041674
    28  H    0.180666
    29  H    0.116413
    30  O   -0.524588
    31  O   -0.616200
    32  H    0.408585
    33  N   -0.634706
    34  H    0.361327
    35  C   -0.032865
    36  H    0.200886
    37  C    0.588415
    38  C   -0.063509
    39  H    0.177993
    40  H    0.214524
    41  O   -0.500023
    42  O   -0.665927
    43  H    0.441241
    44  N   -0.639791
    45  H    0.358723
    46  C   -0.049909
    47  H    0.249565
    48  C    0.650887
    49  C   -0.400488
    50  H    0.227687
    51  H    0.218154
    52  O   -0.588618
    53  C    0.627270
    54  O   -0.523831
    55  O   -0.579306
    56  N   -0.586159
    57  H    0.433953
    58  C   -0.060568
    59  H    0.221777
    60  C    0.613962
    61  C   -0.305623
    62  H    0.185825
    63  H    0.195212
    64  O   -0.464260
    65  C   -0.329835
    66  H    0.180007
    67  H    0.174868
    68  C   -0.162742
    69  H    0.168751
    70  H    0.177965
    71  N   -0.564676
    72  H    0.330494
    73  N   -0.722308
    74  H    0.358936
    75  H    0.353802
    76  N   -0.711274
    77  H    0.307997
    78  C    0.599083
    79  O   -0.551867
    80  H    0.436655
    81  H    0.495919
    82  H    0.467475
 Sum of Mulliken charges =   1.00000

 Dipole moment (field-independent basis, Debye):
    X=             17.8662    Y=             -5.3194    Z=             10.8434  Tot=             21.5657
 Quadrupole moment (field-independent basis, Debye-Ang):
   XX=           -130.5692   YY=           -221.2100   ZZ=           -158.8889
   XY=            -55.1319   XZ=             71.6903   YZ=            -29.3730

 Normal termination of Gaussian 16 at Thu May 26 21:39:16 2022.
