 Gaussian 16, Revision C.01,
 Gaussian 16:  ES64L-G16RevC.01  3-Jul-2019

 -------------------------------------------------------------------
 # B3LYP/6-31G* guess=read geom=check nosymm integral(ultrafinegrid)
 -------------------------------------------------------------------

 ------------------------------------------------------
 Candidate Structure: Conf:472 Charge calc in gas phase
 ------------------------------------------------------
 Structure from the checkpoint file:  "conf-472.chk"
 Charge =  1 Multiplicity = 1

                          Input orientation:
 ---------------------------------------------------------------------
 Center     Atomic      Atomic             Coordinates (Angstroms)
 Number     Number       Type             X           Y           Z
 ---------------------------------------------------------------------
      1          7           0       -3.378662   -0.690593    3.330190
      2          1           0       -4.207138   -0.891124    3.884922
      3          1           0       -2.556684   -1.038041    3.834949
      4          6           0       -3.486894   -1.351084    2.050864
      5          1           0       -3.517317   -2.456680    2.102638
      6          6           0       -2.270531   -1.006767    1.196499
      7          6           0       -4.784271   -0.893280    1.308084
      8          1           0       -5.594713   -1.001244    2.039525
      9          1           0       -4.697100    0.175370    1.088716
     10          8           0       -1.659324    0.081852    1.484935
     11          6           0       -5.105360   -1.692598    0.062915
     12          6           0       -4.873309   -1.169054   -1.217035
     13          1           0       -4.455889   -0.172345   -1.325180
     14          6           0       -5.626326   -2.993015    0.171852
     15          1           0       -5.833149   -3.408944    1.156309
     16          6           0       -5.159730   -1.923226   -2.357853
     17          1           0       -4.984734   -1.494913   -3.340847
     18          6           0       -5.909089   -3.749316   -0.966384
     19          1           0       -6.323810   -4.748070   -0.862136
     20          6           0       -5.677326   -3.214119   -2.235995
     21          1           0       -5.908897   -3.796458   -3.123392
     22          7           0       -1.950258   -1.861028    0.240941
     23          1           0       -2.630468   -2.606143    0.115908
     24          6           0       -0.813256   -1.858451   -0.684085
     25          1           0        0.091214   -2.066023   -0.101026
     26          6           0       -0.710865   -0.498118   -1.412289
     27          6           0       -1.011446   -2.996583   -1.696311
     28          1           0       -1.875713   -2.757918   -2.332699
     29          1           0       -1.226149   -3.932525   -1.153171
     30          8           0       -1.727530    0.094977   -1.757956
     31          8           0        0.197398   -3.076595   -2.420254
     32          1           0        0.053375   -3.606630   -3.218464
     33          7           0        0.554404   -0.053144   -1.563112
     34          1           0        1.323083   -0.613927   -1.202863
     35          6           0        0.925643    1.341493   -1.742866
     36          1           0        0.884732    1.646885   -2.797353
     37          6           0        2.375130    1.440186   -1.212837
     38          6           0       -0.004933    2.267327   -0.916621
     39          1           0       -1.009447    2.229472   -1.332792
     40          1           0        0.349335    3.301951   -0.941996
     41          8           0        2.942971    0.463219   -0.726213
     42          8           0       -0.095824    1.818466    0.434087
     43          1           0        0.712326    2.107462    0.916405
     44          7           0        2.942185    2.673090   -1.239004
     45          1           0        2.372848    3.478531   -1.489329
     46          6           0        4.001333    2.966343   -0.286018
     47          1           0        4.865076    2.330190   -0.502670
     48          6           0        3.506612    2.649298    1.151418
     49          6           0        4.444010    4.442502   -0.405829
     50          1           0        5.217733    4.663572    0.332557
     51          1           0        4.879818    4.594411   -1.400762
     52          8           0        2.311520    2.730106    1.456114
     53          6           0        3.297496    5.430734   -0.267004
     54          8           0        2.247895    5.356685   -0.881623
     55          8           0        3.577671    6.422271    0.587073
     56          7           0        4.460418    2.305715    2.037226
     57          1           0        5.442847    2.350856    1.788825
     58          6           0        4.166602    2.035925    3.438627
     59          1           0        3.228964    2.543894    3.679747
     60          6           0        5.300251    2.635066    4.263096
     61          6           0        4.020920    0.522154    3.756280
     62          1           0        3.644455    0.449449    4.784436
     63          1           0        5.015628    0.055942    3.755043
     64          8           0        6.359519    2.994928    3.797700
     65          6           0        3.117358   -0.233743    2.770439
     66          1           0        3.588949   -0.231977    1.782049
     67          1           0        2.157626    0.282813    2.652706
     68          6           0        2.850880   -1.693159    3.187034
     69          1           0        2.571642   -2.270144    2.304315
     70          1           0        3.764979   -2.147026    3.590655
     71          7           0        1.771662   -1.844068    4.171690
     72          1           0        1.845239   -1.231943    4.975540
     73          7           0        0.324132   -3.008369    2.739154
     74          1           0       -0.622690   -3.372621    2.724672
     75          1           0        0.992260   -3.773769    2.757318
     76          7           0       -0.605729   -1.701542    4.411019
     77          1           0       -0.388793   -0.980515    5.100320
     78          6           0        0.460500   -2.131156    3.828112
     79          8           0        4.995779    2.671164    5.570812
     80          1           0        5.773828    3.027604    6.042391
     81          1           0       -0.966402    0.544097    0.896783
     82          1           0        2.813050    7.031731    0.592373
 ---------------------------------------------------------------------

 SCF Done:  E(RB3LYP) =  -2166.25382500     A.U. after    2 cycles

 Alpha  occ. eigenvalues --  -19.31526 -19.30182 -19.29722 -19.26268 -19.25573
 Alpha  occ. eigenvalues --  -19.24814 -19.24215 -19.23538 -19.23197 -19.22107
 Alpha  occ. eigenvalues --  -14.51731 -14.47515 -14.46183 -14.45875 -14.44323
 Alpha  occ. eigenvalues --  -14.43977 -14.39467 -14.38135 -10.44709 -10.43181
 Alpha  occ. eigenvalues --  -10.42266 -10.40497 -10.39797 -10.39446 -10.37727
 Alpha  occ. eigenvalues --  -10.35679 -10.35446 -10.35359 -10.34336 -10.34078
 Alpha  occ. eigenvalues --  -10.33826 -10.33581 -10.31818 -10.31441 -10.29444
 Alpha  occ. eigenvalues --  -10.28813 -10.28224 -10.27827 -10.27360 -10.27111
 Alpha  occ. eigenvalues --  -10.26985 -10.26945 -10.26904  -1.21979  -1.21298
 Alpha  occ. eigenvalues --   -1.20750  -1.15958  -1.14736  -1.14142  -1.13126
 Alpha  occ. eigenvalues --   -1.12750  -1.12248  -1.11910  -1.08523  -1.06902
 Alpha  occ. eigenvalues --   -1.03947  -1.03542  -1.02685  -0.98568  -0.98044
 Alpha  occ. eigenvalues --   -0.93726  -0.93631  -0.91226  -0.90380  -0.89122
 Alpha  occ. eigenvalues --   -0.86524  -0.85579  -0.84442  -0.82439  -0.81430
 Alpha  occ. eigenvalues --   -0.79927  -0.78081  -0.77234  -0.76919  -0.75073
 Alpha  occ. eigenvalues --   -0.73351  -0.71993  -0.71589  -0.70670  -0.70216
 Alpha  occ. eigenvalues --   -0.69784  -0.69549  -0.68748  -0.68595  -0.67033
 Alpha  occ. eigenvalues --   -0.66773  -0.65557  -0.64097  -0.63990  -0.63631
 Alpha  occ. eigenvalues --   -0.62651  -0.61188  -0.60361  -0.60072  -0.59752
 Alpha  occ. eigenvalues --   -0.59375  -0.59227  -0.58648  -0.58236  -0.58108
 Alpha  occ. eigenvalues --   -0.57753  -0.57542  -0.57038  -0.56740  -0.56428
 Alpha  occ. eigenvalues --   -0.55832  -0.55668  -0.55463  -0.54840  -0.54430
 Alpha  occ. eigenvalues --   -0.53948  -0.53385  -0.53190  -0.53006  -0.52892
 Alpha  occ. eigenvalues --   -0.52758  -0.52418  -0.51838  -0.51732  -0.51561
 Alpha  occ. eigenvalues --   -0.50953  -0.50463  -0.50245  -0.49927  -0.49464
 Alpha  occ. eigenvalues --   -0.49079  -0.49049  -0.48488  -0.48422  -0.48230
 Alpha  occ. eigenvalues --   -0.47928  -0.47802  -0.47060  -0.46685  -0.46017
 Alpha  occ. eigenvalues --   -0.45639  -0.44722  -0.44182  -0.43949  -0.43797
 Alpha  occ. eigenvalues --   -0.43458  -0.42303  -0.42168  -0.42064  -0.41803
 Alpha  occ. eigenvalues --   -0.41724  -0.39374  -0.38872  -0.38525  -0.38201
 Alpha  occ. eigenvalues --   -0.37568  -0.36965  -0.36825  -0.36499  -0.36420
 Alpha  occ. eigenvalues --   -0.35872  -0.35504  -0.35182  -0.33150  -0.32811
 Alpha  occ. eigenvalues --   -0.32206  -0.31691
 Alpha virt. eigenvalues --   -0.13514  -0.10358  -0.10099  -0.09550  -0.09000
 Alpha virt. eigenvalues --   -0.08758  -0.08390  -0.08230  -0.04762  -0.04441
 Alpha virt. eigenvalues --   -0.02758  -0.02303  -0.01792  -0.01617  -0.01368

 Mulliken charges:
               1
     1  N   -0.744445
     2  H    0.311598
     3  H    0.363423
     4  C   -0.059599
     5  H    0.139620
     6  C    0.668291
     7  C   -0.358140
     8  H    0.176964
     9  H    0.189700
    10  O   -0.554397
    11  C    0.121854
    12  C   -0.180448
    13  H    0.160909
    14  C   -0.196287
    15  H    0.136309
    16  C   -0.139360
    17  H    0.151387
    18  C   -0.130800
    19  H    0.150382
    20  C   -0.133554
    21  H    0.149945
    22  N   -0.585199
    23  H    0.375891
    24  C   -0.044858
    25  H    0.204182
    26  C    0.600246
    27  C   -0.068499
    28  H    0.177905
    29  H    0.143758
    30  O   -0.519249
    31  O   -0.614026
    32  H    0.420586
    33  N   -0.604994
    34  H    0.371185
    35  C   -0.040120
    36  H    0.196111
    37  C    0.605580
    38  C   -0.098569
    39  H    0.217160
    40  H    0.180657
    41  O   -0.529909
    42  O   -0.689598
    43  H    0.474799
    44  N   -0.612104
    45  H    0.381864
    46  C   -0.069310
    47  H    0.193710
    48  C    0.672378
    49  C   -0.384821
    50  H    0.204793
    51  H    0.221085
    52  O   -0.576185
    53  C    0.602475
    54  O   -0.469684
    55  O   -0.539529
    56  N   -0.598318
    57  H    0.359415
    58  C   -0.051456
    59  H    0.209701
    60  C    0.590055
    61  C   -0.279049
    62  H    0.160535
    63  H    0.159406
    64  O   -0.458242
    65  C   -0.285065
    66  H    0.180882
    67  H    0.154709
    68  C   -0.158220
    69  H    0.170398
    70  H    0.163009
    71  N   -0.586877
    72  H    0.323681
    73  N   -0.749722
    74  H    0.332767
    75  H    0.337777
    76  N   -0.666306
    77  H    0.285161
    78  C    0.584806
    79  O   -0.557456
    80  H    0.431481
    81  H    0.495325
    82  H    0.430541
 Sum of Mulliken charges =   1.00000

 Dipole moment (field-independent basis, Debye):
    X=              4.6543    Y=             -1.2032    Z=              4.6800  Tot=              6.7091
 Quadrupole moment (field-independent basis, Debye-Ang):
   XX=           -181.2616   YY=           -173.7855   ZZ=           -195.8117
   XY=             51.2115   XZ=             24.2970   YZ=              7.8840

 Normal termination of Gaussian 16 at Thu May 26 21:39:41 2022.
