 Gaussian 16, Revision C.01,
 Gaussian 16:  ES64L-G16RevC.01  3-Jul-2019

 -------------------------------------------------------------------
 # B3LYP/6-31G* guess=read geom=check nosymm integral(ultrafinegrid)
 -------------------------------------------------------------------

 ------------------------------------------------------
 Candidate Structure: Conf:950 Charge calc in gas phase
 ------------------------------------------------------
 Structure from the checkpoint file:  "conf-950.chk"
 Charge =  1 Multiplicity = 1

                          Input orientation:
 ---------------------------------------------------------------------
 Center     Atomic      Atomic             Coordinates (Angstroms)
 Number     Number       Type             X           Y           Z
 ---------------------------------------------------------------------
      1          7           0       -6.000893   -1.593947   -4.246073
      2          1           0       -5.570817   -2.464059   -4.548906
      3          1           0       -6.100911   -1.613570   -3.234220
      4          6           0       -5.272192   -0.423413   -4.688969
      5          1           0       -5.129055   -0.503706   -5.772708
      6          6           0       -3.893774   -0.290886   -4.044491
      7          6           0       -6.078849    0.878779   -4.397939
      8          1           0       -6.410319    0.835965   -3.353305
      9          1           0       -5.404772    1.740702   -4.476524
     10          8           0       -3.905197   -0.386144   -2.751131
     11          6           0       -7.248249    1.060190   -5.341099
     12          6           0       -7.131768    1.921350   -6.440342
     13          1           0       -6.207965    2.476096   -6.594884
     14          6           0       -8.453487    0.372188   -5.146857
     15          1           0       -8.557755   -0.300243   -4.301135
     16          6           0       -8.193091    2.091434   -7.329967
     17          1           0       -8.089196    2.769412   -8.172461
     18          6           0       -9.515608    0.541129   -6.034959
     19          1           0      -10.445497    0.004334   -5.869783
     20          6           0       -9.388198    1.399410   -7.128954
     21          1           0      -10.218188    1.533279   -7.816758
     22          7           0       -2.847710   -0.110157   -4.817091
     23          1           0       -3.027270   -0.090895   -5.822453
     24          6           0       -1.411869    0.091827   -4.541725
     25          1           0       -0.926680   -0.890561   -4.561836
     26          6           0       -1.225493    0.806746   -3.195472
     27          6           0       -0.867724    0.953093   -5.692015
     28          1           0        0.228205    0.970410   -5.631465
     29          1           0       -1.250141    1.975514   -5.578941
     30          8           0       -1.885062    1.808719   -2.945350
     31          8           0       -1.327020    0.339233   -6.889504
     32          1           0       -1.125166    0.913932   -7.644135
     33          7           0       -0.367225    0.203040   -2.346638
     34          1           0        0.262620   -0.544613   -2.630676
     35          6           0       -0.170444    0.651917   -0.980628
     36          1           0       -0.368372    1.726043   -0.930520
     37          6           0        1.285706    0.300038   -0.604932
     38          6           0       -1.134137   -0.097809   -0.043329
     39          1           0       -1.087629    0.338505    0.960856
     40          1           0       -0.841073   -1.154821    0.014122
     41          8           0        1.876007   -0.579119   -1.235825
     42          8           0       -2.462451    0.022877   -0.572363
     43          1           0       -3.097009   -0.274630    0.098252
     44          7           0        1.793757    0.969601    0.439951
     45          1           0        1.284252    1.703389    0.932484
     46          6           0        3.106075    0.709787    1.015531
     47          1           0        3.238216   -0.368195    1.152717
     48          6           0        3.088428    1.437214    2.381515
     49          6           0        4.232682    1.239089    0.094680
     50          1           0        3.981422    1.002088   -0.943739
     51          1           0        4.323144    2.328537    0.171963
     52          8           0        2.203573    2.258397    2.625244
     53          6           0        5.588023    0.631218    0.382242
     54          8           0        5.858376   -0.097702    1.320378
     55          8           0        6.488389    0.977001   -0.548918
     56          7           0        4.087778    1.115411    3.232342
     57          1           0        4.839302    0.545719    2.843235
     58          6           0        4.429706    2.008656    4.328133
     59          1           0        3.497140    2.359976    4.780772
     60          6           0        5.147694    3.241937    3.759107
     61          6           0        5.290339    1.296365    5.389962
     62          1           0        5.609744    2.051830    6.115747
     63          1           0        6.203129    0.913120    4.917487
     64          8           0        5.477139    3.385144    2.601915
     65          6           0        4.543820    0.166501    6.110920
     66          1           0        4.147269   -0.546288    5.375476
     67          1           0        3.672050    0.584702    6.634366
     68          6           0        5.395807   -0.604702    7.138323
     69          1           0        5.842431    0.084104    7.863916
     70          1           0        4.733833   -1.263521    7.713684
     71          7           0        6.460873   -1.421348    6.582308
     72          1           0        6.162621   -2.162468    5.960310
     73          7           0        8.529161   -1.944357    5.699421
     74          1           0        9.496300   -1.641233    5.653747
     75          1           0        8.458135   -2.867808    6.116364
     76          7           0        8.292163    0.158110    6.649748
     77          1           0        7.608344    0.820478    7.013907
     78          6           0        7.758896   -0.972187    6.354092
     79          8           0        5.374159    4.160969    4.716980
     80          1           0        5.840934    4.907353    4.294727
     81          1           0       -3.110096   -0.172390   -2.179088
     82          1           0        7.340041    0.574436   -0.289969
 ---------------------------------------------------------------------

 SCF Done:  E(RB3LYP) =  -2166.23832783     A.U. after    2 cycles

 Alpha  occ. eigenvalues --  -19.34813 -19.29594 -19.28692 -19.27849 -19.26738
 Alpha  occ. eigenvalues --  -19.24298 -19.22800 -19.22544 -19.21261 -19.20623
 Alpha  occ. eigenvalues --  -14.54266 -14.48845 -14.46303 -14.43777 -14.43468
 Alpha  occ. eigenvalues --  -14.39924 -14.37973 -14.32544 -10.47105 -10.42079
 Alpha  occ. eigenvalues --  -10.41036 -10.39859 -10.39109 -10.38486 -10.37483
 Alpha  occ. eigenvalues --  -10.37387 -10.36612 -10.36037 -10.35399 -10.33169
 Alpha  occ. eigenvalues --  -10.32317 -10.31132 -10.29842 -10.29023 -10.28063
 Alpha  occ. eigenvalues --  -10.27501 -10.26409 -10.26003 -10.25989 -10.25960
 Alpha  occ. eigenvalues --  -10.25809 -10.25755 -10.25262  -1.24840  -1.19133
 Alpha  occ. eigenvalues --   -1.17707  -1.17097  -1.16260  -1.15732  -1.14490
 Alpha  occ. eigenvalues --   -1.12451  -1.10720  -1.10088  -1.08732  -1.05244
 Alpha  occ. eigenvalues --   -1.02885  -1.01852  -1.01686  -1.00725  -0.93276
 Alpha  occ. eigenvalues --   -0.93192  -0.92816  -0.89663  -0.88100  -0.87651
 Alpha  occ. eigenvalues --   -0.87142  -0.86011  -0.83444  -0.81430  -0.81162
 Alpha  occ. eigenvalues --   -0.79800  -0.79051  -0.78799  -0.76213  -0.74543
 Alpha  occ. eigenvalues --   -0.73865  -0.73566  -0.71331  -0.70153  -0.69912
 Alpha  occ. eigenvalues --   -0.67737  -0.67589  -0.67286  -0.66798  -0.66360
 Alpha  occ. eigenvalues --   -0.65874  -0.65383  -0.65081  -0.63199  -0.62574
 Alpha  occ. eigenvalues --   -0.62046  -0.61643  -0.60981  -0.59943  -0.59380
 Alpha  occ. eigenvalues --   -0.58897  -0.58879  -0.58664  -0.58028  -0.57569
 Alpha  occ. eigenvalues --   -0.57458  -0.56815  -0.56555  -0.55943  -0.55600
 Alpha  occ. eigenvalues --   -0.55368  -0.54910  -0.54443  -0.54269  -0.54071
 Alpha  occ. eigenvalues --   -0.53757  -0.53311  -0.52896  -0.52661  -0.52417
 Alpha  occ. eigenvalues --   -0.52391  -0.51752  -0.51404  -0.50189  -0.50010
 Alpha  occ. eigenvalues --   -0.49567  -0.49333  -0.49042  -0.48853  -0.48656
 Alpha  occ. eigenvalues --   -0.48552  -0.48457  -0.48025  -0.47691  -0.47442
 Alpha  occ. eigenvalues --   -0.47048  -0.46822  -0.46301  -0.45651  -0.45407
 Alpha  occ. eigenvalues --   -0.44491  -0.44251  -0.43205  -0.42726  -0.41816
 Alpha  occ. eigenvalues --   -0.41582  -0.41447  -0.41181  -0.41153  -0.40852
 Alpha  occ. eigenvalues --   -0.40530  -0.40231  -0.38839  -0.38805  -0.38033
 Alpha  occ. eigenvalues --   -0.36948  -0.36415  -0.36058  -0.36013  -0.35071
 Alpha  occ. eigenvalues --   -0.34595  -0.33510  -0.31954  -0.31707  -0.30315
 Alpha  occ. eigenvalues --   -0.30153  -0.26884
 Alpha virt. eigenvalues --   -0.15955  -0.11974  -0.08993  -0.07549  -0.07483
 Alpha virt. eigenvalues --   -0.07108  -0.06504  -0.06046  -0.05878  -0.05018
 Alpha virt. eigenvalues --   -0.03820  -0.02516  -0.01522  -0.01039   0.00375

 Mulliken charges:
               1
     1  N   -0.682813
     2  H    0.323726
     3  H    0.325495
     4  C   -0.073609
     5  H    0.178493
     6  C    0.659787
     7  C   -0.369083
     8  H    0.173971
     9  H    0.169116
    10  O   -0.596116
    11  C    0.169714
    12  C   -0.186681
    13  H    0.117419
    14  C   -0.152824
    15  H    0.134744
    16  C   -0.126734
    17  H    0.144279
    18  C   -0.130760
    19  H    0.147216
    20  C   -0.124928
    21  H    0.149068
    22  N   -0.590464
    23  H    0.396817
    24  C   -0.040823
    25  H    0.200509
    26  C    0.562356
    27  C   -0.057582
    28  H    0.179767
    29  H    0.187134
    30  O   -0.502481
    31  O   -0.631220
    32  H    0.431895
    33  N   -0.605636
    34  H    0.365249
    35  C   -0.081687
    36  H    0.209939
    37  C    0.628165
    38  C   -0.028092
    39  H    0.176804
    40  H    0.166431
    41  O   -0.538955
    42  O   -0.644178
    43  H    0.431968
    44  N   -0.631082
    45  H    0.366945
    46  C   -0.048373
    47  H    0.199452
    48  C    0.613578
    49  C   -0.373123
    50  H    0.210994
    51  H    0.224564
    52  O   -0.536737
    53  C    0.621408
    54  O   -0.482692
    55  O   -0.551052
    56  N   -0.611100
    57  H    0.383644
    58  C   -0.059598
    59  H    0.202172
    60  C    0.603806
    61  C   -0.305809
    62  H    0.175109
    63  H    0.178324
    64  O   -0.475431
    65  C   -0.257319
    66  H    0.140881
    67  H    0.143072
    68  C   -0.152541
    69  H    0.161841
    70  H    0.157109
    71  N   -0.591962
    72  H    0.319399
    73  N   -0.751485
    74  H    0.338595
    75  H    0.319346
    76  N   -0.645718
    77  H    0.271868
    78  C    0.577006
    79  O   -0.558399
    80  H    0.423806
    81  H    0.506462
    82  H    0.427641
 Sum of Mulliken charges =   1.00000

 Dipole moment (field-independent basis, Debye):
    X=             -7.0295    Y=             -1.3414    Z=            -11.9521  Tot=             13.9308
 Quadrupole moment (field-independent basis, Debye-Ang):
   XX=           -170.9561   YY=           -231.6190   ZZ=           -125.7388
   XY=              5.0050   XZ=             56.4154   YZ=            -15.3020

 Normal termination of Gaussian 16 at Thu May 26 21:39:30 2022.
