 Gaussian 16, Revision C.01,
 Gaussian 16:  ES64L-G16RevC.01  3-Jul-2019

 -------------------------------------------------------------------
 # B3LYP/6-31G* guess=read geom=check nosymm integral(ultrafinegrid)
 -------------------------------------------------------------------

 ------------------------------------------------------
 Candidate Structure: Conf:962 Charge calc in gas phase
 ------------------------------------------------------
 Structure from the checkpoint file:  "conf-962.chk"
 Charge =  1 Multiplicity = 1

                          Input orientation:
 ---------------------------------------------------------------------
 Center     Atomic      Atomic             Coordinates (Angstroms)
 Number     Number       Type             X           Y           Z
 ---------------------------------------------------------------------
      1          7           0       -3.734894   -2.250550   -0.594069
      2          1           0       -4.579172   -2.383609   -0.036993
      3          1           0       -3.333275   -3.173617   -0.758191
      4          6           0       -4.144026   -1.700983   -1.908989
      5          1           0       -4.823634   -2.395079   -2.431067
      6          6           0       -2.869104   -1.614785   -2.767195
      7          6           0       -4.888226   -0.359434   -1.720486
      8          1           0       -4.185284    0.384333   -1.327896
      9          1           0       -5.227295   -0.008852   -2.704300
     10          8           0       -1.948227   -2.413223   -2.565814
     11          6           0       -6.095419   -0.477521   -0.809561
     12          6           0       -7.279692   -1.071490   -1.270684
     13          1           0       -7.342630   -1.424295   -2.298348
     14          6           0       -6.046851   -0.012708    0.511363
     15          1           0       -5.142088    0.466762    0.878479
     16          6           0       -8.385958   -1.200152   -0.431408
     17          1           0       -9.297865   -1.655682   -0.806738
     18          6           0       -7.154140   -0.138651    1.353331
     19          1           0       -7.102995    0.236631    2.371546
     20          6           0       -8.325259   -0.734292    0.884186
     21          1           0       -9.188861   -0.828337    1.536027
     22          7           0       -2.785577   -0.659087   -3.737894
     23          1           0       -3.449967    0.101960   -3.676634
     24          6           0       -1.452704   -0.299120   -4.210824
     25          1           0       -0.999939   -1.179991   -4.673083
     26          6           0       -0.618601    0.100006   -2.967262
     27          6           0       -1.496730    0.811055   -5.262237
     28          1           0       -1.883605    1.739993   -4.815165
     29          1           0       -2.168913    0.510264   -6.078806
     30          8           0       -1.206662    0.527210   -1.965452
     31          8           0       -0.154442    0.950972   -5.696482
     32          1           0       -0.080817    1.731642   -6.265945
     33          7           0        0.710770   -0.147872   -2.989898
     34          1           0        1.160858   -0.374317   -3.869716
     35          6           0        1.423783   -0.330890   -1.732399
     36          1           0        0.738057    0.028451   -0.970910
     37          6           0        2.751732    0.415891   -1.542273
     38          6           0        1.685071   -1.836611   -1.496361
     39          1           0        2.311935   -1.969423   -0.610399
     40          1           0        2.222494   -2.264188   -2.350723
     41          8           0        3.738268    0.202464   -2.232251
     42          8           0        0.481908   -2.564498   -1.233768
     43          1           0       -0.657329   -1.757541   -0.184866
     44          7           0        2.724987    1.184622   -0.414638
     45          1           0        1.830801    1.366553    0.032447
     46          6           0        3.894673    1.633984    0.332369
     47          1           0        4.760451    1.094740   -0.062739
     48          6           0        3.569233    1.235564    1.786405
     49          6           0        4.128023    3.156113    0.217303
     50          1           0        3.241366    3.686381    0.570366
     51          1           0        4.986045    3.436668    0.837550
     52          8           0        2.553883    1.679389    2.328286
     53          6           0        4.389861    3.542850   -1.225586
     54          8           0        3.567580    3.991711   -1.989020
     55          8           0        5.670865    3.278613   -1.572637
     56          7           0        4.371657    0.314660    2.373809
     57          1           0        5.241865    0.048720    1.931544
     58          6           0        4.072669   -0.217431    3.698647
     59          1           0        3.344360    0.466493    4.142740
     60          6           0        5.286825   -0.222214    4.625789
     61          6           0        3.483066   -1.654583    3.655288
     62          1           0        3.288885   -1.959375    4.689607
     63          1           0        4.259261   -2.330626    3.275074
     64          8           0        5.223751   -0.534768    5.789812
     65          6           0        2.228060   -1.829427    2.782888
     66          1           0        2.107981   -2.900348    2.573570
     67          1           0        2.387704   -1.342171    1.813422
     68          6           0        0.911526   -1.309624    3.389656
     69          1           0        0.653973   -1.864196    4.297161
     70          1           0        0.990177   -0.257524    3.673710
     71          7           0       -0.215893   -1.444821    2.452678
     72          1           0       -0.515579   -2.393725    2.264286
     73          7           0       -1.228081   -1.034471    0.329192
     74          1           0       -1.315362   -0.250608   -0.354521
     75          1           0       -2.196814   -1.422297    0.446463
     76          7           0       -0.075090    0.692175    1.344964
     77          1           0        0.526907    1.040012    2.092922
     78          6           0       -0.449036   -0.514180    1.480580
     79          8           0        6.433687    0.118213    3.996122
     80          1           0        7.148271    0.066298    4.660469
     81          1           0       -0.088285   -2.601966   -2.028861
     82          1           0        5.756416    3.490949   -2.521581
 ---------------------------------------------------------------------

 SCF Done:  E(RB3LYP) =  -2166.26465398     A.U. after    2 cycles

 Alpha  occ. eigenvalues --  -19.29349 -19.27494 -19.26535 -19.25593 -19.24495
 Alpha  occ. eigenvalues --  -19.23959 -19.23113 -19.22524 -19.21296 -19.20882
 Alpha  occ. eigenvalues --  -14.53002 -14.48718 -14.48009 -14.47934 -14.47379
 Alpha  occ. eigenvalues --  -14.45767 -14.44643 -14.42208 -10.42526 -10.41598
 Alpha  occ. eigenvalues --  -10.41125 -10.40919 -10.39801 -10.39262 -10.38751
 Alpha  occ. eigenvalues --  -10.35132 -10.35045 -10.34956 -10.34414 -10.34150
 Alpha  occ. eigenvalues --  -10.34137 -10.33832 -10.33754 -10.30011 -10.29874
 Alpha  occ. eigenvalues --  -10.29735 -10.28714 -10.28567 -10.27527 -10.27463
 Alpha  occ. eigenvalues --  -10.27188 -10.27148 -10.26956  -1.20048  -1.17371
 Alpha  occ. eigenvalues --   -1.16913  -1.15243  -1.14619  -1.14239  -1.13002
 Alpha  occ. eigenvalues --   -1.12940  -1.12376  -1.11055  -1.08474  -1.04628
 Alpha  occ. eigenvalues --   -1.04437  -1.03910  -1.03528  -1.02447  -1.00980
 Alpha  occ. eigenvalues --   -0.98638  -0.93987  -0.90853  -0.89706  -0.88467
 Alpha  occ. eigenvalues --   -0.87041  -0.85687  -0.85195  -0.82716  -0.81597
 Alpha  occ. eigenvalues --   -0.80062  -0.78385  -0.76985  -0.75830  -0.73817
 Alpha  occ. eigenvalues --   -0.73343  -0.71716  -0.70645  -0.70074  -0.69660
 Alpha  occ. eigenvalues --   -0.69624  -0.69303  -0.68881  -0.68567  -0.67915
 Alpha  occ. eigenvalues --   -0.66972  -0.66622  -0.66233  -0.65350  -0.63931
 Alpha  occ. eigenvalues --   -0.63536  -0.63132  -0.62008  -0.61338  -0.60671
 Alpha  occ. eigenvalues --   -0.60155  -0.59518  -0.59080  -0.58438  -0.58351
 Alpha  occ. eigenvalues --   -0.57743  -0.57645  -0.57055  -0.56766  -0.56411
 Alpha  occ. eigenvalues --   -0.55893  -0.55338  -0.55219  -0.54582  -0.54396
 Alpha  occ. eigenvalues --   -0.54260  -0.54114  -0.53977  -0.53767  -0.53264
 Alpha  occ. eigenvalues --   -0.52417  -0.51935  -0.51861  -0.51206  -0.51017
 Alpha  occ. eigenvalues --   -0.50751  -0.50275  -0.49891  -0.49791  -0.49487
 Alpha  occ. eigenvalues --   -0.49174  -0.49114  -0.48889  -0.48371  -0.48149
 Alpha  occ. eigenvalues --   -0.47625  -0.47015  -0.46745  -0.46185  -0.45964
 Alpha  occ. eigenvalues --   -0.45790  -0.45661  -0.44983  -0.44643  -0.44327
 Alpha  occ. eigenvalues --   -0.44089  -0.42822  -0.42353  -0.41064  -0.41041
 Alpha  occ. eigenvalues --   -0.39799  -0.39356  -0.38817  -0.38682  -0.38431
 Alpha  occ. eigenvalues --   -0.38392  -0.37822  -0.37470  -0.37180  -0.36770
 Alpha  occ. eigenvalues --   -0.35833  -0.35382  -0.35230  -0.34249  -0.33755
 Alpha  occ. eigenvalues --   -0.33353  -0.32903
 Alpha virt. eigenvalues --   -0.11956  -0.10148  -0.09725  -0.09443  -0.08664
 Alpha virt. eigenvalues --   -0.08482  -0.08370  -0.07013  -0.06095  -0.05009
 Alpha virt. eigenvalues --   -0.03397  -0.02753  -0.02700  -0.01762  -0.01335

 Mulliken charges:
               1
     1  N   -0.765829
     2  H    0.340961
     3  H    0.335673
     4  C   -0.076783
     5  H    0.181152
     6  C    0.661916
     7  C   -0.384196
     8  H    0.174430
     9  H    0.158327
    10  O   -0.571386
    11  C    0.143581
    12  C   -0.181655
    13  H    0.133281
    14  C   -0.188066
    15  H    0.129538
    16  C   -0.126650
    17  H    0.153069
    18  C   -0.127285
    19  H    0.149135
    20  C   -0.126369
    21  H    0.153908
    22  N   -0.594927
    23  H    0.354359
    24  C   -0.058374
    25  H    0.197815
    26  C    0.623812
    27  C   -0.052069
    28  H    0.154856
    29  H    0.166325
    30  O   -0.558199
    31  O   -0.624242
    32  H    0.423185
    33  N   -0.575515
    34  H    0.368047
    35  C   -0.120929
    36  H    0.183768
    37  C    0.624011
    38  C   -0.049994
    39  H    0.170967
    40  H    0.181728
    41  O   -0.508928
    42  O   -0.655314
    43  H    0.422936
    44  N   -0.623388
    45  H    0.385936
    46  C   -0.065331
    47  H    0.193930
    48  C    0.624541
    49  C   -0.327495
    50  H    0.199213
    51  H    0.184947
    52  O   -0.547580
    53  C    0.575982
    54  O   -0.447310
    55  O   -0.559665
    56  N   -0.599156
    57  H    0.357429
    58  C   -0.072746
    59  H    0.220923
    60  C    0.599620
    61  C   -0.277426
    62  H    0.188985
    63  H    0.159462
    64  O   -0.439720
    65  C   -0.278400
    66  H    0.154930
    67  H    0.150998
    68  C   -0.171411
    69  H    0.183540
    70  H    0.191781
    71  N   -0.575159
    72  H    0.342287
    73  N   -0.881178
    74  H    0.463805
    75  H    0.413761
    76  N   -0.624535
    77  H    0.360776
    78  C    0.569429
    79  O   -0.573875
    80  H    0.431470
    81  H    0.449797
    82  H    0.420765
 Sum of Mulliken charges =   1.00000

 Dipole moment (field-independent basis, Debye):
    X=             -3.1373    Y=             -5.5711    Z=             -2.4770  Tot=              6.8567
 Quadrupole moment (field-independent basis, Debye-Ang):
   XX=           -140.8654   YY=           -236.7825   ZZ=           -193.4442
   XY=             17.3249   XZ=             31.3440   YZ=            -13.3094

 Normal termination of Gaussian 16 at Thu May 26 21:39:40 2022.
