 Gaussian 16, Revision C.01,
 Gaussian 16:  ES64L-G16RevC.01  3-Jul-2019

 -------------------------------------------------------------------
 # B3LYP/6-31G* guess=read geom=check nosymm integral(ultrafinegrid)
 -------------------------------------------------------------------

 ------------------------------------------------------
 Candidate Structure: Conf:102 Charge calc in gas phase
 ------------------------------------------------------
 Structure from the checkpoint file:  "conf-102.chk"
 Charge =  1 Multiplicity = 1

                          Input orientation:
 ---------------------------------------------------------------------
 Center     Atomic      Atomic             Coordinates (Angstroms)
 Number     Number       Type             X           Y           Z
 ---------------------------------------------------------------------
      1          7           0       -5.217712   -1.537999   -0.940278
      2          1           0       -5.604259   -2.279334   -1.523892
      3          1           0       -5.892164   -1.370829   -0.197950
      4          6           0       -3.922284   -1.945353   -0.377432
      5          1           0       -3.761588   -1.370615    0.542780
      6          6           0       -2.786150   -1.524056   -1.321605
      7          6           0       -3.848439   -3.469582   -0.043118
      8          1           0       -4.837834   -3.732841    0.350688
      9          1           0       -3.730660   -4.026158   -0.981922
     10          8           0       -1.599311   -1.812178   -1.085797
     11          6           0       -2.804922   -3.921520    0.960421
     12          6           0       -1.556176   -4.413723    0.557370
     13          1           0       -1.307418   -4.434470   -0.498673
     14          6           0       -3.099273   -3.897579    2.331157
     15          1           0       -4.069571   -3.533896    2.663531
     16          6           0       -0.630112   -4.870173    1.497321
     17          1           0        0.325743   -5.264549    1.161695
     18          6           0       -2.177314   -4.351443    3.275113
     19          1           0       -2.432141   -4.333053    4.331219
     20          6           0       -0.938486   -4.844136    2.860359
     21          1           0       -0.226272   -5.219158    3.590903
     22          7           0       -3.163201   -0.826144   -2.410188
     23          1           0       -4.134477   -0.522537   -2.458334
     24          6           0       -2.243277   -0.424705   -3.466283
     25          1           0       -1.539539   -1.249479   -3.633209
     26          6           0       -1.435517    0.822683   -3.048666
     27          6           0       -3.041708   -0.138609   -4.745271
     28          1           0       -3.546132   -1.055405   -5.064967
     29          1           0       -2.348222    0.166370   -5.541216
     30          8           0       -1.640053    1.942475   -3.522596
     31          8           0       -4.048226    0.827948   -4.516172
     32          1           0       -3.566593    1.653997   -4.325779
     33          7           0       -0.467974    0.581541   -2.122744
     34          1           0       -0.465667   -0.328822   -1.650984
     35          6           0        0.332608    1.661932   -1.600926
     36          1           0        0.531721    2.366422   -2.415262
     37          6           0        1.630065    1.111529   -1.021449
     38          6           0       -0.415958    2.413583   -0.476622
     39          1           0       -0.769403    1.711461    0.288974
     40          1           0       -1.261673    2.941569   -0.924404
     41          8           0        1.713221    0.027947   -0.463018
     42          8           0        0.503228    3.388322    0.103697
     43          1           0       -0.011807    4.000673    0.654084
     44          7           0        2.697530    1.984681   -1.059502
     45          1           0        2.560502    2.914955   -1.434418
     46          6           0        3.859996    1.703585   -0.249900
     47          1           0        4.112289    0.648440   -0.383906
     48          6           0        3.506445    1.868245    1.242179
     49          6           0        5.062429    2.564202   -0.685347
     50          1           0        5.061473    2.632758   -1.779067
     51          1           0        5.003676    3.593211   -0.309726
     52          8           0        2.473916    2.551722    1.626411
     53          6           0        6.387588    1.955394   -0.258726
     54          8           0        6.498921    0.974491    0.452893
     55          8           0        7.419881    2.622957   -0.775338
     56          7           0        4.258882    1.314942    2.153719
     57          1           0        5.141082    0.889829    1.837663
     58          6           0        3.987432    1.316089    3.601268
     59          1           0        3.411167    2.212659    3.841854
     60          6           0        5.344785    1.387123    4.296514
     61          6           0        3.190400    0.061559    4.047159
     62          1           0        3.021363    0.176312    5.124258
     63          1           0        3.818407   -0.829128    3.915371
     64          8           0        6.402636    1.228950    3.731187
     65          6           0        1.859132   -0.095725    3.302657
     66          1           0        2.038458   -0.387610    2.260762
     67          1           0        1.333458    0.864404    3.284613
     68          6           0        0.905272   -1.122515    3.937844
     69          1           0        1.382824   -2.103909    4.029346
     70          1           0        0.649205   -0.806381    4.956568
     71          7           0       -0.314701   -1.319871    3.152657
     72          1           0       -0.239866   -2.038999    2.442082
     73          7           0       -1.274427    0.727453    3.745847
     74          1           0       -2.013952    1.370092    3.483063
     75          1           0       -1.430951    0.348999    4.674836
     76          7           0       -1.675471   -0.092026    1.610278
     77          1           0       -1.373122   -0.809211    0.946763
     78          6           0       -1.112131   -0.250365    2.757467
     79          8           0        5.198457    1.615733    5.608746
     80          1           0        6.088286    1.615966    6.012901
     81          1           0        1.799964    2.833696    0.913623
     82          1           0        8.243466    2.193412   -0.469696
 ---------------------------------------------------------------------

 SCF Done:  E(RB3LYP) =  -2166.26335289     A.U. after    3 cycles

 Alpha  occ. eigenvalues --  -19.34712 -19.32496 -19.31654 -19.30546 -19.27626
 Alpha  occ. eigenvalues --  -19.26224 -19.24902 -19.20834 -19.20355 -19.19408
 Alpha  occ. eigenvalues --  -14.53379 -14.50018 -14.44618 -14.43356 -14.42258
 Alpha  occ. eigenvalues --  -14.41912 -14.39858 -14.35828 -10.47685 -10.45977
 Alpha  occ. eigenvalues --  -10.44479 -10.41704 -10.39628 -10.37606 -10.37534
 Alpha  occ. eigenvalues --  -10.36075 -10.35592 -10.35293 -10.34939 -10.34629
 Alpha  occ. eigenvalues --  -10.31028 -10.31023 -10.30992 -10.30237 -10.29821
 Alpha  occ. eigenvalues --  -10.28101 -10.26150 -10.25839 -10.25080 -10.25036
 Alpha  occ. eigenvalues --  -10.25001 -10.24920 -10.24686  -1.25277  -1.23900
 Alpha  occ. eigenvalues --   -1.22782  -1.17225  -1.16141  -1.15084  -1.14151
 Alpha  occ. eigenvalues --   -1.12703  -1.10807  -1.10563  -1.07994  -1.06825
 Alpha  occ. eigenvalues --   -1.04998  -1.01812  -1.00033  -0.96421  -0.96295
 Alpha  occ. eigenvalues --   -0.94632  -0.92230  -0.91468  -0.91439  -0.87970
 Alpha  occ. eigenvalues --   -0.86174  -0.84161  -0.83675  -0.82896  -0.80282
 Alpha  occ. eigenvalues --   -0.80000  -0.77961  -0.77365  -0.77095  -0.75340
 Alpha  occ. eigenvalues --   -0.73749  -0.72916  -0.72217  -0.70863  -0.70008
 Alpha  occ. eigenvalues --   -0.69695  -0.68245  -0.67413  -0.67063  -0.66435
 Alpha  occ. eigenvalues --   -0.65848  -0.64978  -0.64545  -0.64315  -0.63164
 Alpha  occ. eigenvalues --   -0.62473  -0.62056  -0.61963  -0.61333  -0.60476
 Alpha  occ. eigenvalues --   -0.60173  -0.59922  -0.59348  -0.58730  -0.58555
 Alpha  occ. eigenvalues --   -0.57794  -0.57551  -0.57032  -0.56799  -0.56390
 Alpha  occ. eigenvalues --   -0.55966  -0.55463  -0.55121  -0.54560  -0.54237
 Alpha  occ. eigenvalues --   -0.53541  -0.53229  -0.52698  -0.52557  -0.52270
 Alpha  occ. eigenvalues --   -0.52112  -0.51834  -0.51762  -0.51399  -0.51215
 Alpha  occ. eigenvalues --   -0.50963  -0.50475  -0.49772  -0.49451  -0.49261
 Alpha  occ. eigenvalues --   -0.49085  -0.48726  -0.48199  -0.47998  -0.47548
 Alpha  occ. eigenvalues --   -0.47491  -0.47023  -0.46388  -0.45829  -0.45396
 Alpha  occ. eigenvalues --   -0.45264  -0.44867  -0.44005  -0.43925  -0.43560
 Alpha  occ. eigenvalues --   -0.42771  -0.42614  -0.42110  -0.41489  -0.41459
 Alpha  occ. eigenvalues --   -0.40452  -0.40151  -0.39990  -0.39802  -0.39763
 Alpha  occ. eigenvalues --   -0.38328  -0.36058  -0.34895  -0.34428  -0.34212
 Alpha  occ. eigenvalues --   -0.33746  -0.33294  -0.32511  -0.31840  -0.30915
 Alpha  occ. eigenvalues --   -0.30143  -0.29351
 Alpha virt. eigenvalues --   -0.16632  -0.12546  -0.11178  -0.11040  -0.07314
 Alpha virt. eigenvalues --   -0.06600  -0.06379  -0.05994  -0.05083  -0.03631
 Alpha virt. eigenvalues --   -0.03514  -0.03342  -0.03109  -0.01664  -0.00876

 Mulliken charges:
               1
     1  N   -0.746753
     2  H    0.317064
     3  H    0.323372
     4  C   -0.075558
     5  H    0.199953
     6  C    0.633158
     7  C   -0.373569
     8  H    0.153334
     9  H    0.155171
    10  O   -0.577030
    11  C    0.176525
    12  C   -0.156218
    13  H    0.139515
    14  C   -0.182804
    15  H    0.124605
    16  C   -0.153009
    17  H    0.134404
    18  C   -0.118223
    19  H    0.134620
    20  C   -0.146341
    21  H    0.131662
    22  N   -0.590663
    23  H    0.382664
    24  C   -0.073817
    25  H    0.178737
    26  C    0.628671
    27  C   -0.051621
    28  H    0.160997
    29  H    0.150369
    30  O   -0.544168
    31  O   -0.626588
    32  H    0.418459
    33  N   -0.633539
    34  H    0.399649
    35  C   -0.044780
    36  H    0.190806
    37  C    0.597845
    38  C   -0.092951
    39  H    0.226687
    40  H    0.198237
    41  O   -0.496250
    42  O   -0.674024
    43  H    0.438953
    44  N   -0.638998
    45  H    0.356290
    46  C   -0.030375
    47  H    0.244003
    48  C    0.636172
    49  C   -0.406470
    50  H    0.234558
    51  H    0.214558
    52  O   -0.591840
    53  C    0.619608
    54  O   -0.464059
    55  O   -0.539365
    56  N   -0.567769
    57  H    0.432446
    58  C   -0.079552
    59  H    0.219137
    60  C    0.595838
    61  C   -0.275881
    62  H    0.187405
    63  H    0.167043
    64  O   -0.445092
    65  C   -0.298864
    66  H    0.164269
    67  H    0.174680
    68  C   -0.143431
    69  H    0.161455
    70  H    0.151990
    71  N   -0.583299
    72  H    0.345803
    73  N   -0.741882
    74  H    0.334207
    75  H    0.331268
    76  N   -0.690459
    77  H    0.311868
    78  C    0.550298
    79  O   -0.552390
    80  H    0.438329
    81  H    0.498455
    82  H    0.442494
 Sum of Mulliken charges =   1.00000

 Dipole moment (field-independent basis, Debye):
    X=             11.9077    Y=              7.0599    Z=              7.7167  Tot=             15.8487
 Quadrupole moment (field-independent basis, Debye-Ang):
   XX=           -143.0412   YY=           -209.8648   ZZ=           -194.2007
   XY=             46.2852   XZ=             13.8149   YZ=             11.2738

 Normal termination of Gaussian 16 at Thu May 26 21:40:00 2022.
