 Gaussian 16, Revision C.01,
 Gaussian 16:  ES64L-G16RevC.01  3-Jul-2019

 -------------------------------------------------------------------
 # B3LYP/6-31G* guess=read geom=check nosymm integral(ultrafinegrid)
 -------------------------------------------------------------------

 ------------------------------------------------------
 Candidate Structure: Conf:876 Charge calc in gas phase
 ------------------------------------------------------
 Structure from the checkpoint file:  "conf-876.chk"
 Charge =  1 Multiplicity = 1

                          Input orientation:
 ---------------------------------------------------------------------
 Center     Atomic      Atomic             Coordinates (Angstroms)
 Number     Number       Type             X           Y           Z
 ---------------------------------------------------------------------
      1          7           0       -6.001701   -0.162602   -3.026630
      2          1           0       -6.260188    0.407810   -3.829302
      3          1           0       -5.879253   -1.116470   -3.365079
      4          6           0       -4.757613    0.310627   -2.421226
      5          1           0       -4.881816    1.383750   -2.229923
      6          6           0       -3.543276    0.084088   -3.337582
      7          6           0       -4.570180   -0.434125   -1.082642
      8          1           0       -5.426915   -0.171751   -0.450057
      9          1           0       -4.658823   -1.507260   -1.286742
     10          8           0       -3.105522   -1.050377   -3.551435
     11          6           0       -3.277793   -0.184115   -0.329181
     12          6           0       -2.689359   -1.234450    0.414059
     13          1           0       -3.223109   -2.181782    0.498344
     14          6           0       -2.642265    1.064862   -0.297165
     15          1           0       -3.069506    1.905734   -0.834735
     16          6           0       -1.521019   -1.026452    1.173523
     17          1           0       -1.117769   -1.839684    1.772154
     18          6           0       -1.465709    1.262656    0.431814
     19          1           0       -0.986976    2.237120    0.422941
     20          6           0       -0.891777    0.219274    1.164586
     21          1           0        0.029721    0.383858    1.713727
     22          7           0       -3.015475    1.196144   -3.932980
     23          1           0       -3.268198    2.100248   -3.550207
     24          6           0       -1.763522    1.142210   -4.701669
     25          1           0       -1.818752    0.260431   -5.344580
     26          6           0       -0.615864    1.011546   -3.689981
     27          6           0       -1.616527    2.382618   -5.594525
     28          1           0       -0.625738    2.364705   -6.056683
     29          1           0       -1.668667    3.293921   -4.979652
     30          8           0       -0.147884    1.988524   -3.106969
     31          8           0       -2.548964    2.381385   -6.652950
     32          1           0       -3.435234    2.533303   -6.290666
     33          7           0       -0.217375   -0.272727   -3.441027
     34          1           0       -0.859601   -0.980066   -3.789411
     35          6           0        0.510993   -0.591821   -2.212328
     36          1           0        0.120677    0.033151   -1.396804
     37          6           0        2.044365   -0.350528   -2.219304
     38          6           0        0.348191   -2.057558   -1.852355
     39          1           0        0.805131   -2.300067   -0.896409
     40          1           0        0.693876   -2.733338   -2.633228
     41          8           0        2.797242   -1.286403   -1.963527
     42          8           0       -1.138851   -2.339587   -1.750725
     43          1           0       -1.349192   -3.294182   -1.711133
     44          7           0        2.428774    0.928683   -2.424892
     45          1           0        1.669976    1.609114   -2.468019
     46          6           0        3.698870    1.376662   -1.870112
     47          1           0        4.482419    0.692677   -2.203457
     48          6           0        3.592420    1.325829   -0.316704
     49          6           0        3.978167    2.799661   -2.393309
     50          1           0        3.845915    2.788498   -3.483389
     51          1           0        3.251701    3.514324   -1.993834
     52          8           0        2.498299    1.267530    0.240754
     53          6           0        5.354054    3.389787   -2.146179
     54          8           0        5.597538    4.569076   -2.134477
     55          8           0        6.323064    2.437315   -2.004620
     56          7           0        4.779953    1.346430    0.337311
     57          1           0        5.617241    1.492523   -0.216740
     58          6           0        4.873815    1.527060    1.777382
     59          1           0        3.905119    1.228957    2.189669
     60          6           0        5.070829    2.992250    2.188545
     61          6           0        5.983237    0.657535    2.401671
     62          1           0        6.058789    0.937112    3.457608
     63          1           0        6.947043    0.917948    1.940025
     64          8           0        5.122974    3.358321    3.338368
     65          6           0        5.723870   -0.846197    2.264216
     66          1           0        5.607229   -1.104512    1.202527
     67          1           0        4.779242   -1.108802    2.757909
     68          6           0        6.851060   -1.683613    2.873890
     69          1           0        7.814684   -1.406050    2.410999
     70          1           0        6.937095   -1.457783    3.943488
     71          7           0        6.566439   -3.103983    2.737843
     72          1           0        6.286033   -3.376251    1.800800
     73          7           0        7.094011   -5.349285    2.939153
     74          1           0        7.664377   -6.017852    3.446179
     75          1           0        6.105340   -5.557814    3.038059
     76          7           0        8.426631   -3.838890    4.097330
     77          1           0        8.656159   -2.848283    4.175559
     78          6           0        7.431387   -4.043395    3.317973
     79          8           0        5.192376    3.827224    1.130401
     80          1           0        5.318640    4.725673    1.492181
     81          1           0       -1.631184   -1.845912   -0.985946
     82          1           0        7.168803    2.920437   -1.923368
 ---------------------------------------------------------------------

 SCF Done:  E(RB3LYP) =  -2166.18295277     A.U. after    2 cycles

 Alpha  occ. eigenvalues --  -19.44202 -19.29403 -19.28027 -19.25217 -19.24620
 Alpha  occ. eigenvalues --  -19.24550 -19.23395 -19.22997 -19.21818 -19.21309
 Alpha  occ. eigenvalues --  -14.49469 -14.49396 -14.45979 -14.45281 -14.43006
 Alpha  occ. eigenvalues --  -14.40244 -14.38375 -14.33117 -10.43002 -10.41819
 Alpha  occ. eigenvalues --  -10.41651 -10.41112 -10.40653 -10.40056 -10.38345
 Alpha  occ. eigenvalues --  -10.37993 -10.35204 -10.34705 -10.34253 -10.34106
 Alpha  occ. eigenvalues --  -10.33916 -10.33380 -10.33083 -10.32489 -10.32422
 Alpha  occ. eigenvalues --  -10.32401 -10.32258 -10.31900 -10.31228 -10.30634
 Alpha  occ. eigenvalues --  -10.28537 -10.27490 -10.26491  -1.30129  -1.19809
 Alpha  occ. eigenvalues --   -1.18650  -1.17218  -1.15967  -1.15304  -1.12904
 Alpha  occ. eigenvalues --   -1.12256  -1.10871  -1.09648  -1.06219  -1.04991
 Alpha  occ. eigenvalues --   -1.03324  -1.02249  -1.02054  -1.00658  -0.99069
 Alpha  occ. eigenvalues --   -0.93991  -0.93817  -0.90745  -0.89772  -0.88605
 Alpha  occ. eigenvalues --   -0.88244  -0.88094  -0.87441  -0.83976  -0.82713
 Alpha  occ. eigenvalues --   -0.82172  -0.80061  -0.77915  -0.77658  -0.75545
 Alpha  occ. eigenvalues --   -0.74508  -0.73922  -0.72615  -0.71603  -0.71394
 Alpha  occ. eigenvalues --   -0.70173  -0.70050  -0.69238  -0.68584  -0.68057
 Alpha  occ. eigenvalues --   -0.67572  -0.65920  -0.64532  -0.64433  -0.64096
 Alpha  occ. eigenvalues --   -0.63499  -0.62878  -0.61831  -0.61479  -0.60788
 Alpha  occ. eigenvalues --   -0.59941  -0.59663  -0.59457  -0.59035  -0.58835
 Alpha  occ. eigenvalues --   -0.58103  -0.57776  -0.57128  -0.56894  -0.56566
 Alpha  occ. eigenvalues --   -0.56222  -0.55674  -0.55611  -0.55353  -0.55102
 Alpha  occ. eigenvalues --   -0.54791  -0.54286  -0.53872  -0.53832  -0.53641
 Alpha  occ. eigenvalues --   -0.53392  -0.52774  -0.52694  -0.52376  -0.51743
 Alpha  occ. eigenvalues --   -0.51354  -0.51148  -0.50640  -0.50507  -0.49995
 Alpha  occ. eigenvalues --   -0.49540  -0.49109  -0.48723  -0.48643  -0.48483
 Alpha  occ. eigenvalues --   -0.48100  -0.47850  -0.47138  -0.46954  -0.46535
 Alpha  occ. eigenvalues --   -0.46071  -0.46065  -0.45666  -0.43387  -0.43127
 Alpha  occ. eigenvalues --   -0.42933  -0.42073  -0.41279  -0.41199  -0.40803
 Alpha  occ. eigenvalues --   -0.40627  -0.39625  -0.39569  -0.39358  -0.38414
 Alpha  occ. eigenvalues --   -0.38019  -0.37727  -0.37382  -0.37055  -0.36359
 Alpha  occ. eigenvalues --   -0.35711  -0.34844  -0.34470  -0.33491  -0.30972
 Alpha  occ. eigenvalues --   -0.30306  -0.27880
 Alpha virt. eigenvalues --   -0.16257  -0.14144  -0.13417  -0.11958  -0.10480
 Alpha virt. eigenvalues --   -0.09996  -0.08231  -0.07141  -0.07105  -0.05868
 Alpha virt. eigenvalues --   -0.05629  -0.03101  -0.02761  -0.02289  -0.01700

 Mulliken charges:
               1
     1  N   -0.692577
     2  H    0.318899
     3  H    0.320902
     4  C   -0.081095
     5  H    0.146689
     6  C    0.625182
     7  C   -0.329232
     8  H    0.209443
     9  H    0.157626
    10  O   -0.563488
    11  C    0.213001
    12  C   -0.391936
    13  H    0.174868
    14  C   -0.173532
    15  H    0.146788
    16  C   -0.118148
    17  H    0.171453
    18  C   -0.121871
    19  H    0.188073
    20  C   -0.130206
    21  H    0.195651
    22  N   -0.611495
    23  H    0.341152
    24  C   -0.085066
    25  H    0.198240
    26  C    0.628110
    27  C   -0.051049
    28  H    0.182703
    29  H    0.152960
    30  O   -0.532584
    31  O   -0.591014
    32  H    0.398734
    33  N   -0.601997
    34  H    0.371524
    35  C   -0.105619
    36  H    0.220459
    37  C    0.667539
    38  C   -0.134565
    39  H    0.245315
    40  H    0.244065
    41  O   -0.524552
    42  O   -0.618166
    43  H    0.487761
    44  N   -0.618644
    45  H    0.383244
    46  C   -0.069728
    47  H    0.208439
    48  C    0.629276
    49  C   -0.386774
    50  H    0.214196
    51  H    0.203613
    52  O   -0.551733
    53  C    0.601931
    54  O   -0.436502
    55  O   -0.583634
    56  N   -0.601518
    57  H    0.359149
    58  C   -0.060919
    59  H    0.205214
    60  C    0.593684
    61  C   -0.287511
    62  H    0.189122
    63  H    0.143609
    64  O   -0.445194
    65  C   -0.282430
    66  H    0.143329
    67  H    0.151523
    68  C   -0.123086
    69  H    0.140702
    70  H    0.164901
    71  N   -0.608668
    72  H    0.316842
    73  N   -0.752090
    74  H    0.339708
    75  H    0.314607
    76  N   -0.636473
    77  H    0.280068
    78  C    0.575026
    79  O   -0.572707
    80  H    0.426602
    81  H    0.456466
    82  H    0.427416
 Sum of Mulliken charges =   1.00000

 Dipole moment (field-independent basis, Debye):
    X=             -5.7596    Y=             -2.3697    Z=             -9.2324  Tot=             11.1367
 Quadrupole moment (field-independent basis, Debye-Ang):
   XX=           -206.6063   YY=           -216.6845   ZZ=           -242.6551
   XY=             25.2794   XZ=              0.2816   YZ=              1.1164

 Normal termination of Gaussian 16 at Thu May 26 21:39:36 2022.
