 Gaussian 16, Revision C.01,
 Gaussian 16:  ES64L-G16RevC.01  3-Jul-2019

 -------------------------------------------------------------------
 # B3LYP/6-31G* guess=read geom=check nosymm integral(ultrafinegrid)
 -------------------------------------------------------------------

 ------------------------------------------------------
 Candidate Structure: Conf:746 Charge calc in gas phase
 ------------------------------------------------------
 Structure from the checkpoint file:  "conf-746.chk"
 Charge =  1 Multiplicity = 1

                          Input orientation:
 ---------------------------------------------------------------------
 Center     Atomic      Atomic             Coordinates (Angstroms)
 Number     Number       Type             X           Y           Z
 ---------------------------------------------------------------------
      1          7           0       -4.198023   -1.579849   -6.035273
      2          1           0       -3.376543   -1.694110   -6.627023
      3          1           0       -4.393511   -2.506285   -5.652493
      4          6           0       -3.887027   -0.698776   -4.916294
      5          1           0       -3.343349    0.173887   -5.299646
      6          6           0       -3.026403   -1.403763   -3.852314
      7          6           0       -5.199704   -0.195912   -4.246536
      8          1           0       -5.822641   -1.077889   -4.050687
      9          1           0       -4.957619    0.240601   -3.269086
     10          8           0       -3.080031   -2.615536   -3.665216
     11          6           0       -5.951256    0.825325   -5.073218
     12          6           0       -5.908921    2.181247   -4.722185
     13          1           0       -5.348649    2.488966   -3.840685
     14          6           0       -6.690186    0.449884   -6.204508
     15          1           0       -6.719205   -0.594762   -6.495357
     16          6           0       -6.582784    3.142004   -5.478232
     17          1           0       -6.541385    4.187960   -5.185258
     18          6           0       -7.364279    1.407861   -6.961822
     19          1           0       -7.933584    1.099332   -7.834717
     20          6           0       -7.313522    2.756575   -6.602391
     21          1           0       -7.843395    3.500068   -7.191733
     22          7           0       -2.210526   -0.598689   -3.101438
     23          1           0       -2.219648    0.409074   -3.207375
     24          6           0       -1.491353   -1.119636   -1.961727
     25          1           0       -2.098852   -1.892412   -1.476297
     26          6           0       -1.215813    0.020673   -0.988084
     27          6           0       -0.157462   -1.792255   -2.414754
     28          1           0        0.403381   -1.086142   -3.039580
     29          1           0       -0.428268   -2.660250   -3.017927
     30          8           0       -1.267462    1.203491   -1.295392
     31          8           0        0.637968   -2.254873   -1.318751
     32          1           0        1.161938   -1.495377   -0.997395
     33          7           0       -0.854146   -0.398393    0.279134
     34          1           0       -0.552093   -1.368979    0.322213
     35          6           0       -0.168896    0.529996    1.146292
     36          1           0       -0.706831    1.481843    1.134612
     37          6           0        1.277731    0.765487    0.675875
     38          6           0       -0.163077   -0.053899    2.576956
     39          1           0        0.173980   -1.098394    2.554782
     40          1           0       -1.181101   -0.022053    2.973841
     41          8           0        1.882424   -0.025612   -0.049849
     42          8           0        0.726156    0.724868    3.401579
     43          1           0        0.439878    0.683498    4.327861
     44          7           0        1.924739    1.852395    1.194007
     45          1           0        1.496829    2.344830    1.971898
     46          6           0        3.373221    1.854481    1.122502
     47          1           0        3.654513    1.728958    0.072939
     48          6           0        3.913916    0.615308    1.859381
     49          6           0        3.991586    3.174364    1.620838
     50          1           0        5.080851    3.153752    1.507865
     51          1           0        3.636034    3.985818    0.974260
     52          8           0        3.323508    0.121138    2.902278
     53          6           0        3.647556    3.522577    3.058500
     54          8           0        2.846973    2.908416    3.739304
     55          8           0        4.321327    4.596115    3.471799
     56          7           0        4.999145    0.030850    1.428617
     57          1           0        5.446996    0.412414    0.599984
     58          6           0        5.640531   -1.180501    1.986697
     59          1           0        5.331739   -1.273398    3.029350
     60          6           0        7.160732   -1.011316    1.969272
     61          6           0        5.248283   -2.454017    1.194328
     62          1           0        5.934337   -3.241730    1.527897
     63          1           0        5.435678   -2.285460    0.126521
     64          8           0        7.903751   -1.666429    2.649337
     65          6           0        3.799404   -2.912591    1.396711
     66          1           0        3.105915   -2.095895    1.160138
     67          1           0        3.642046   -3.176583    2.451196
     68          6           0        3.441006   -4.125479    0.519292
     69          1           0        4.172135   -4.926488    0.654968
     70          1           0        2.471624   -4.524212    0.853028
     71          7           0        3.398144   -3.776492   -0.904277
     72          1           0        2.507108   -3.360997   -1.170152
     73          7           0        5.001308   -5.371798   -1.556362
     74          1           0        5.299450   -5.943519   -2.339863
     75          1           0        5.755056   -4.778205   -1.224903
     76          7           0        3.267046   -4.905763   -3.019599
     77          1           0        2.346821   -4.464004   -3.070132
     78          6           0        3.829065   -4.684059   -1.890338
     79          8           0        7.557990   -0.091058    1.055843
     80          1           0        8.535450   -0.078950    1.051702
     81          1           0        2.446397    0.555878    3.138003
     82          1           0        4.048049    4.800549    4.388169
 ---------------------------------------------------------------------

 SCF Done:  E(RB3LYP) =  -2166.23081725     A.U. after    1 cycles

 Alpha  occ. eigenvalues --  -19.37514 -19.34267 -19.33774 -19.32805 -19.29333
 Alpha  occ. eigenvalues --  -19.28389 -19.27443 -19.24950 -19.23287 -19.18221
 Alpha  occ. eigenvalues --  -14.56909 -14.52013 -14.47572 -14.43361 -14.41518
 Alpha  occ. eigenvalues --  -14.40220 -14.36487 -14.34505 -10.50430 -10.47746
 Alpha  occ. eigenvalues --  -10.46012 -10.44528 -10.42270 -10.39824 -10.39551
 Alpha  occ. eigenvalues --  -10.39386 -10.37628 -10.37138 -10.34859 -10.34021
 Alpha  occ. eigenvalues --  -10.32623 -10.32272 -10.31991 -10.30457 -10.29611
 Alpha  occ. eigenvalues --  -10.28099 -10.24235 -10.23368 -10.22670 -10.22545
 Alpha  occ. eigenvalues --  -10.22353 -10.22255 -10.21954  -1.28150  -1.25631
 Alpha  occ. eigenvalues --   -1.24339  -1.20334  -1.18996  -1.16816  -1.15580
 Alpha  occ. eigenvalues --   -1.15225  -1.13817  -1.11804  -1.10139  -1.09101
 Alpha  occ. eigenvalues --   -1.04820  -1.03588  -0.99836  -0.96881  -0.95403
 Alpha  occ. eigenvalues --   -0.94139  -0.93781  -0.90645  -0.90409  -0.88882
 Alpha  occ. eigenvalues --   -0.87577  -0.85392  -0.84533  -0.82746  -0.81775
 Alpha  occ. eigenvalues --   -0.79724  -0.78349  -0.77738  -0.77185  -0.76319
 Alpha  occ. eigenvalues --   -0.75467  -0.74660  -0.73427  -0.72499  -0.71579
 Alpha  occ. eigenvalues --   -0.70534  -0.69975  -0.68353  -0.68249  -0.67047
 Alpha  occ. eigenvalues --   -0.66405  -0.65806  -0.65433  -0.65308  -0.64095
 Alpha  occ. eigenvalues --   -0.63937  -0.63440  -0.62474  -0.61997  -0.61693
 Alpha  occ. eigenvalues --   -0.61414  -0.61160  -0.60890  -0.60723  -0.59885
 Alpha  occ. eigenvalues --   -0.59815  -0.58993  -0.58094  -0.57955  -0.57404
 Alpha  occ. eigenvalues --   -0.56580  -0.56262  -0.55836  -0.55511  -0.55090
 Alpha  occ. eigenvalues --   -0.54599  -0.54191  -0.54097  -0.53923  -0.53517
 Alpha  occ. eigenvalues --   -0.53438  -0.53051  -0.52679  -0.52337  -0.52036
 Alpha  occ. eigenvalues --   -0.51634  -0.51099  -0.50471  -0.50118  -0.49721
 Alpha  occ. eigenvalues --   -0.49160  -0.49042  -0.48394  -0.48080  -0.47757
 Alpha  occ. eigenvalues --   -0.46898  -0.46863  -0.46574  -0.46444  -0.45752
 Alpha  occ. eigenvalues --   -0.45306  -0.45151  -0.44809  -0.44530  -0.43714
 Alpha  occ. eigenvalues --   -0.43552  -0.43274  -0.42904  -0.42174  -0.42004
 Alpha  occ. eigenvalues --   -0.41572  -0.41237  -0.40626  -0.39177  -0.38645
 Alpha  occ. eigenvalues --   -0.37773  -0.37721  -0.37381  -0.36388  -0.32951
 Alpha  occ. eigenvalues --   -0.32576  -0.32401  -0.31695  -0.29360  -0.29068
 Alpha  occ. eigenvalues --   -0.28192  -0.27683
 Alpha virt. eigenvalues --   -0.19219  -0.14434  -0.14268  -0.12684  -0.09429
 Alpha virt. eigenvalues --   -0.08850  -0.07756  -0.05194  -0.04801  -0.04736
 Alpha virt. eigenvalues --   -0.04161  -0.03505  -0.03262  -0.03067  -0.02102

 Mulliken charges:
               1
     1  N   -0.691645
     2  H    0.305125
     3  H    0.318191
     4  C   -0.077569
     5  H    0.144918
     6  C    0.592554
     7  C   -0.346808
     8  H    0.163512
     9  H    0.134972
    10  O   -0.523251
    11  C    0.169189
    12  C   -0.190212
    13  H    0.108448
    14  C   -0.156100
    15  H    0.146529
    16  C   -0.128210
    17  H    0.127178
    18  C   -0.133033
    19  H    0.134931
    20  C   -0.128877
    21  H    0.133013
    22  N   -0.621823
    23  H    0.351122
    24  C   -0.051530
    25  H    0.197134
    26  C    0.587312
    27  C   -0.062226
    28  H    0.153474
    29  H    0.206078
    30  O   -0.510557
    31  O   -0.664124
    32  H    0.440849
    33  N   -0.600276
    34  H    0.347713
    35  C   -0.086478
    36  H    0.218620
    37  C    0.634887
    38  C   -0.063078
    39  H    0.173500
    40  H    0.206864
    41  O   -0.536119
    42  O   -0.658620
    43  H    0.446130
    44  N   -0.601958
    45  H    0.383687
    46  C   -0.066726
    47  H    0.224996
    48  C    0.662869
    49  C   -0.384420
    50  H    0.217968
    51  H    0.246121
    52  O   -0.579421
    53  C    0.591292
    54  O   -0.476109
    55  O   -0.532170
    56  N   -0.547686
    57  H    0.395000
    58  C   -0.093670
    59  H    0.228069
    60  C    0.605072
    61  C   -0.276822
    62  H    0.196243
    63  H    0.173761
    64  O   -0.411191
    65  C   -0.275173
    66  H    0.135661
    67  H    0.147785
    68  C   -0.153672
    69  H    0.188392
    70  H    0.154557
    71  N   -0.629294
    72  H    0.344519
    73  N   -0.733242
    74  H    0.346367
    75  H    0.309851
    76  N   -0.621978
    77  H    0.272867
    78  C    0.540819
    79  O   -0.590430
    80  H    0.444802
    81  H    0.509192
    82  H    0.442366
 Sum of Mulliken charges =   1.00000

 Dipole moment (field-independent basis, Debye):
    X=             17.6777    Y=              8.4518    Z=             12.6442  Tot=             23.3198
 Quadrupole moment (field-independent basis, Debye-Ang):
   XX=           -152.2990   YY=           -236.5660   ZZ=           -214.7837
   XY=             23.6253   XZ=             22.6088   YZ=              6.2083

 Normal termination of Gaussian 16 at Thu May 26 21:39:18 2022.
