 Gaussian 16, Revision C.01,
 Gaussian 16:  ES64L-G16RevC.01  3-Jul-2019

 -------------------------------------------------------------------
 # B3LYP/6-31G* guess=read geom=check nosymm integral(ultrafinegrid)
 -------------------------------------------------------------------

 ------------------------------------------------------
 Candidate Structure: Conf:112 Charge calc in gas phase
 ------------------------------------------------------
 Structure from the checkpoint file:  "conf-112.chk"
 Charge =  1 Multiplicity = 1

                          Input orientation:
 ---------------------------------------------------------------------
 Center     Atomic      Atomic             Coordinates (Angstroms)
 Number     Number       Type             X           Y           Z
 ---------------------------------------------------------------------
      1          7           0       -4.440102   -2.656363   -4.450064
      2          1           0       -3.794203   -3.387077   -4.746152
      3          1           0       -4.933532   -3.053582   -3.650331
      4          6           0       -3.679545   -1.506737   -3.984057
      5          1           0       -3.009951   -1.194595   -4.797993
      6          6           0       -2.801249   -1.834095   -2.756377
      7          6           0       -4.631179   -0.307101   -3.705824
      8          1           0       -4.031028    0.573125   -3.444153
      9          1           0       -5.130066   -0.087214   -4.655230
     10          8           0       -2.934210   -2.863493   -2.105047
     11          6           0       -5.665051   -0.558022   -2.627778
     12          6           0       -6.876706   -1.194923   -2.934814
     13          1           0       -7.070434   -1.499247   -3.959864
     14          6           0       -5.435643   -0.165299   -1.301986
     15          1           0       -4.506701    0.341649   -1.048633
     16          6           0       -7.826908   -1.439105   -1.942393
     17          1           0       -8.760809   -1.931353   -2.200312
     18          6           0       -6.384634   -0.405995   -0.307892
     19          1           0       -6.190340   -0.089142    0.713659
     20          6           0       -7.583801   -1.045702   -0.625256
     21          1           0       -8.326017   -1.230540    0.146492
     22          7           0       -1.852660   -0.898048   -2.431803
     23          1           0       -1.708053   -0.067514   -2.992629
     24          6           0       -0.986769   -1.063316   -1.283420
     25          1           0       -1.555425   -1.541254   -0.479566
     26          6           0       -0.469016    0.308188   -0.868659
     27          6           0        0.221819   -1.979196   -1.642523
     28          1           0        0.731607   -1.556101   -2.518470
     29          1           0       -0.179745   -2.959480   -1.904604
     30          8           0       -0.199631    1.178660   -1.693654
     31          8           0        1.132175   -2.174367   -0.563399
     32          1           0        1.619151   -1.341767   -0.408889
     33          7           0       -0.232022    0.490725    0.467078
     34          1           0       -0.269535   -0.303965    1.107374
     35          6           0        0.618838    1.591137    0.855217
     36          1           0        0.198662    2.538167    0.502458
     37          6           0        2.030904    1.418832    0.279859
     38          6           0        0.716907    1.585277    2.398154
     39          1           0        0.891590    0.561749    2.747780
     40          1           0       -0.223941    1.957780    2.813005
     41          8           0        2.545376    0.312419    0.083793
     42          8           0        1.802828    2.453383    2.818181
     43          1           0        1.705337    2.613363    3.771404
     44          7           0        2.790593    2.540982    0.202512
     45          1           0        2.402018    3.481711    0.207796
     46          6           0        4.225654    2.400837    0.066837
     47          1           0        4.492108    2.000535   -0.919470
     48          6           0        4.675570    1.387418    1.124520
     49          6           0        4.959776    3.743564    0.312238
     50          1           0        4.860342    4.028308    1.366797
     51          1           0        6.023188    3.626209    0.094050
     52          8           0        4.174175    1.407705    2.320526
     53          6           0        4.380254    4.893303   -0.503536
     54          8           0        3.200215    5.181144   -0.516578
     55          8           0        5.326792    5.562918   -1.166485
     56          7           0        5.629637    0.527051    0.884189
     57          1           0        6.040146    0.492214   -0.044177
     58          6           0        5.975630   -0.577710    1.808073
     59          1           0        5.932831   -0.182046    2.824300
     60          6           0        7.398228   -1.061078    1.560697
     61          6           0        4.956843   -1.745224    1.656538
     62          1           0        5.252407   -2.374773    0.807026
     63          1           0        3.989618   -1.304760    1.400534
     64          8           0        8.010490   -1.739595    2.343205
     65          6           0        4.802414   -2.575796    2.934637
     66          1           0        4.518301   -1.905366    3.754525
     67          1           0        5.753174   -3.045253    3.212219
     68          6           0        3.732621   -3.680679    2.791282
     69          1           0        4.081279   -4.445447    2.089822
     70          1           0        3.624719   -4.193450    3.756543
     71          7           0        2.430531   -3.243841    2.300326
     72          1           0        2.228468   -3.403298    1.321187
     73          7           0        1.866218   -2.021516    4.232897
     74          1           0        1.039506   -1.665400    4.700856
     75          1           0        2.297133   -2.756231    4.783907
     76          7           0        0.500206   -1.875020    2.355663
     77          1           0        0.450112   -2.221771    1.394579
     78          6           0        1.547731   -2.381297    2.919682
     79          8           0        7.855234   -0.693532    0.338734
     80          1           0        8.747241   -1.076837    0.225919
     81          1           0        3.295796    1.918452    2.433838
     82          1           0        4.899345    6.308951   -1.633571
 ---------------------------------------------------------------------

 SCF Done:  E(RB3LYP) =  -2166.24176114     A.U. after    2 cycles

 Alpha  occ. eigenvalues --  -19.36063 -19.33290 -19.33081 -19.32019 -19.27751
 Alpha  occ. eigenvalues --  -19.26986 -19.26876 -19.23599 -19.21719 -19.17334
 Alpha  occ. eigenvalues --  -14.55740 -14.50556 -14.46064 -14.44072 -14.43451
 Alpha  occ. eigenvalues --  -14.42544 -14.36516 -14.35848 -10.49527 -10.46359
 Alpha  occ. eigenvalues --  -10.45572 -10.43088 -10.41513 -10.38876 -10.38391
 Alpha  occ. eigenvalues --  -10.37275 -10.37238 -10.36185 -10.36178 -10.34090
 Alpha  occ. eigenvalues --  -10.32433 -10.31586 -10.31506 -10.31208 -10.29207
 Alpha  occ. eigenvalues --  -10.27746 -10.24210 -10.23859 -10.23161 -10.23106
 Alpha  occ. eigenvalues --  -10.22916 -10.22862 -10.22673  -1.26883  -1.24246
 Alpha  occ. eigenvalues --   -1.23866  -1.18862  -1.17846  -1.15384  -1.15061
 Alpha  occ. eigenvalues --   -1.13739  -1.12653  -1.10516  -1.09261  -1.07742
 Alpha  occ. eigenvalues --   -1.06513  -1.03196  -0.98919  -0.97791  -0.95777
 Alpha  occ. eigenvalues --   -0.93698  -0.93425  -0.92659  -0.89352  -0.89088
 Alpha  occ. eigenvalues --   -0.87370  -0.84491  -0.83606  -0.81854  -0.81679
 Alpha  occ. eigenvalues --   -0.79103  -0.78478  -0.78338  -0.76234  -0.76015
 Alpha  occ. eigenvalues --   -0.74659  -0.74212  -0.72430  -0.71797  -0.71337
 Alpha  occ. eigenvalues --   -0.70084  -0.69071  -0.68423  -0.67704  -0.67385
 Alpha  occ. eigenvalues --   -0.66531  -0.65121  -0.64844  -0.64521  -0.64124
 Alpha  occ. eigenvalues --   -0.63669  -0.62726  -0.62402  -0.61789  -0.60970
 Alpha  occ. eigenvalues --   -0.60890  -0.60720  -0.60355  -0.60093  -0.59361
 Alpha  occ. eigenvalues --   -0.58702  -0.58029  -0.57829  -0.57165  -0.56446
 Alpha  occ. eigenvalues --   -0.55966  -0.55778  -0.55118  -0.54867  -0.54612
 Alpha  occ. eigenvalues --   -0.54441  -0.54296  -0.53932  -0.53562  -0.53336
 Alpha  occ. eigenvalues --   -0.53161  -0.52904  -0.52478  -0.52135  -0.51148
 Alpha  occ. eigenvalues --   -0.51098  -0.50637  -0.50428  -0.49847  -0.49564
 Alpha  occ. eigenvalues --   -0.49296  -0.48832  -0.48230  -0.47666  -0.47161
 Alpha  occ. eigenvalues --   -0.46810  -0.46220  -0.45929  -0.45694  -0.45435
 Alpha  occ. eigenvalues --   -0.45374  -0.45202  -0.44879  -0.44284  -0.43598
 Alpha  occ. eigenvalues --   -0.43195  -0.42405  -0.42219  -0.41731  -0.41586
 Alpha  occ. eigenvalues --   -0.40878  -0.40450  -0.40057  -0.39348  -0.37962
 Alpha  occ. eigenvalues --   -0.37578  -0.37322  -0.36638  -0.35528  -0.35413
 Alpha  occ. eigenvalues --   -0.34871  -0.31525  -0.31263  -0.30564  -0.29216
 Alpha  occ. eigenvalues --   -0.28949  -0.28009
 Alpha virt. eigenvalues --   -0.18367  -0.13237  -0.12792  -0.12068  -0.08200
 Alpha virt. eigenvalues --   -0.07828  -0.06586  -0.04570  -0.04312  -0.04072
 Alpha virt. eigenvalues --   -0.03764  -0.03557  -0.03070  -0.02785  -0.01932

 Mulliken charges:
               1
     1  N   -0.693604
     2  H    0.304557
     3  H    0.321249
     4  C   -0.085279
     5  H    0.143455
     6  C    0.600982
     7  C   -0.342175
     8  H    0.134854
     9  H    0.172173
    10  O   -0.519818
    11  C    0.155899
    12  C   -0.186059
    13  H    0.149244
    14  C   -0.175559
    15  H    0.108683
    16  C   -0.127136
    17  H    0.138077
    18  C   -0.125153
    19  H    0.123974
    20  C   -0.128056
    21  H    0.134318
    22  N   -0.625155
    23  H    0.346736
    24  C   -0.044063
    25  H    0.192354
    26  C    0.590491
    27  C   -0.050069
    28  H    0.145266
    29  H    0.196524
    30  O   -0.534691
    31  O   -0.667970
    32  H    0.437858
    33  N   -0.634605
    34  H    0.395482
    35  C   -0.049234
    36  H    0.202606
    37  C    0.632497
    38  C   -0.100863
    39  H    0.217635
    40  H    0.197867
    41  O   -0.548348
    42  O   -0.660776
    43  H    0.441054
    44  N   -0.623985
    45  H    0.396168
    46  C   -0.019312
    47  H    0.208983
    48  C    0.665413
    49  C   -0.398071
    50  H    0.215643
    51  H    0.213208
    52  O   -0.592951
    53  C    0.610442
    54  O   -0.448911
    55  O   -0.536134
    56  N   -0.571348
    57  H    0.393228
    58  C   -0.072053
    59  H    0.227951
    60  C    0.601193
    61  C   -0.296221
    62  H    0.165154
    63  H    0.202908
    64  O   -0.415894
    65  C   -0.278267
    66  H    0.162186
    67  H    0.179948
    68  C   -0.160061
    69  H    0.173134
    70  H    0.165038
    71  N   -0.609383
    72  H    0.353989
    73  N   -0.753409
    74  H    0.341561
    75  H    0.333464
    76  N   -0.744634
    77  H    0.319578
    78  C    0.608863
    79  O   -0.587594
    80  H    0.444138
    81  H    0.499581
    82  H    0.441234
 Sum of Mulliken charges =   1.00000

 Dipole moment (field-independent basis, Debye):
    X=             22.6228    Y=              7.6391    Z=              6.8648  Tot=             24.8449
 Quadrupole moment (field-independent basis, Debye-Ang):
   XX=           -125.9440   YY=           -201.6745   ZZ=           -208.1719
   XY=             24.4681   XZ=              4.4812   YZ=             -0.4720

 Normal termination of Gaussian 16 at Thu May 26 21:39:39 2022.
