 Gaussian 16, Revision C.01,
 Gaussian 16:  ES64L-G16RevC.01  3-Jul-2019

 ----------------------------------------------------------------------
 # B3LYP/6-31G* empiricaldispersion=gd3bj guess=read geom=check nosymm
 integral(ultrafinegrid)
 ----------------------------------------------------------------------

 ------------------------------------------------------
 Candidate Structure: Conf:662 Charge calc in gas phase
 ------------------------------------------------------
 Structure from the checkpoint file:  "conf-662.chk"
 Charge =  1 Multiplicity = 1

                          Input orientation:
 ---------------------------------------------------------------------
 Center     Atomic      Atomic             Coordinates (Angstroms)
 Number     Number       Type             X           Y           Z
 ---------------------------------------------------------------------
      1          7           0       -0.363643   -2.173671    3.736036
      2          1           0        0.229942   -1.426331    4.101757
      3          1           0       -0.860063   -2.617795    4.506325
      4          1           0        0.241346   -2.868836    3.292295
      5          6           0       -1.309619   -1.680460    2.711135
      6          1           0       -1.822946   -0.790177    3.085217
      7          6           0       -0.524818   -1.321395    1.453715
      8          6           0       -2.344299   -2.761505    2.396644
      9          1           0       -2.815865   -3.061678    3.338503
     10          1           0       -1.820665   -3.635021    2.001671
     11          8           0        0.382533   -2.026889    1.045450
     12          6           0       -3.448745   -2.368978    1.419882
     13          1           0       -3.045533   -2.176765    0.422383
     14          1           0       -4.002022   -1.497870    1.775044
     15          6           0       -4.378658   -3.599706    1.368206
     16          8           0       -5.320959   -3.601116    2.179544
     17          8           0       -4.062890   -4.471279    0.540481
     18          7           0       -0.921980   -0.189455    0.820555
     19          1           0       -1.720192    0.317702    1.163677
     20          6           0       -0.323900    0.238654   -0.435400
     21          1           0       -0.766089    1.220194   -0.627697
     22          6           0        1.194275    0.423089   -0.272200
     23          6           0       -0.656416   -0.698349   -1.607639
     24          1           0       -0.042877   -1.590881   -1.535861
     25          1           0       -1.698834   -1.012872   -1.492479
     26          8           0        2.021675   -0.078471   -1.014665
     27          6           0       -0.476649   -0.018540   -2.939885
     28          6           0       -1.347128    0.996025   -3.330864
     29          1           0       -2.151957    1.282982   -2.663430
     30          6           0        0.564551   -0.362911   -3.798712
     31          1           0        1.274376   -1.123182   -3.492520
     32          6           0       -1.203704    1.642366   -4.560169
     33          1           0       -1.895503    2.424893   -4.853469
     34          6           0        0.733558    0.277966   -5.029854
     35          1           0        1.549137   -0.004354   -5.686635
     36          8           0       -0.044255    1.891926   -6.708744
     37          1           0        0.909435    1.948797   -6.946714
     38          6           0       -0.160674    1.272536   -5.400421
     39          7           0        1.560999    1.204306    0.775625
     40          1           0        0.959721    1.417665    1.563786
     41          6           0        2.942572    1.375651    1.111877
     42          1           0        3.460241    0.408324    1.114255
     43          6           0        2.962219    1.960620    2.558062
     44          6           0        3.715180    2.322685    0.196042
     45          1           0        4.755661    2.321625    0.535156
     46          1           0        3.698703    1.910227   -0.812264
     47          8           0        4.064561    2.258556    3.024817
     48          6           0        3.168421    3.746219    0.196281
     49          1           0        3.239368    4.154335    1.207639
     50          1           0        2.107698    3.733289   -0.064295
     51          6           0        3.916443    4.622392   -0.793839
     52          1           0        4.970166    4.689209   -0.506647
     53          1           0        3.884567    4.143175   -1.777647
     54          6           0        3.342242    6.019176   -0.930207
     55          1           0        3.815153    6.540994   -1.763894
     56          1           0        2.276877    5.941219   -1.164253
     57          7           0        3.502818    6.825989    0.306955
     58          1           0        3.097597    7.757680    0.213756
     59          1           0        4.486925    6.935748    0.551048
     60          1           0        3.045288    6.374902    1.098074
     61          8           0        1.842174    2.039946    3.114843
     62          1           0       -0.338572    2.829040   -6.640607
 ---------------------------------------------------------------------

 SCF Done:  E(RB3LYP) =  -1526.05329796     A.U. after    3 cycles

 Alpha  occ. eigenvalues --  -19.49727 -19.22729 -19.18339 -19.09751 -19.08690
 Alpha  occ. eigenvalues --  -19.05572 -19.05499 -14.64562 -14.58741 -14.47157
 Alpha  occ. eigenvalues --  -14.39980 -10.42505 -10.40966 -10.39888 -10.36063
 Alpha  occ. eigenvalues --  -10.35249 -10.35247 -10.34882 -10.33606 -10.33188
 Alpha  occ. eigenvalues --  -10.32878 -10.32650 -10.32566 -10.28802 -10.28421
 Alpha  occ. eigenvalues --  -10.27530 -10.26701 -10.25119 -10.24604 -10.24175
 Alpha  occ. eigenvalues --  -10.20959  -1.36697  -1.19497  -1.15988  -1.13143
 Alpha  occ. eigenvalues --   -1.10567  -1.03894  -1.03736  -1.01281  -0.99583
 Alpha  occ. eigenvalues --   -0.97340  -0.94851  -0.94251  -0.93100  -0.90601
 Alpha  occ. eigenvalues --   -0.90278  -0.89942  -0.86938  -0.86322  -0.84653
 Alpha  occ. eigenvalues --   -0.81839  -0.80189  -0.78902  -0.77774  -0.76923
 Alpha  occ. eigenvalues --   -0.75474  -0.74929  -0.73380  -0.72583  -0.72211
 Alpha  occ. eigenvalues --   -0.71033  -0.70208  -0.67936  -0.67498  -0.67087
 Alpha  occ. eigenvalues --   -0.66214  -0.65032  -0.62487  -0.61951  -0.61267
 Alpha  occ. eigenvalues --   -0.60172  -0.59620  -0.59264  -0.58055  -0.57384
 Alpha  occ. eigenvalues --   -0.56973  -0.56115  -0.55078  -0.54545  -0.53114
 Alpha  occ. eigenvalues --   -0.52336  -0.51854  -0.51314  -0.50584  -0.49730
 Alpha  occ. eigenvalues --   -0.49236  -0.48987  -0.48585  -0.48378  -0.47820
 Alpha  occ. eigenvalues --   -0.47493  -0.45986  -0.45480  -0.45198  -0.44696
 Alpha  occ. eigenvalues --   -0.43220  -0.42629  -0.42066  -0.41048  -0.40992
 Alpha  occ. eigenvalues --   -0.39667  -0.39510  -0.39272  -0.39053  -0.37810
 Alpha  occ. eigenvalues --   -0.37038  -0.36376  -0.35477  -0.34384  -0.32113
 Alpha  occ. eigenvalues --   -0.31034  -0.25288  -0.24936  -0.23298  -0.21204
 Alpha  occ. eigenvalues --   -0.20533  -0.19167
 Alpha virt. eigenvalues --   -0.18192  -0.15050  -0.14624  -0.14294  -0.10621
 Alpha virt. eigenvalues --   -0.09629  -0.08205  -0.07577  -0.07524  -0.07345
 Alpha virt. eigenvalues --   -0.05888  -0.04772  -0.02755  -0.02277  -0.01481

 Mulliken charges:
               1
     1  N   -0.714921
     2  H    0.433950
     3  H    0.423987
     4  H    0.426271
     5  C   -0.153178
     6  H    0.195308
     7  C    0.662541
     8  C   -0.287994
     9  H    0.171956
    10  H    0.188700
    11  O   -0.505298
    12  C   -0.342619
    13  H    0.125365
    14  H    0.117974
    15  C    0.541510
    16  O   -0.563368
    17  O   -0.568828
    18  N   -0.608079
    19  H    0.346896
    20  C   -0.057212
    21  H    0.149992
    22  C    0.622775
    23  C   -0.365683
    24  H    0.219261
    25  H    0.192650
    26  O   -0.536428
    27  C    0.187624
    28  C   -0.178656
    29  H    0.172603
    30  C   -0.153781
    31  H    0.209118
    32  C   -0.150476
    33  H    0.167282
    34  C   -0.152372
    35  H    0.174938
    36  O   -0.568411
    37  H    0.454691
    38  C    0.221005
    39  N   -0.608866
    40  H    0.327994
    41  C   -0.053758
    42  H    0.160352
    43  C    0.545273
    44  C   -0.259936
    45  H    0.169028
    46  H    0.136780
    47  O   -0.593178
    48  C   -0.287110
    49  H    0.154817
    50  H    0.134191
    51  C   -0.287506
    52  H    0.171702
    53  H    0.180056
    54  C   -0.223534
    55  H    0.214612
    56  H    0.211806
    57  N   -0.713634
    58  H    0.427527
    59  H    0.431914
    60  H    0.441310
    61  O   -0.628442
    62  H    0.449506
 Sum of Mulliken charges =   1.00000

 Dipole moment (field-independent basis, Debye):
    X=             15.9371    Y=             35.9277    Z=            -20.4634  Tot=             44.3119
 Quadrupole moment (field-independent basis, Debye-Ang):
   XX=           -231.4613   YY=            -26.5400   ZZ=            -28.8394
   XY=             13.1362   XZ=            -17.9236   YZ=            -77.4492

 Normal termination of Gaussian 16 at Thu Jun 23 14:08:13 2022.
