 Gaussian 16, Revision C.01,
 Gaussian 16:  ES64L-G16RevC.01  3-Jul-2019

 ----------------------------------------------------------------------
 # B3LYP/6-31G* empiricaldispersion=gd3bj guess=read geom=check nosymm
 integral(ultrafinegrid)
 ----------------------------------------------------------------------

 ------------------------------------------------------
 Candidate Structure: Conf:879 Charge calc in gas phase
 ------------------------------------------------------
 Structure from the checkpoint file:  "conf-879.chk"
 Charge =  1 Multiplicity = 1

                          Input orientation:
 ---------------------------------------------------------------------
 Center     Atomic      Atomic             Coordinates (Angstroms)
 Number     Number       Type             X           Y           Z
 ---------------------------------------------------------------------
      1          7           0        0.792557   -0.843814    1.723059
      2          1           0        1.315481   -0.489721    0.898748
      3          1           0        1.278088   -0.466121    2.592911
      4          1           0        0.774864   -1.865411    1.654836
      5          6           0       -0.614007   -0.311569    1.750134
      6          1           0       -0.509994    0.774784    1.717851
      7          6           0       -1.273504   -0.812919    0.454647
      8          6           0       -1.362741   -0.727251    3.023096
      9          1           0       -1.611977   -1.792502    2.966691
     10          1           0       -2.312226   -0.181001    3.016988
     11          8           0       -0.880914   -1.863866   -0.029777
     12          6           0       -0.602042   -0.432885    4.340688
     13          1           0        0.070741   -1.264167    4.571149
     14          1           0       -1.321142   -0.343673    5.157354
     15          6           0        0.235803    0.844366    4.247822
     16          8           0        1.414437    0.690412    3.730468
     17          8           0       -0.244882    1.936901    4.607619
     18          7           0       -2.236974   -0.003351   -0.081643
     19          1           0       -2.466945    0.775610    0.527925
     20          6           0       -2.241549    0.461458   -1.491578
     21          1           0       -3.215448    0.929459   -1.644208
     22          6           0       -1.190560    1.593341   -1.626912
     23          6           0       -2.066967   -0.642784   -2.593098
     24          1           0       -2.408099   -1.595558   -2.184713
     25          1           0       -2.751240   -0.376262   -3.404152
     26          8           0       -1.416449    2.630724   -2.221371
     27          6           0       -0.648969   -0.766420   -3.125360
     28          6           0       -0.119621    0.196463   -3.994954
     29          1           0       -0.757915    0.983631   -4.385304
     30          6           0        0.198422   -1.789227   -2.677879
     31          1           0       -0.201530   -2.576455   -2.053835
     32          6           0        1.239263    0.213531   -4.306025
     33          1           0        1.645277    1.005565   -4.929773
     34          6           0        1.555170   -1.796322   -3.000690
     35          1           0        2.220064   -2.564501   -2.622837
     36          8           0        3.466190   -0.673625   -3.877682
     37          1           0        3.772106    0.631669   -2.403067
     38          6           0        2.082763   -0.762019   -3.768556
     39          7           0        0.004501    1.339797   -0.971657
     40          1           0        0.244617    0.356838   -0.934833
     41          6           0        1.175513    2.155203   -1.313773
     42          1           0        1.055532    2.535701   -2.331596
     43          6           0        2.350993    1.178959   -1.304873
     44          6           0        1.353487    3.362963   -0.376223
     45          1           0        2.076883    4.044201   -0.839542
     46          1           0        0.392033    3.889013   -0.371273
     47          8           0        3.246971    1.452836   -2.240226
     48          6           0        1.806053    3.052105    1.056741
     49          1           0        2.859977    2.739597    1.048204
     50          1           0        1.240628    2.211065    1.471943
     51          6           0        1.637230    4.292118    1.951044
     52          1           0        1.939249    5.184666    1.388764
     53          1           0        0.576909    4.433785    2.195920
     54          6           0        2.468322    4.310816    3.229402
     55          1           0        3.533426    4.196623    3.007510
     56          1           0        2.330073    5.256657    3.759313
     57          7           0        2.095123    3.217527    4.181883
     58          1           0        2.604540    3.293765    5.065830
     59          1           0        2.219533    2.231425    3.819294
     60          1           0        1.063872    3.142916    4.403073
     61          8           0        2.404285    0.189841   -0.581611
     62          1           0        3.694334   -0.204175   -4.699569
 ---------------------------------------------------------------------

 SCF Done:  E(RB3LYP) =  -1526.36343579     A.U. after    1 cycles

 Alpha  occ. eigenvalues --  -19.31063 -19.28331 -19.27088 -19.25809 -19.23375
 Alpha  occ. eigenvalues --  -19.22983 -19.22016 -14.54834 -14.54081 -14.48429
 Alpha  occ. eigenvalues --  -14.46901 -10.44674 -10.42459 -10.40006 -10.39942
 Alpha  occ. eigenvalues --  -10.38078 -10.36689 -10.35297 -10.34904 -10.34378
 Alpha  occ. eigenvalues --  -10.32705 -10.31632 -10.30766 -10.30431 -10.30070
 Alpha  occ. eigenvalues --  -10.29724 -10.28834 -10.28639 -10.28474 -10.28042
 Alpha  occ. eigenvalues --  -10.27972  -1.22954  -1.17971  -1.15713  -1.15567
 Alpha  occ. eigenvalues --   -1.15228  -1.13896  -1.10328  -1.09405  -1.06276
 Alpha  occ. eigenvalues --   -1.05839  -1.03531  -0.95186  -0.93025  -0.92453
 Alpha  occ. eigenvalues --   -0.89657  -0.88104  -0.84889  -0.84229  -0.83558
 Alpha  occ. eigenvalues --   -0.82057  -0.77066  -0.76814  -0.75237  -0.73085
 Alpha  occ. eigenvalues --   -0.72309  -0.71413  -0.71120  -0.69767  -0.68989
 Alpha  occ. eigenvalues --   -0.68611  -0.67848  -0.67407  -0.66259  -0.64936
 Alpha  occ. eigenvalues --   -0.64017  -0.63575  -0.62775  -0.61692  -0.61366
 Alpha  occ. eigenvalues --   -0.60316  -0.59944  -0.59364  -0.58269  -0.57448
 Alpha  occ. eigenvalues --   -0.57289  -0.56971  -0.56397  -0.55845  -0.55380
 Alpha  occ. eigenvalues --   -0.54887  -0.54662  -0.54036  -0.53516  -0.53319
 Alpha  occ. eigenvalues --   -0.52674  -0.52389  -0.52126  -0.51797  -0.51321
 Alpha  occ. eigenvalues --   -0.50692  -0.50318  -0.49691  -0.49163  -0.48906
 Alpha  occ. eigenvalues --   -0.48542  -0.47769  -0.47050  -0.46759  -0.46394
 Alpha  occ. eigenvalues --   -0.46108  -0.45608  -0.45339  -0.44366  -0.43956
 Alpha  occ. eigenvalues --   -0.43439  -0.41764  -0.40860  -0.40396  -0.38642
 Alpha  occ. eigenvalues --   -0.38221  -0.37915  -0.37570  -0.35995  -0.35173
 Alpha  occ. eigenvalues --   -0.34477  -0.32138
 Alpha virt. eigenvalues --   -0.13904  -0.12360  -0.10124  -0.09208  -0.08402
 Alpha virt. eigenvalues --   -0.07800  -0.06729  -0.05783  -0.04607  -0.03194
 Alpha virt. eigenvalues --   -0.02203  -0.01024  -0.00381   0.00247   0.00620

 Mulliken charges:
               1
     1  N   -0.790271
     2  H    0.433385
     3  H    0.434665
     4  H    0.396502
     5  C   -0.126123
     6  H    0.211208
     7  C    0.592078
     8  C   -0.284940
     9  H    0.187301
    10  H    0.188198
    11  O   -0.495706
    12  C   -0.350176
    13  H    0.169059
    14  H    0.198691
    15  C    0.601247
    16  O   -0.657285
    17  O   -0.552278
    18  N   -0.566294
    19  H    0.339489
    20  C   -0.083901
    21  H    0.201162
    22  C    0.582725
    23  C   -0.353911
    24  H    0.197178
    25  H    0.186379
    26  O   -0.484343
    27  C    0.106858
    28  C   -0.190491
    29  H    0.165814
    30  C   -0.194862
    31  H    0.175195
    32  C   -0.182316
    33  H    0.147571
    34  C   -0.142261
    35  H    0.157804
    36  O   -0.666811
    37  H    0.444889
    38  C    0.308471
    39  N   -0.652838
    40  H    0.366953
    41  C   -0.017616
    42  H    0.205278
    43  C    0.602674
    44  C   -0.278393
    45  H    0.170414
    46  H    0.184193
    47  O   -0.561161
    48  C   -0.294764
    49  H    0.150053
    50  H    0.150164
    51  C   -0.284499
    52  H    0.181589
    53  H    0.174497
    54  C   -0.179823
    55  H    0.195019
    56  H    0.201975
    57  N   -0.768155
    58  H    0.390673
    59  H    0.424880
    60  H    0.414901
    61  O   -0.506083
    62  H    0.426169
 Sum of Mulliken charges =   1.00000

 Dipole moment (field-independent basis, Debye):
    X=              6.7321    Y=              6.7768    Z=              5.7864  Tot=             11.1682
 Quadrupole moment (field-independent basis, Debye-Ang):
   XX=           -146.8655   YY=           -144.7832   ZZ=           -123.6773
   XY=             27.1545   XZ=              7.7308   YZ=             21.2277

 Normal termination of Gaussian 16 at Thu Jun 23 14:08:01 2022.
