 Gaussian 16, Revision C.01,
 Gaussian 16:  ES64L-G16RevC.01  3-Jul-2019

 ----------------------------------------------------------------------
 # B3LYP/6-31G* empiricaldispersion=gd3bj guess=read geom=check nosymm
 integral(ultrafinegrid)
 ----------------------------------------------------------------------

 ------------------------------------------------------
 Candidate Structure: Conf:962 Charge calc in gas phase
 ------------------------------------------------------
 Structure from the checkpoint file:  "conf-962.chk"
 Charge =  1 Multiplicity = 1

                          Input orientation:
 ---------------------------------------------------------------------
 Center     Atomic      Atomic             Coordinates (Angstroms)
 Number     Number       Type             X           Y           Z
 ---------------------------------------------------------------------
      1          7           0       -0.302003   -2.979559    3.584190
      2          1           0        0.627663   -2.618404    3.797310
      3          1           0       -0.740042   -3.289540    4.450163
      4          1           0       -0.175718   -3.787819    2.974791
      5          6           0       -1.106470   -1.953575    2.893831
      6          1           0       -1.200496   -1.078862    3.547456
      7          6           0       -0.366829   -1.519984    1.622616
      8          6           0       -2.505710   -2.454648    2.561819
      9          1           0       -2.436464   -3.377502    1.980305
     10          1           0       -3.000103   -1.724407    1.914953
     11          8           0        0.585211   -2.139653    1.190037
     12          6           0       -3.369496   -2.691878    3.788580
     13          1           0       -3.476219   -1.796517    4.400261
     14          1           0       -2.959882   -3.483546    4.426629
     15          6           0       -4.780717   -3.179959    3.369490
     16          8           0       -5.712886   -2.781770    4.094232
     17          8           0       -4.821978   -3.958320    2.399844
     18          7           0       -0.851140   -0.397467    1.031681
     19          1           0       -1.671693    0.043519    1.411581
     20          6           0       -0.288775    0.126050   -0.206387
     21          1           0       -0.772718    1.097211   -0.346836
     22          6           0        1.221645    0.366375   -0.055774
     23          6           0       -0.596389   -0.760682   -1.424039
     24          1           0        0.013136   -1.657977   -1.366695
     25          1           0       -1.639644   -1.072966   -1.351059
     26          8           0        2.065112   -0.099467   -0.801758
     27          6           0       -0.373604   -0.034338   -2.726086
     28          6           0       -1.200388    1.026055   -3.087825
     29          1           0       -2.003811    1.317334   -2.421282
     30          6           0        0.662289   -0.388303   -3.586620
     31          1           0        1.338583   -1.186577   -3.300899
     32          6           0       -1.018588    1.709770   -4.291849
     33          1           0       -1.677179    2.527883   -4.563622
     34          6           0        0.870389    0.289013   -4.792011
     35          1           0        1.682073   -0.000773   -5.450328
     36          8           0        0.173397    1.990993   -6.418668
     37          1           0        1.131255    2.019802   -6.644632
     38          6           0        0.018929    1.330205   -5.134841
     39          7           0        1.567434    1.158509    0.993175
     40          1           0        0.963800    1.357134    1.781682
     41          6           0        2.946705    1.382896    1.308425
     42          1           0        3.503928    0.438793    1.290637
     43          6           0        2.981616    1.967676    2.744602
     44          6           0        3.673082    2.384298    0.414351
     45          1           0        4.712703    2.382078    0.751546
     46          1           0        3.661034    2.030989   -0.615808
     47          8           0        4.084096    2.296966    3.194157
     48          6           0        3.077775    3.786313    0.523578
     49          1           0        2.888197    4.028063    1.577501
     50          1           0        2.104412    3.795197    0.025935
     51          6           0        3.978207    4.859882   -0.071237
     52          1           0        4.279657    4.584113   -1.086934
     53          1           0        3.416687    5.795074   -0.144853
     54          6           0        5.216889    5.110051    0.766580
     55          1           0        4.914137    5.342059    1.791994
     56          1           0        5.823859    4.204069    0.807805
     57          7           0        6.046610    6.218120    0.229998
     58          1           0        6.879465    6.384437    0.794847
     59          1           0        5.516288    7.087392    0.198377
     60          1           0        6.354469    6.013103   -0.719620
     61          8           0        1.878835    2.024841    3.331415
     62          1           0       -0.086075    2.935624   -6.319663
 ---------------------------------------------------------------------

 SCF Done:  E(RB3LYP) =  -1526.05493823     A.U. after    3 cycles

 Alpha  occ. eigenvalues --  -19.50005 -19.22575 -19.18039 -19.08878 -19.08152
 Alpha  occ. eigenvalues --  -19.05453 -19.05400 -14.64034 -14.58142 -14.46716
 Alpha  occ. eigenvalues --  -14.39619 -10.42640 -10.39670 -10.38760 -10.35530
 Alpha  occ. eigenvalues --  -10.35310 -10.35031 -10.34937 -10.33467 -10.33241
 Alpha  occ. eigenvalues --  -10.33020 -10.32744 -10.32046 -10.29098 -10.26966
 Alpha  occ. eigenvalues --  -10.26844 -10.26238 -10.24732 -10.24231 -10.24180
 Alpha  occ. eigenvalues --  -10.20895  -1.36948  -1.18881  -1.15929  -1.12696
 Alpha  occ. eigenvalues --   -1.10322  -1.03511  -1.03286  -1.01390  -0.99277
 Alpha  occ. eigenvalues --   -0.96856  -0.93828  -0.93351  -0.93231  -0.90467
 Alpha  occ. eigenvalues --   -0.90396  -0.89701  -0.86425  -0.85227  -0.84877
 Alpha  occ. eigenvalues --   -0.81683  -0.79916  -0.78828  -0.77155  -0.76930
 Alpha  occ. eigenvalues --   -0.75372  -0.74926  -0.72018  -0.71910  -0.71158
 Alpha  occ. eigenvalues --   -0.71071  -0.69398  -0.68094  -0.67585  -0.66844
 Alpha  occ. eigenvalues --   -0.66119  -0.64359  -0.62231  -0.61788  -0.61249
 Alpha  occ. eigenvalues --   -0.59330  -0.59229  -0.58969  -0.58103  -0.57059
 Alpha  occ. eigenvalues --   -0.56354  -0.54623  -0.53857  -0.52805  -0.52654
 Alpha  occ. eigenvalues --   -0.51842  -0.51704  -0.51314  -0.51084  -0.50024
 Alpha  occ. eigenvalues --   -0.49523  -0.48591  -0.48541  -0.48016  -0.47800
 Alpha  occ. eigenvalues --   -0.47697  -0.45858  -0.45404  -0.44820  -0.43491
 Alpha  occ. eigenvalues --   -0.43226  -0.42150  -0.41398  -0.41077  -0.40566
 Alpha  occ. eigenvalues --   -0.39703  -0.39193  -0.38851  -0.38822  -0.37182
 Alpha  occ. eigenvalues --   -0.36754  -0.36274  -0.35281  -0.33849  -0.31869
 Alpha  occ. eigenvalues --   -0.30554  -0.24597  -0.24167  -0.22785  -0.21063
 Alpha  occ. eigenvalues --   -0.20445  -0.19148
 Alpha virt. eigenvalues --   -0.18308  -0.15122  -0.14719  -0.14182  -0.10756
 Alpha virt. eigenvalues --   -0.08175  -0.07807  -0.07613  -0.07552  -0.07433
 Alpha virt. eigenvalues --   -0.05628  -0.02821  -0.02043  -0.01619  -0.00972

 Mulliken charges:
               1
     1  N   -0.704537
     2  H    0.427187
     3  H    0.420610
     4  H    0.422000
     5  C   -0.156431
     6  H    0.219625
     7  C    0.649687
     8  C   -0.278628
     9  H    0.181755
    10  H    0.168599
    11  O   -0.513293
    12  C   -0.375519
    13  H    0.143130
    14  H    0.111225
    15  C    0.565251
    16  O   -0.558120
    17  O   -0.581912
    18  N   -0.614831
    19  H    0.351824
    20  C   -0.059295
    21  H    0.159039
    22  C    0.627577
    23  C   -0.357019
    24  H    0.210017
    25  H    0.177791
    26  O   -0.541825
    27  C    0.190910
    28  C   -0.178742
    29  H    0.176516
    30  C   -0.152223
    31  H    0.204138
    32  C   -0.148545
    33  H    0.170819
    34  C   -0.151897
    35  H    0.172679
    36  O   -0.573074
    37  H    0.460889
    38  C    0.221104
    39  N   -0.608017
    40  H    0.334548
    41  C   -0.041749
    42  H    0.153535
    43  C    0.548857
    44  C   -0.273471
    45  H    0.144689
    46  H    0.129123
    47  O   -0.611649
    48  C   -0.269708
    49  H    0.199147
    50  H    0.142525
    51  C   -0.290440
    52  H    0.138517
    53  H    0.143302
    54  C   -0.226958
    55  H    0.251970
    56  H    0.242557
    57  N   -0.714338
    58  H    0.433729
    59  H    0.422206
    60  H    0.419794
    61  O   -0.614293
    62  H    0.459645
 Sum of Mulliken charges =   1.00000

 Dipole moment (field-independent basis, Debye):
    X=             28.3500    Y=             28.6517    Z=            -26.4863  Tot=             48.2303
 Quadrupole moment (field-independent basis, Debye-Ang):
   XX=           -158.8035   YY=            -24.8091   ZZ=            -76.8652
   XY=             73.3945   XZ=             16.3692   YZ=            -68.9695

 Normal termination of Gaussian 16 at Thu Jun 23 14:08:13 2022.
