 Gaussian 16, Revision C.01,
 Gaussian 16:  ES64L-G16RevC.01  3-Jul-2019

 ----------------------------------------------------------------------
 # B3LYP/6-31G* empiricaldispersion=gd3bj guess=read geom=check nosymm
 integral(ultrafinegrid)
 ----------------------------------------------------------------------

 ------------------------------------------------------
 Candidate Structure: Conf:234 Charge calc in gas phase
 ------------------------------------------------------
 Structure from the checkpoint file:  "conf-234.chk"
 Charge =  1 Multiplicity = 1

                          Input orientation:
 ---------------------------------------------------------------------
 Center     Atomic      Atomic             Coordinates (Angstroms)
 Number     Number       Type             X           Y           Z
 ---------------------------------------------------------------------
      1          7           0       -2.350852   -2.260627    3.196226
      2          1           0       -2.966268   -1.632151    2.624597
      3          1           0       -2.485651   -3.263782    3.003732
      4          1           0       -2.539717   -2.073544    4.185678
      5          6           0       -0.961517   -1.854588    2.779383
      6          1           0       -0.748169   -2.475350    1.905782
      7          6           0       -1.133748   -0.446048    2.181155
      8          6           0        0.080999   -2.131634    3.858002
      9          1           0       -0.061605   -1.475237    4.723978
     10          1           0        1.062549   -1.897521    3.434584
     11          8           0       -2.280953   -0.081416    1.899639
     12          6           0        0.088431   -3.612967    4.321940
     13          1           0       -0.781812   -3.831308    4.949668
     14          1           0        0.986350   -3.797256    4.914472
     15          6           0        0.096741   -4.543866    3.125889
     16          8           0       -1.165060   -4.806040    2.684173
     17          8           0        1.087339   -4.944229    2.559189
     18          7           0       -0.011690    0.200854    1.866181
     19          1           0        0.901893   -0.197882    2.085728
     20          6           0        0.084211    1.095993    0.718490
     21          1           0       -0.497364    2.003524    0.899414
     22          6           0        1.583218    1.435408    0.625085
     23          6           0       -0.428506    0.418732   -0.609367
     24          1           0       -1.464096    0.725773   -0.770137
     25          1           0        0.158732    0.829679   -1.437794
     26          8           0        2.420277    0.690455    1.151424
     27          6           0       -0.363810   -1.094160   -0.580463
     28          6           0        0.836812   -1.780570   -0.347089
     29          1           0        1.768176   -1.230049   -0.263437
     30          6           0       -1.542035   -1.847601   -0.669757
     31          1           0       -2.484054   -1.339722   -0.854314
     32          6           0        0.854605   -3.160159   -0.144636
     33          1           0        1.788841   -3.667684    0.077542
     34          6           0       -1.541690   -3.231129   -0.488597
     35          1           0       -2.458444   -3.808268   -0.560618
     36          8           0       -0.400980   -5.230949    0.091616
     37          1           0       -1.078881   -5.238244    1.791984
     38          6           0       -0.341575   -3.881734   -0.196491
     39          7           0        1.882354    2.520241   -0.098173
     40          1           0        1.175527    3.219458   -0.323261
     41          6           0        3.243916    3.026919   -0.229514
     42          1           0        3.665341    3.129646    0.780567
     43          6           0        3.088808    4.455934   -0.797306
     44          6           0        4.174877    2.109721   -1.047965
     45          1           0        3.753482    1.101713   -1.058320
     46          1           0        4.198053    2.444654   -2.090046
     47          8           0        4.156549    5.058611   -1.284801
     48          6           0        5.592942    2.055347   -0.445128
     49          1           0        5.594777    1.288320    0.336911
     50          1           0        5.814478    3.001469    0.066578
     51          6           0        6.707051    1.790911   -1.471507
     52          1           0        7.514432    1.203164   -1.020424
     53          1           0        6.320836    1.186660   -2.304414
     54          6           0        7.322738    3.087101   -2.002638
     55          1           0        7.817842    3.610745   -1.177293
     56          1           0        8.092064    2.863447   -2.754583
     57          7           0        6.286836    4.003824   -2.528055
     58          1           0        6.709302    4.898996   -2.774844
     59          1           0        4.949779    4.487694   -1.570087
     60          1           0        5.904883    3.631964   -3.398515
     61          8           0        2.004195    5.006940   -0.742566
     62          1           0        0.486467   -5.535624    0.357190
 ---------------------------------------------------------------------

 SCF Done:  E(RB3LYP) =  -1526.35669235     A.U. after    1 cycles

 Alpha  occ. eigenvalues --  -19.32598 -19.30460 -19.27331 -19.26468 -19.24254
 Alpha  occ. eigenvalues --  -19.22894 -19.20400 -14.59583 -14.48807 -14.45958
 Alpha  occ. eigenvalues --  -14.43032 -10.45492 -10.43375 -10.40115 -10.39612
 Alpha  occ. eigenvalues --  -10.39072 -10.36626 -10.35608 -10.35348 -10.34259
 Alpha  occ. eigenvalues --  -10.32448 -10.30536 -10.30440 -10.30378 -10.30350
 Alpha  occ. eigenvalues --  -10.30210 -10.30146 -10.29911 -10.27484 -10.26735
 Alpha  occ. eigenvalues --  -10.26694  -1.23441  -1.18996  -1.17903  -1.16134
 Alpha  occ. eigenvalues --   -1.14793  -1.14624  -1.13725  -1.08102  -1.06126
 Alpha  occ. eigenvalues --   -1.02671  -0.98713  -0.96891  -0.95827  -0.90753
 Alpha  occ. eigenvalues --   -0.88741  -0.87940  -0.86198  -0.85246  -0.83086
 Alpha  occ. eigenvalues --   -0.80233  -0.78409  -0.77361  -0.74692  -0.73815
 Alpha  occ. eigenvalues --   -0.73437  -0.72392  -0.71518  -0.70713  -0.69613
 Alpha  occ. eigenvalues --   -0.68919  -0.66996  -0.66880  -0.66641  -0.65796
 Alpha  occ. eigenvalues --   -0.65266  -0.62665  -0.61836  -0.61368  -0.60972
 Alpha  occ. eigenvalues --   -0.59339  -0.58944  -0.58877  -0.58319  -0.58140
 Alpha  occ. eigenvalues --   -0.57171  -0.56665  -0.56129  -0.55341  -0.55132
 Alpha  occ. eigenvalues --   -0.54757  -0.54345  -0.53810  -0.53502  -0.53182
 Alpha  occ. eigenvalues --   -0.52708  -0.51976  -0.51593  -0.51067  -0.50865
 Alpha  occ. eigenvalues --   -0.50718  -0.50471  -0.50096  -0.49657  -0.48765
 Alpha  occ. eigenvalues --   -0.48164  -0.47233  -0.46390  -0.45690  -0.45367
 Alpha  occ. eigenvalues --   -0.44905  -0.44382  -0.44189  -0.43816  -0.41952
 Alpha  occ. eigenvalues --   -0.41856  -0.41370  -0.40886  -0.40664  -0.39345
 Alpha  occ. eigenvalues --   -0.37536  -0.37024  -0.36507  -0.36180  -0.35340
 Alpha  occ. eigenvalues --   -0.34049  -0.33880
 Alpha virt. eigenvalues --   -0.13653  -0.12625  -0.11524  -0.10783  -0.09957
 Alpha virt. eigenvalues --   -0.08574  -0.05958  -0.04446  -0.03605  -0.02856
 Alpha virt. eigenvalues --   -0.01908  -0.01680  -0.01399  -0.00772  -0.00364

 Mulliken charges:
               1
     1  N   -0.755313
     2  H    0.428447
     3  H    0.430013
     4  H    0.406041
     5  C   -0.144024
     6  H    0.246879
     7  C    0.661416
     8  C   -0.316283
     9  H    0.192110
    10  H    0.212751
    11  O   -0.543736
    12  C   -0.353667
    13  H    0.173577
    14  H    0.223717
    15  C    0.588979
    16  O   -0.622763
    17  O   -0.446931
    18  N   -0.613711
    19  H    0.375111
    20  C   -0.037205
    21  H    0.201555
    22  C    0.625117
    23  C   -0.378232
    24  H    0.187083
    25  H    0.191190
    26  O   -0.555270
    27  C    0.138435
    28  C   -0.207944
    29  H    0.178751
    30  C   -0.192539
    31  H    0.161316
    32  C   -0.192610
    33  H    0.166935
    34  C   -0.187220
    35  H    0.161252
    36  O   -0.667675
    37  H    0.456772
    38  C    0.327006
    39  N   -0.626496
    40  H    0.367379
    41  C   -0.046159
    42  H    0.197416
    43  C    0.590947
    44  C   -0.290134
    45  H    0.167773
    46  H    0.145571
    47  O   -0.611031
    48  C   -0.278265
    49  H    0.164115
    50  H    0.147494
    51  C   -0.274702
    52  H    0.159386
    53  H    0.143086
    54  C   -0.145710
    55  H    0.166543
    56  H    0.153427
    57  N   -0.774217
    58  H    0.344552
    59  H    0.484890
    60  H    0.329436
    61  O   -0.474507
    62  H    0.439877
 Sum of Mulliken charges =   1.00000

 Dipole moment (field-independent basis, Debye):
    X=              3.1615    Y=             -8.1299    Z=              7.9734  Tot=             11.8181
 Quadrupole moment (field-independent basis, Debye-Ang):
   XX=           -101.2905   YY=           -157.9262   ZZ=           -121.2564
   XY=             41.2111   XZ=            -42.7582   YZ=            -39.3221

 Normal termination of Gaussian 16 at Thu Jun 23 14:07:58 2022.
