 Gaussian 16, Revision C.01,
 Gaussian 16:  ES64L-G16RevC.01  3-Jul-2019

 ----------------------------------------------------------------------
 # B3LYP/6-31G* empiricaldispersion=gd3bj guess=read geom=check nosymm
 integral(ultrafinegrid)
 ----------------------------------------------------------------------

 ------------------------------------------------------
 Candidate Structure: Conf:217 Charge calc in gas phase
 ------------------------------------------------------
 Structure from the checkpoint file:  "conf-217.chk"
 Charge =  1 Multiplicity = 1

                          Input orientation:
 ---------------------------------------------------------------------
 Center     Atomic      Atomic             Coordinates (Angstroms)
 Number     Number       Type             X           Y           Z
 ---------------------------------------------------------------------
      1          7           0       -0.082922   -2.074417    3.687424
      2          1           0        0.466521   -1.298300    4.062193
      3          1           0       -0.542721   -2.562751    4.453660
      4          1           0        0.559624   -2.722212    3.225185
      5          6           0       -1.068509   -1.622677    2.680922
      6          1           0       -1.628283   -0.769583    3.074562
      7          6           0       -0.320850   -1.198341    1.421157
      8          6           0       -2.042286   -2.757571    2.361383
      9          1           0       -2.479953   -3.101601    3.304685
     10          1           0       -1.474805   -3.591572    1.942481
     11          8           0        0.618508   -1.844933    0.988638
     12          6           0       -3.184645   -2.413955    1.409998
     13          1           0       -2.811197   -2.180873    0.409626
     14          1           0       -3.781810   -1.583467    1.790470
     15          6           0       -4.042249   -3.695919    1.351255
     16          8           0       -3.691595   -4.532841    0.502117
     17          8           0       -4.967851   -3.766569    2.178601
     18          7           0       -0.786907   -0.077928    0.814633
     19          1           0       -1.612724    0.372638    1.170967
     20          6           0       -0.233794    0.400353   -0.443959
     21          1           0       -0.752292    1.346885   -0.624770
     22          6           0        1.268056    0.697566   -0.289531
     23          6           0       -0.503699   -0.550785   -1.621223
     24          1           0        0.194238   -1.380778   -1.578371
     25          1           0       -1.507301   -0.965974   -1.485483
     26          8           0        2.123851    0.262310   -1.042539
     27          6           0       -0.428968    0.161208   -2.946627
     28          6           0       -1.428807    1.059689   -3.312495
     29          1           0       -2.253966    1.232051   -2.630258
     30          6           0        0.636786   -0.033014   -3.822544
     31          1           0        1.443171   -0.698753   -3.537462
     32          6           0       -1.387109    1.736730   -4.532820
     33          1           0       -2.178032    2.427381   -4.805322
     34          6           0        0.703339    0.640944   -5.045889
     35          1           0        1.539290    0.475395   -5.716713
     36          8           0       -0.299562    2.162399   -6.691195
     37          1           0        0.635402    2.345070   -6.939894
     38          6           0       -0.316947    1.516096   -5.390863
     39          7           0        1.580377    1.504449    0.753017
     40          1           0        0.969770    1.668986    1.546025
     41          6           0        2.947878    1.798893    1.073547
     42          1           0        3.558982    0.887826    0.990564
     43          6           0        2.932082    2.275566    2.557512
     44          6           0        3.553566    2.872413    0.164465
     45          1           0        3.291960    2.620741   -0.863733
     46          1           0        3.083311    3.836204    0.384596
     47          8           0        4.022133    2.581466    3.057834
     48          6           0        5.069500    2.963591    0.288591
     49          1           0        5.490559    1.993998   -0.000638
     50          1           0        5.361867    3.130423    1.326774
     51          6           0        5.648558    4.042990   -0.604657
     52          1           0        5.333575    3.874860   -1.637827
     53          1           0        5.251863    5.016540   -0.303420
     54          6           0        7.160063    4.091138   -0.555768
     55          1           0        7.478943    4.255355    0.476304
     56          1           0        7.557820    3.121547   -0.864726
     57          7           0        7.720894    5.156010   -1.424090
     58          1           0        8.740077    5.191340   -1.385885
     59          1           0        7.371187    6.072882   -1.148028
     60          1           0        7.454937    5.010380   -2.397407
     61          8           0        1.811260    2.282743    3.113421
     62          1           0       -0.711318    3.052671   -6.605783
 ---------------------------------------------------------------------

 SCF Done:  E(RB3LYP) =  -1526.05117750     A.U. after    3 cycles

 Alpha  occ. eigenvalues --  -19.49238 -19.22074 -19.17500 -19.08830 -19.07997
 Alpha  occ. eigenvalues --  -19.05046 -19.04973 -14.64824 -14.58188 -14.46362
 Alpha  occ. eigenvalues --  -14.39032 -10.41924 -10.39895 -10.39200 -10.35421
 Alpha  occ. eigenvalues --  -10.34571 -10.34393 -10.34367 -10.32713 -10.32492
 Alpha  occ. eigenvalues --  -10.32248 -10.32023 -10.31859 -10.28079 -10.26835
 Alpha  occ. eigenvalues --  -10.26240 -10.26145 -10.24670 -10.24286 -10.23655
 Alpha  occ. eigenvalues --  -10.20391  -1.36200  -1.19665  -1.15349  -1.12545
 Alpha  occ. eigenvalues --   -1.09732  -1.03049  -1.02909  -1.00680  -0.99065
 Alpha  occ. eigenvalues --   -0.96432  -0.94096  -0.93363  -0.92464  -0.90084
 Alpha  occ. eigenvalues --   -0.89698  -0.89300  -0.85951  -0.85456  -0.84137
 Alpha  occ. eigenvalues --   -0.81189  -0.79766  -0.78343  -0.77875  -0.77181
 Alpha  occ. eigenvalues --   -0.74749  -0.74339  -0.72514  -0.71723  -0.71359
 Alpha  occ. eigenvalues --   -0.70425  -0.68808  -0.67681  -0.67323  -0.65727
 Alpha  occ. eigenvalues --   -0.65444  -0.64269  -0.61926  -0.61291  -0.61055
 Alpha  occ. eigenvalues --   -0.60594  -0.58982  -0.58577  -0.57386  -0.56440
 Alpha  occ. eigenvalues --   -0.55938  -0.54124  -0.53869  -0.53767  -0.52219
 Alpha  occ. eigenvalues --   -0.51502  -0.51163  -0.50585  -0.49705  -0.49108
 Alpha  occ. eigenvalues --   -0.48616  -0.48227  -0.47977  -0.47646  -0.47211
 Alpha  occ. eigenvalues --   -0.46650  -0.45147  -0.44978  -0.44078  -0.42829
 Alpha  occ. eigenvalues --   -0.42598  -0.42245  -0.41174  -0.40450  -0.40249
 Alpha  occ. eigenvalues --   -0.39015  -0.38775  -0.38730  -0.38414  -0.37018
 Alpha  occ. eigenvalues --   -0.36306  -0.35730  -0.34962  -0.33868  -0.31408
 Alpha  occ. eigenvalues --   -0.30188  -0.24339  -0.24091  -0.22488  -0.20699
 Alpha  occ. eigenvalues --   -0.20017  -0.18664
 Alpha virt. eigenvalues --   -0.17685  -0.14870  -0.14451  -0.14009  -0.10120
 Alpha virt. eigenvalues --   -0.08990  -0.08547  -0.08307  -0.06959  -0.06791
 Alpha virt. eigenvalues --   -0.04962  -0.03888  -0.02061  -0.01672  -0.00304

 Mulliken charges:
               1
     1  N   -0.715497
     2  H    0.434697
     3  H    0.423120
     4  H    0.423968
     5  C   -0.152802
     6  H    0.198655
     7  C    0.663262
     8  C   -0.287913
     9  H    0.170878
    10  H    0.186618
    11  O   -0.509622
    12  C   -0.342493
    13  H    0.124987
    14  H    0.120041
    15  C    0.540449
    16  O   -0.571421
    17  O   -0.564394
    18  N   -0.608042
    19  H    0.349290
    20  C   -0.059192
    21  H    0.160282
    22  C    0.627526
    23  C   -0.367410
    24  H    0.216263
    25  H    0.192331
    26  O   -0.550898
    27  C    0.184917
    28  C   -0.175066
    29  H    0.177245
    30  C   -0.154467
    31  H    0.203974
    32  C   -0.147141
    33  H    0.171388
    34  C   -0.152816
    35  H    0.166133
    36  O   -0.570312
    37  H    0.451214
    38  C    0.222191
    39  N   -0.611003
    40  H    0.332765
    41  C   -0.043730
    42  H    0.144715
    43  C    0.554174
    44  C   -0.255790
    45  H    0.124014
    46  H    0.135473
    47  O   -0.589214
    48  C   -0.273600
    49  H    0.137929
    50  H    0.213224
    51  C   -0.286296
    52  H    0.136879
    53  H    0.160764
    54  C   -0.232502
    55  H    0.240260
    56  H    0.225276
    57  N   -0.712326
    58  H    0.430266
    59  H    0.427626
    60  H    0.420955
    61  O   -0.615116
    62  H    0.455310
 Sum of Mulliken charges =   1.00000

 Dipole moment (field-independent basis, Debye):
    X=             31.9291    Y=             30.2041    Z=            -26.3684  Tot=             51.2547
 Quadrupole moment (field-independent basis, Debye-Ang):
   XX=            -25.5044   YY=           -113.9988   ZZ=            -25.0267
   XY=             73.1680   XZ=            -52.9897   YZ=           -119.2811

 Normal termination of Gaussian 16 at Thu Jun 23 14:08:14 2022.
