 Gaussian 16, Revision C.01,
 Gaussian 16:  ES64L-G16RevC.01  3-Jul-2019

 ----------------------------------------------------------------------
 # B3LYP/6-31G* empiricaldispersion=gd3bj guess=read geom=check nosymm
 integral(ultrafinegrid)
 ----------------------------------------------------------------------

 ------------------------------------------------------
 Candidate Structure: Conf:472 Charge calc in gas phase
 ------------------------------------------------------
 Structure from the checkpoint file:  "conf-472.chk"
 Charge =  1 Multiplicity = 1

                          Input orientation:
 ---------------------------------------------------------------------
 Center     Atomic      Atomic             Coordinates (Angstroms)
 Number     Number       Type             X           Y           Z
 ---------------------------------------------------------------------
      1          7           0        0.636397   -1.137835    2.667145
      2          1           0        1.783352    0.076040    2.108019
      3          1           0        0.469814   -1.352818    3.648244
      4          1           0        0.987671   -1.981351    2.211074
      5          6           0       -0.611756   -0.739713    1.994515
      6          1           0       -0.912834    0.233155    2.401805
      7          6           0       -0.285201   -0.602676    0.507236
      8          6           0       -1.793978   -1.719281    2.067062
      9          1           0       -1.468686   -2.700327    1.708764
     10          1           0       -2.539428   -1.368398    1.345695
     11          8           0        0.504169   -1.365579   -0.041016
     12          6           0       -2.496731   -1.864492    3.433473
     13          1           0       -2.667407   -0.890657    3.900076
     14          1           0       -1.925575   -2.502578    4.114875
     15          6           0       -3.841903   -2.476949    3.111265
     16          8           0       -4.873172   -1.838567    2.996210
     17          8           0       -3.732971   -3.779529    2.804184
     18          7           0       -0.919896    0.402704   -0.155383
     19          1           0       -1.706957    0.846937    0.296916
     20          6           0       -0.818281    0.502013   -1.612910
     21          1           0       -1.302454    1.448514   -1.876208
     22          6           0        0.680917    0.616218   -1.989932
     23          6           0       -1.492046   -0.670005   -2.382923
     24          1           0       -1.848819   -0.275166   -3.340964
     25          1           0       -0.721470   -1.403346   -2.622509
     26          8           0        1.149497    0.088153   -2.981922
     27          6           0       -2.611416   -1.343108   -1.619847
     28          6           0       -2.541784   -2.713599   -1.342125
     29          1           0       -1.688840   -3.282400   -1.700847
     30          6           0       -3.718887   -0.636481   -1.129675
     31          1           0       -3.823136    0.425174   -1.346037
     32          6           0       -3.524344   -3.360565   -0.594342
     33          1           0       -3.450571   -4.419976   -0.371873
     34          6           0       -4.700260   -1.262302   -0.361440
     35          1           0       -5.542158   -0.695048    0.025435
     36          8           0       -5.519584   -3.285998    0.700783
     37          1           0       -5.904591   -2.637115    1.321386
     38          6           0       -4.596540   -2.629690   -0.083024
     39          7           0        1.434385    1.370189   -1.109260
     40          1           0        0.944807    1.624228   -0.258817
     41          6           0        2.802780    0.945651   -0.853148
     42          1           0        3.030869    0.160751   -1.579478
     43          6           0        2.925145    0.293984    0.534181
     44          6           0        3.825322    2.082302   -1.034413
     45          1           0        3.718210    2.457113   -2.058604
     46          1           0        3.592275    2.913996   -0.358424
     47          8           0        3.773237   -0.539147    0.787522
     48          6           0        5.256344    1.589833   -0.789302
     49          1           0        5.365875    0.633834   -1.323587
     50          1           0        5.382243    1.359055    0.276011
     51          6           0        6.339042    2.576126   -1.240702
     52          1           0        6.345531    2.677091   -2.333775
     53          1           0        6.137401    3.577000   -0.841228
     54          6           0        7.724918    2.185731   -0.739697
     55          1           0        8.529665    2.783650   -1.172113
     56          1           0        7.790904    2.224461    0.350143
     57          7           0        8.027839    0.730826   -1.107236
     58          1           0        8.948968    0.429489   -0.769842
     59          1           0        8.003034    0.592429   -2.124830
     60          1           0        7.316796    0.108501   -0.700393
     61          8           0        2.035713    0.773478    1.410401
     62          1           0       -4.539126   -4.025841    2.297229
 ---------------------------------------------------------------------

 SCF Done:  E(RB3LYP) =  -1526.33216143     A.U. after    3 cycles

 Alpha  occ. eigenvalues --  -19.25592 -19.25393 -19.24169 -19.21493 -19.20826
 Alpha  occ. eigenvalues --  -19.20648 -19.19337 -14.64655 -14.45151 -14.43002
 Alpha  occ. eigenvalues --  -14.42653 -10.42066 -10.39636 -10.39052 -10.37476
 Alpha  occ. eigenvalues --  -10.36397 -10.34577 -10.32142 -10.31866 -10.31848
 Alpha  occ. eigenvalues --  -10.31815 -10.31254 -10.29740 -10.27677 -10.27393
 Alpha  occ. eigenvalues --  -10.25957 -10.25860 -10.25617 -10.25542 -10.25348
 Alpha  occ. eigenvalues --  -10.25042  -1.18696  -1.17055  -1.16995  -1.12985
 Alpha  occ. eigenvalues --   -1.11874  -1.11098  -1.08574  -1.08024  -1.01982
 Alpha  occ. eigenvalues --   -0.99914  -0.99098  -0.95857  -0.91963  -0.89669
 Alpha  occ. eigenvalues --   -0.87871  -0.85676  -0.83536  -0.81419  -0.81322
 Alpha  occ. eigenvalues --   -0.78957  -0.77870  -0.77166  -0.75834  -0.73196
 Alpha  occ. eigenvalues --   -0.72290  -0.70657  -0.68841  -0.68241  -0.67472
 Alpha  occ. eigenvalues --   -0.66842  -0.66543  -0.65633  -0.64165  -0.62494
 Alpha  occ. eigenvalues --   -0.62204  -0.60772  -0.60578  -0.58961  -0.58208
 Alpha  occ. eigenvalues --   -0.57657  -0.57205  -0.56388  -0.55579  -0.55150
 Alpha  occ. eigenvalues --   -0.54532  -0.54268  -0.53892  -0.53597  -0.53073
 Alpha  occ. eigenvalues --   -0.52846  -0.51950  -0.51131  -0.50858  -0.50563
 Alpha  occ. eigenvalues --   -0.49962  -0.49256  -0.48810  -0.48676  -0.48208
 Alpha  occ. eigenvalues --   -0.48079  -0.47724  -0.47365  -0.47121  -0.46019
 Alpha  occ. eigenvalues --   -0.45692  -0.45109  -0.44699  -0.44158  -0.43643
 Alpha  occ. eigenvalues --   -0.43284  -0.43059  -0.42248  -0.41555  -0.40084
 Alpha  occ. eigenvalues --   -0.38927  -0.38729  -0.38273  -0.36705  -0.36131
 Alpha  occ. eigenvalues --   -0.35453  -0.34611  -0.33719  -0.32548  -0.32327
 Alpha  occ. eigenvalues --   -0.31683  -0.28728
 Alpha virt. eigenvalues --   -0.14900  -0.08516  -0.08439  -0.07842  -0.07114
 Alpha virt. eigenvalues --   -0.06891  -0.06463  -0.05805  -0.05245  -0.04977
 Alpha virt. eigenvalues --   -0.03124  -0.01890  -0.01359  -0.01012  -0.00233

 Mulliken charges:
               1
     1  N   -0.774317
     2  H    0.455943
     3  H    0.332994
     4  H    0.349920
     5  C   -0.066967
     6  H    0.153486
     7  C    0.645028
     8  C   -0.306759
     9  H    0.185460
    10  H    0.183350
    11  O   -0.535759
    12  C   -0.326298
    13  H    0.170773
    14  H    0.169757
    15  C    0.577515
    16  O   -0.485976
    17  O   -0.569812
    18  N   -0.626621
    19  H    0.340895
    20  C   -0.051816
    21  H    0.175041
    22  C    0.610668
    23  C   -0.361979
    24  H    0.170602
    25  H    0.197206
    26  O   -0.498919
    27  C    0.173323
    28  C   -0.195537
    29  H    0.148321
    30  C   -0.216430
    31  H    0.124775
    32  C   -0.156383
    33  H    0.149117
    34  C   -0.176911
    35  H    0.147140
    36  O   -0.682086
    37  H    0.431990
    38  C    0.344355
    39  N   -0.597970
    40  H    0.350852
    41  C   -0.053576
    42  H    0.200866
    43  C    0.610345
    44  C   -0.270869
    45  H    0.174032
    46  H    0.162993
    47  O   -0.494723
    48  C   -0.313865
    49  H    0.136218
    50  H    0.174181
    51  C   -0.288909
    52  H    0.178975
    53  H    0.206583
    54  C   -0.209452
    55  H    0.227691
    56  H    0.230515
    57  N   -0.734049
    58  H    0.430844
    59  H    0.426883
    60  H    0.440089
    61  O   -0.626921
    62  H    0.434178
 Sum of Mulliken charges =   1.00000

 Dipole moment (field-independent basis, Debye):
    X=             28.3773    Y=              5.8934    Z=             -0.4836  Tot=             28.9868
 Quadrupole moment (field-independent basis, Debye-Ang):
   XX=             89.4816   YY=           -163.7016   ZZ=           -169.7436
   XY=             37.1623   XZ=            -36.8701   YZ=            -12.6115

 Normal termination of Gaussian 16 at Thu Jun 23 14:08:17 2022.
