 Gaussian 16, Revision C.01,
 Gaussian 16:  ES64L-G16RevC.01  3-Jul-2019

 ----------------------------------------------------------------------
 # B3LYP/6-31G* empiricaldispersion=gd3bj guess=read geom=check nosymm
 integral(ultrafinegrid)
 ----------------------------------------------------------------------

 ------------------------------------------------------
 Candidate Structure: Conf:578 Charge calc in gas phase
 ------------------------------------------------------
 Structure from the checkpoint file:  "conf-578.chk"
 Charge =  1 Multiplicity = 1

                          Input orientation:
 ---------------------------------------------------------------------
 Center     Atomic      Atomic             Coordinates (Angstroms)
 Number     Number       Type             X           Y           Z
 ---------------------------------------------------------------------
      1          7           0        1.456116   -1.407170    2.863549
      2          1           0        2.099826   -0.629031    2.673885
      3          1           0        0.790726   -1.246412    4.532435
      4          1           0        1.863775   -2.231546    2.421654
      5          6           0        0.177397   -1.106517    2.215734
      6          1           0       -0.201442   -0.190331    2.682780
      7          6           0        0.333450   -0.885520    0.711183
      8          6           0       -0.841746   -2.245217    2.438257
      9          1           0       -0.600453   -3.069039    1.755296
     10          1           0       -1.837760   -1.880201    2.160663
     11          8           0        1.066379   -1.580713    0.016466
     12          6           0       -0.874241   -2.795562    3.878371
     13          1           0        0.044564   -3.358776    4.072289
     14          1           0       -1.720130   -3.478816    3.980328
     15          6           0       -1.030726   -1.706768    4.940443
     16          8           0        0.079278   -0.988638    5.188093
     17          8           0       -2.075224   -1.486352    5.510880
     18          7           0       -0.422094    0.123090    0.167628
     19          1           0       -0.985668    0.698722    0.777053
     20          6           0       -0.319377    0.460372   -1.245355
     21          1           0       -0.891764    1.384561   -1.387991
     22          6           0        1.154128    0.746855   -1.642658
     23          6           0       -0.921475   -0.655698   -2.134674
     24          1           0       -0.240240   -1.506560   -2.108068
     25          1           0       -1.863237   -0.963431   -1.668260
     26          8           0        1.601713    0.399759   -2.733756
     27          6           0       -1.195342   -0.229792   -3.554475
     28          6           0       -0.314707   -0.576002   -4.593257
     29          1           0        0.590525   -1.119203   -4.357309
     30          6           0       -2.344415    0.513891   -3.855988
     31          1           0       -3.037665    0.778958   -3.063302
     32          6           0       -0.569041   -0.197510   -5.909637
     33          1           0        0.110727   -0.465382   -6.712989
     34          6           0       -2.631392    0.924009   -5.161610
     35          1           0       -3.516019    1.500167   -5.407083
     36          8           0       -2.038531    0.984023   -7.530377
     37          1           0       -2.194353    0.232839   -8.143008
     38          6           0       -1.719894    0.539531   -6.118470
     39          7           0        1.847143    1.438037   -0.710987
     40          1           0        1.448049    1.472698    0.227456
     41          6           0        3.294797    1.348509   -0.604493
     42          1           0        3.642069    0.573170   -1.293442
     43          6           0        3.599628    0.828966    0.871703
     44          6           0        4.010341    2.688830   -0.982086
     45          1           0        4.108424    2.747435   -2.071546
     46          1           0        3.408261    3.541388   -0.651020
     47          8           0        4.745498    0.328746    1.120079
     48          6           0        5.335752    2.599170   -0.242033
     49          1           0        5.624104    1.563418   -0.408950
     50          1           0        5.045470    2.669520    0.810833
     51          6           0        6.644885    3.369845   -0.334990
     52          1           0        7.196513    3.152162   -1.257080
     53          1           0        6.543234    4.458207   -0.259974
     54          6           0        7.431016    2.893008    0.910388
     55          1           0        8.509465    3.051384    0.835135
     56          1           0        7.062500    3.405366    1.801904
     57          7           0        7.221551    1.403053    1.206107
     58          1           0        7.674426    1.157295    2.090809
     59          1           0        7.653595    0.822857    0.480754
     60          1           0        6.178539    1.057675    1.259138
     61          8           0        2.652389    0.937995    1.678174
     62          1           0       -1.353617    1.577773   -7.907479
 ---------------------------------------------------------------------

 SCF Done:  E(RB3LYP) =  -1526.21057438     A.U. after    2 cycles

 Alpha  occ. eigenvalues --  -19.48708 -19.19097 -19.18556 -19.18452 -19.15960
 Alpha  occ. eigenvalues --  -19.15790 -19.14416 -14.54573 -14.44069 -14.40866
 Alpha  occ. eigenvalues --  -14.37452 -10.42003 -10.35765 -10.35507 -10.35303
 Alpha  occ. eigenvalues --  -10.34633 -10.34598 -10.34110 -10.33100 -10.32761
 Alpha  occ. eigenvalues --  -10.32669 -10.32474 -10.32208 -10.29549 -10.28367
 Alpha  occ. eigenvalues --  -10.28351 -10.28327 -10.26361 -10.26032 -10.25083
 Alpha  occ. eigenvalues --  -10.23478  -1.34472  -1.11066  -1.10313  -1.09863
 Alpha  occ. eigenvalues --   -1.09378  -1.08573  -1.02302  -1.01063  -1.00779
 Alpha  occ. eigenvalues --   -1.00284  -0.97702  -0.94816  -0.91927  -0.90288
 Alpha  occ. eigenvalues --   -0.89677  -0.85659  -0.84532  -0.84319  -0.83278
 Alpha  occ. eigenvalues --   -0.80134  -0.77853  -0.76327  -0.75454  -0.73656
 Alpha  occ. eigenvalues --   -0.71377  -0.70191  -0.68741  -0.67962  -0.67279
 Alpha  occ. eigenvalues --   -0.65722  -0.65236  -0.65165  -0.63575  -0.61756
 Alpha  occ. eigenvalues --   -0.61486  -0.59755  -0.59718  -0.59352  -0.58404
 Alpha  occ. eigenvalues --   -0.57780  -0.57394  -0.56864  -0.56544  -0.54978
 Alpha  occ. eigenvalues --   -0.54410  -0.53604  -0.52995  -0.52118  -0.51737
 Alpha  occ. eigenvalues --   -0.51392  -0.50369  -0.50037  -0.49327  -0.49154
 Alpha  occ. eigenvalues --   -0.48811  -0.48311  -0.47669  -0.47512  -0.47418
 Alpha  occ. eigenvalues --   -0.46920  -0.46282  -0.45611  -0.45137  -0.44977
 Alpha  occ. eigenvalues --   -0.44537  -0.44247  -0.43423  -0.42084  -0.41850
 Alpha  occ. eigenvalues --   -0.41594  -0.40383  -0.39704  -0.39588  -0.39314
 Alpha  occ. eigenvalues --   -0.38638  -0.37853  -0.34954  -0.33455  -0.32963
 Alpha  occ. eigenvalues --   -0.32029  -0.31771  -0.31287  -0.30612  -0.29782
 Alpha  occ. eigenvalues --   -0.29036  -0.28042
 Alpha virt. eigenvalues --   -0.17871  -0.15132  -0.14096  -0.08955  -0.08189
 Alpha virt. eigenvalues --   -0.06919  -0.05433  -0.04612  -0.02231  -0.01174
 Alpha virt. eigenvalues --   -0.00845  -0.00029   0.00143   0.00719   0.01385

 Mulliken charges:
               1
     1  N   -0.786786
     2  H    0.379421
     3  H    0.447359
     4  H    0.321194
     5  C   -0.078228
     6  H    0.161066
     7  C    0.628579
     8  C   -0.281091
     9  H    0.159077
    10  H    0.149821
    11  O   -0.530823
    12  C   -0.359677
    13  H    0.162555
    14  H    0.173419
    15  C    0.575914
    16  O   -0.598055
    17  O   -0.461083
    18  N   -0.630069
    19  H    0.340977
    20  C   -0.048942
    21  H    0.161007
    22  C    0.622487
    23  C   -0.359744
    24  H    0.213263
    25  H    0.165773
    26  O   -0.548484
    27  C    0.195056
    28  C   -0.143831
    29  H    0.210301
    30  C   -0.196977
    31  H    0.175401
    32  C   -0.145843
    33  H    0.175082
    34  C   -0.109595
    35  H    0.192826
    36  O   -0.629145
    37  H    0.509500
    38  C    0.183592
    39  N   -0.595441
    40  H    0.353388
    41  C   -0.062219
    42  H    0.178048
    43  C    0.610048
    44  C   -0.264268
    45  H    0.150307
    46  H    0.150753
    47  O   -0.629058
    48  C   -0.308601
    49  H    0.155179
    50  H    0.157878
    51  C   -0.274737
    52  H    0.160520
    53  H    0.177621
    54  C   -0.187500
    55  H    0.194356
    56  H    0.213361
    57  N   -0.775839
    58  H    0.399992
    59  H    0.396040
    60  H    0.459838
    61  O   -0.564311
    62  H    0.509346
 Sum of Mulliken charges =   1.00000

 Dipole moment (field-independent basis, Debye):
    X=              9.9271    Y=              8.2840    Z=            -30.4647  Tot=             33.0949
 Quadrupole moment (field-independent basis, Debye-Ang):
   XX=            -19.9696   YY=           -157.3824   ZZ=            -12.1995
   XY=             29.9401   XZ=             81.4095   YZ=            -14.5338

 Normal termination of Gaussian 16 at Thu Jun 23 14:08:05 2022.
