 Gaussian 16, Revision C.01,
 Gaussian 16:  ES64L-G16RevC.01  3-Jul-2019

 ----------------------------------------------------------------------
 # B3LYP/6-31G* empiricaldispersion=gd3bj guess=read geom=check nosymm
 integral(ultrafinegrid)
 ----------------------------------------------------------------------

 ------------------------------------------------------
 Candidate Structure: Conf:549 Charge calc in gas phase
 ------------------------------------------------------
 Structure from the checkpoint file:  "conf-549.chk"
 Charge =  1 Multiplicity = 1

                          Input orientation:
 ---------------------------------------------------------------------
 Center     Atomic      Atomic             Coordinates (Angstroms)
 Number     Number       Type             X           Y           Z
 ---------------------------------------------------------------------
      1          7           0        1.360597   -1.222275    3.107892
      2          1           0        1.919109   -0.370131    2.974906
      3          1           0        0.542783   -1.162141    4.714598
      4          1           0        1.900659   -1.986161    2.700610
      5          6           0        0.114017   -1.069833    2.354234
      6          1           0       -0.410551   -0.211261    2.788622
      7          6           0        0.368658   -0.814375    0.868708
      8          6           0       -0.775269   -2.325326    2.487781
      9          1           0       -0.379964   -3.105945    1.826187
     10          1           0       -1.781355   -2.079377    2.127732
     11          8           0        1.236228   -1.408501    0.238263
     12          6           0       -0.861322   -2.892810    3.919001
     13          1           0        0.099531   -3.343241    4.188976
     14          1           0       -1.623612   -3.674378    3.947820
     15          6           0       -1.237196   -1.843739    4.965942
     16          8           0       -0.247303   -0.999704    5.307780
     17          8           0       -2.344827   -1.757936    5.446305
     18          7           0       -0.454573    0.102183    0.263896
     19          1           0       -1.132786    0.599049    0.823824
     20          6           0       -0.274387    0.465551   -1.134833
     21          1           0       -0.942009    1.314109   -1.325352
     22          6           0        1.180990    0.935107   -1.404146
     23          6           0       -0.656948   -0.706038   -2.073120
     24          1           0        0.120605   -1.465898   -1.991023
     25          1           0       -1.588049   -1.133951   -1.687051
     26          8           0        1.758398    0.659286   -2.453821
     27          6           0       -0.864303   -0.301038   -3.510224
     28          6           0       -2.071115    0.291647   -3.906136
     29          1           0       -2.856485    0.454799   -3.174163
     30          6           0        0.137235   -0.517396   -4.471799
     31          1           0        1.082553   -0.941795   -4.161292
     32          6           0       -2.299346    0.677483   -5.230608
     33          1           0       -3.227859    1.137313   -5.548724
     34          6           0       -0.053729   -0.158405   -5.804294
     35          1           0        0.719519   -0.326110   -6.548059
     36          8           0       -1.524477    0.842985   -7.541090
     37          1           0       -1.529386    0.085536   -8.165685
     38          6           0       -1.269190    0.426103   -6.108015
     39          7           0        1.702728    1.693870   -0.415139
     40          1           0        1.224786    1.667291    0.485970
     41          6           0        3.136220    1.780708   -0.185681
     42          1           0        3.633433    1.064789   -0.846395
     43          6           0        3.377049    1.280462    1.308739
     44          6           0        3.710318    3.204633   -0.492803
     45          1           0        3.892864    3.292378   -1.569349
     46          1           0        2.981541    3.971500   -0.210371
     47          8           0        4.550195    0.917694    1.650978
     48          6           0        4.968759    3.266138    0.358743
     49          1           0        5.396102    2.276440    0.211468
     50          1           0        4.583246    3.283160    1.382878
     51          6           0        6.175882    4.192858    0.384207
     52          1           0        6.826806    4.059708   -0.487861
     53          1           0        5.934531    5.259159    0.456541
     54          6           0        6.905664    3.795294    1.690181
     55          1           0        7.958703    4.086030    1.709752
     56          1           0        6.401871    4.243631    2.549429
     57          7           0        6.857611    2.286191    1.957581
     58          1           0        7.260525    2.083119    2.876609
     59          1           0        7.418225    1.775602    1.268788
     60          1           0        5.864546    1.814462    1.918175
     61          8           0        2.359768    1.264978    2.032934
     62          1           0       -0.893872    1.525259   -7.858413
 ---------------------------------------------------------------------

 SCF Done:  E(RB3LYP) =  -1526.21057548     A.U. after    1 cycles

 Alpha  occ. eigenvalues --  -19.48709 -19.19099 -19.18558 -19.18456 -19.15964
 Alpha  occ. eigenvalues --  -19.15789 -19.14417 -14.54567 -14.44071 -14.40873
 Alpha  occ. eigenvalues --  -14.37454 -10.42006 -10.35760 -10.35511 -10.35305
 Alpha  occ. eigenvalues --  -10.34635 -10.34600 -10.34109 -10.33101 -10.32762
 Alpha  occ. eigenvalues --  -10.32672 -10.32477 -10.32204 -10.29546 -10.28364
 Alpha  occ. eigenvalues --  -10.28352 -10.28330 -10.26361 -10.26034 -10.25085
 Alpha  occ. eigenvalues --  -10.23479  -1.34473  -1.11067  -1.10315  -1.09867
 Alpha  occ. eigenvalues --   -1.09376  -1.08570  -1.02303  -1.01064  -1.00781
 Alpha  occ. eigenvalues --   -1.00286  -0.97705  -0.94819  -0.91927  -0.90286
 Alpha  occ. eigenvalues --   -0.89678  -0.85658  -0.84531  -0.84319  -0.83279
 Alpha  occ. eigenvalues --   -0.80135  -0.77851  -0.76328  -0.75455  -0.73656
 Alpha  occ. eigenvalues --   -0.71377  -0.70192  -0.68737  -0.67957  -0.67279
 Alpha  occ. eigenvalues --   -0.65722  -0.65237  -0.65164  -0.63580  -0.61755
 Alpha  occ. eigenvalues --   -0.61489  -0.59758  -0.59717  -0.59352  -0.58408
 Alpha  occ. eigenvalues --   -0.57776  -0.57396  -0.56864  -0.56545  -0.54976
 Alpha  occ. eigenvalues --   -0.54414  -0.53602  -0.52999  -0.52117  -0.51737
 Alpha  occ. eigenvalues --   -0.51390  -0.50369  -0.50037  -0.49328  -0.49151
 Alpha  occ. eigenvalues --   -0.48811  -0.48312  -0.47671  -0.47514  -0.47418
 Alpha  occ. eigenvalues --   -0.46918  -0.46285  -0.45610  -0.45136  -0.44977
 Alpha  occ. eigenvalues --   -0.44537  -0.44249  -0.43424  -0.42086  -0.41850
 Alpha  occ. eigenvalues --   -0.41587  -0.40385  -0.39707  -0.39591  -0.39317
 Alpha  occ. eigenvalues --   -0.38640  -0.37855  -0.34961  -0.33460  -0.32969
 Alpha  occ. eigenvalues --   -0.32031  -0.31773  -0.31290  -0.30615  -0.29783
 Alpha  occ. eigenvalues --   -0.29034  -0.28044
 Alpha virt. eigenvalues --   -0.17872  -0.15135  -0.14099  -0.08956  -0.08190
 Alpha virt. eigenvalues --   -0.06915  -0.05434  -0.04616  -0.02232  -0.01170
 Alpha virt. eigenvalues --   -0.00846  -0.00031   0.00147   0.00713   0.01385

 Mulliken charges:
               1
     1  N   -0.786769
     2  H    0.379364
     3  H    0.447341
     4  H    0.321241
     5  C   -0.078219
     6  H    0.161066
     7  C    0.628611
     8  C   -0.281110
     9  H    0.159090
    10  H    0.149820
    11  O   -0.530822
    12  C   -0.359659
    13  H    0.162566
    14  H    0.173409
    15  C    0.575912
    16  O   -0.598044
    17  O   -0.461083
    18  N   -0.630226
    19  H    0.340971
    20  C   -0.048780
    21  H    0.161074
    22  C    0.622387
    23  C   -0.359797
    24  H    0.213448
    25  H    0.165746
    26  O   -0.548421
    27  C    0.194522
    28  C   -0.196928
    29  H    0.175460
    30  C   -0.143993
    31  H    0.210652
    32  C   -0.109611
    33  H    0.192853
    34  C   -0.145880
    35  H    0.175114
    36  O   -0.629135
    37  H    0.509504
    38  C    0.183637
    39  N   -0.595366
    40  H    0.353361
    41  C   -0.062108
    42  H    0.178023
    43  C    0.609956
    44  C   -0.264298
    45  H    0.150328
    46  H    0.150803
    47  O   -0.629110
    48  C   -0.308789
    49  H    0.155215
    50  H    0.158007
    51  C   -0.274766
    52  H    0.160534
    53  H    0.177649
    54  C   -0.187488
    55  H    0.194348
    56  H    0.213376
    57  N   -0.775829
    58  H    0.399972
    59  H    0.396022
    60  H    0.459783
    61  O   -0.564282
    62  H    0.509346
 Sum of Mulliken charges =   1.00000

 Dipole moment (field-independent basis, Debye):
    X=             11.2739    Y=              9.9327    Z=            -28.8314  Tot=             32.5117
 Quadrupole moment (field-independent basis, Debye-Ang):
   XX=            -43.2996   YY=           -147.4191   ZZ=             -6.1830
   XY=             45.2930   XZ=             82.7886   YZ=             -1.8161

 Normal termination of Gaussian 16 at Thu Jun 23 14:07:56 2022.
