 Gaussian 16, Revision C.01,
 Gaussian 16:  ES64L-G16RevC.01  3-Jul-2019

 ----------------------------------------------------------------------
 # B3LYP/6-31G* empiricaldispersion=gd3bj guess=read geom=check nosymm
 integral(ultrafinegrid)
 ----------------------------------------------------------------------

 ------------------------------------------------------
 Candidate Structure: Conf:123 Charge calc in gas phase
 ------------------------------------------------------
 Structure from the checkpoint file:  "conf-123.chk"
 Charge =  1 Multiplicity = 1

                          Input orientation:
 ---------------------------------------------------------------------
 Center     Atomic      Atomic             Coordinates (Angstroms)
 Number     Number       Type             X           Y           Z
 ---------------------------------------------------------------------
      1          7           0        0.390093   -1.313182    3.014970
      2          1           0        1.551135   -0.061658    2.449237
      3          1           0        0.190540   -1.500139    3.995520
      4          1           0        0.788086   -2.159566    2.605047
      5          6           0       -0.838116   -0.975134    2.280509
      6          1           0       -1.172586    0.010000    2.628787
      7          6           0       -0.470643   -0.900768    0.798151
      8          6           0       -2.008170   -1.970144    2.361379
      9          1           0       -1.656583   -2.963565    2.067968
     10          1           0       -2.732457   -1.668558    1.597503
     11          8           0        0.326960   -1.685829    0.296288
     12          6           0       -2.754935   -2.050882    3.710355
     13          1           0       -2.933725   -1.056168    4.127278
     14          1           0       -2.208396   -2.659482    4.437223
     15          6           0       -4.093848   -2.669434    3.377096
     16          8           0       -3.986030   -3.983478    3.123897
     17          8           0       -5.118906   -2.031103    3.210533
     18          7           0       -1.089866    0.079006    0.080388
     19          1           0       -1.881728    0.544576    0.501318
     20          6           0       -0.965224    0.120974   -1.376632
     21          1           0       -1.465663    1.045077   -1.686343
     22          6           0        0.533658    0.245564   -1.748750
     23          6           0       -1.607643   -1.093155   -2.109242
     24          1           0       -1.925387   -0.751067   -3.100767
     25          1           0       -0.829604   -1.838232   -2.277577
     26          8           0        0.993414   -0.247485   -2.767510
     27          6           0       -2.754821   -1.726968   -1.353969
     28          6           0       -2.707152   -3.087353   -1.026635
     29          1           0       -1.851468   -3.677264   -1.342221
     30          6           0       -3.865796   -0.991964   -0.916552
     31          1           0       -3.952410    0.062828   -1.171137
     32          6           0       -3.714013   -3.696778   -0.279936
     33          1           0       -3.655835   -4.747629   -0.016304
     34          6           0       -4.871545   -1.579560   -0.149980
     35          1           0       -5.715072   -0.990158    0.198113
     36          8           0       -5.735152   -3.552822    0.968989
     37          1           0       -6.109115   -2.880059    1.571635
     38          6           0       -4.789020   -2.936824    0.180762
     39          7           0        1.299828    0.952291   -0.848449
     40          1           0        0.806646    1.212754   -0.001517
     41          6           0        2.641290    0.447745   -0.551387
     42          1           0        2.774076   -0.476630   -1.121713
     43          6           0        2.751889    0.021780    0.920858
     44          6           0        3.759234    1.415934   -0.958445
     45          1           0        3.639037    2.369672   -0.428503
     46          1           0        4.715993    0.980550   -0.646063
     47          8           0        3.610684   -0.738169    1.303431
     48          6           0        3.736246    1.641521   -2.471977
     49          1           0        2.778543    2.094793   -2.751632
     50          1           0        3.772424    0.671395   -2.982127
     51          6           0        4.896629    2.522816   -2.954238
     52          1           0        4.846709    3.507883   -2.469662
     53          1           0        5.852945    2.063834   -2.666621
     54          6           0        4.837019    2.683466   -4.464324
     55          1           0        4.913182    1.727364   -4.987052
     56          1           0        3.932412    3.198198   -4.795668
     57          7           0        6.011695    3.530380   -4.966407
     58          1           0        5.997613    3.653412   -5.986145
     59          1           0        6.907145    3.094011   -4.715002
     60          1           0        5.998962    4.463310   -4.536676
     61          8           0        1.801631    0.569248    1.698807
     62          1           0       -4.782783   -4.246993    2.611308
 ---------------------------------------------------------------------

 SCF Done:  E(RB3LYP) =  -1526.32865323     A.U. after    3 cycles

 Alpha  occ. eigenvalues --  -19.25363 -19.24242 -19.23936 -19.20599 -19.20306
 Alpha  occ. eigenvalues --  -19.19872 -19.19566 -14.65413 -14.44868 -14.42286
 Alpha  occ. eigenvalues --  -14.42029 -10.42126 -10.38803 -10.38235 -10.37123
 Alpha  occ. eigenvalues --  -10.36481 -10.34514 -10.31882 -10.31275 -10.31126
 Alpha  occ. eigenvalues --  -10.31009 -10.30213 -10.28494 -10.27284 -10.26944
 Alpha  occ. eigenvalues --  -10.25914 -10.25815 -10.25685 -10.25524 -10.25267
 Alpha  occ. eigenvalues --  -10.24928  -1.19292  -1.16825  -1.15675  -1.12630
 Alpha  occ. eigenvalues --   -1.11671  -1.11108  -1.07775  -1.07277  -1.01730
 Alpha  occ. eigenvalues --   -0.99513  -0.98314  -0.95683  -0.91891  -0.88638
 Alpha  occ. eigenvalues --   -0.87398  -0.85510  -0.83072  -0.81242  -0.81148
 Alpha  occ. eigenvalues --   -0.78876  -0.78245  -0.77891  -0.75255  -0.73066
 Alpha  occ. eigenvalues --   -0.70926  -0.69978  -0.68662  -0.67686  -0.67097
 Alpha  occ. eigenvalues --   -0.66559  -0.66278  -0.65429  -0.63833  -0.63098
 Alpha  occ. eigenvalues --   -0.61910  -0.60601  -0.60100  -0.58671  -0.57206
 Alpha  occ. eigenvalues --   -0.56853  -0.56603  -0.55992  -0.54948  -0.54199
 Alpha  occ. eigenvalues --   -0.54008  -0.53769  -0.53455  -0.52894  -0.52727
 Alpha  occ. eigenvalues --   -0.52245  -0.51810  -0.51025  -0.50432  -0.49947
 Alpha  occ. eigenvalues --   -0.49622  -0.48921  -0.48546  -0.48381  -0.47679
 Alpha  occ. eigenvalues --   -0.47511  -0.47169  -0.46915  -0.46024  -0.45687
 Alpha  occ. eigenvalues --   -0.44941  -0.44391  -0.44053  -0.43583  -0.43294
 Alpha  occ. eigenvalues --   -0.42746  -0.42673  -0.41903  -0.41449  -0.40016
 Alpha  occ. eigenvalues --   -0.38730  -0.38041  -0.37552  -0.35737  -0.35592
 Alpha  occ. eigenvalues --   -0.34811  -0.34294  -0.33320  -0.32607  -0.31811
 Alpha  occ. eigenvalues --   -0.31567  -0.28635
 Alpha virt. eigenvalues --   -0.15803  -0.09112  -0.09080  -0.07868  -0.06872
 Alpha virt. eigenvalues --   -0.06638  -0.06617  -0.05915  -0.05145  -0.04481
 Alpha virt. eigenvalues --   -0.03021  -0.01688  -0.01097  -0.00528   0.00254

 Mulliken charges:
               1
     1  N   -0.770608
     2  H    0.455818
     3  H    0.332430
     4  H    0.350305
     5  C   -0.064557
     6  H    0.151067
     7  C    0.642881
     8  C   -0.306665
     9  H    0.185614
    10  H    0.181468
    11  O   -0.534548
    12  C   -0.326368
    13  H    0.170609
    14  H    0.172503
    15  C    0.577260
    16  O   -0.568292
    17  O   -0.488455
    18  N   -0.626310
    19  H    0.340019
    20  C   -0.048978
    21  H    0.169094
    22  C    0.606168
    23  C   -0.357939
    24  H    0.165896
    25  H    0.194567
    26  O   -0.517564
    27  C    0.174474
    28  C   -0.195807
    29  H    0.148691
    30  C   -0.215569
    31  H    0.121101
    32  C   -0.155857
    33  H    0.150156
    34  C   -0.175925
    35  H    0.146439
    36  O   -0.682975
    37  H    0.432202
    38  C    0.343962
    39  N   -0.605059
    40  H    0.359477
    41  C   -0.060158
    42  H    0.205299
    43  C    0.599357
    44  C   -0.268386
    45  H    0.149365
    46  H    0.166933
    47  O   -0.459796
    48  C   -0.270645
    49  H    0.176006
    50  H    0.175090
    51  C   -0.293817
    52  H    0.166691
    53  H    0.168114
    54  C   -0.206988
    55  H    0.234494
    56  H    0.231341
    57  N   -0.731500
    58  H    0.431861
    59  H    0.428099
    60  H    0.427136
    61  O   -0.632573
    62  H    0.433353
 Sum of Mulliken charges =   1.00000

 Dipole moment (field-independent basis, Debye):
    X=             19.7897    Y=             15.5897    Z=            -16.7927  Tot=             30.2765
 Quadrupole moment (field-independent basis, Debye-Ang):
   XX=            -33.0544   YY=           -121.0823   ZZ=            -69.0706
   XY=             91.3344   XZ=           -128.7664   YZ=            -82.1466

 Normal termination of Gaussian 16 at Thu Jun 23 14:08:21 2022.
