 Gaussian 16, Revision C.01,
 Gaussian 16:  ES64L-G16RevC.01  3-Jul-2019

 ----------------------------------------------------------------------
 # B3LYP/6-31G* empiricaldispersion=gd3bj guess=read geom=check nosymm
 integral(ultrafinegrid)
 ----------------------------------------------------------------------

 ------------------------------------------------------
 Candidate Structure: Conf:772 Charge calc in gas phase
 ------------------------------------------------------
 Structure from the checkpoint file:  "conf-772.chk"
 Charge =  1 Multiplicity = 1

                          Input orientation:
 ---------------------------------------------------------------------
 Center     Atomic      Atomic             Coordinates (Angstroms)
 Number     Number       Type             X           Y           Z
 ---------------------------------------------------------------------
      1          7           0       -0.238098   -3.871143    1.726727
      2          1           0        0.527088   -4.182082    2.332579
      3          1           0       -0.914256   -4.633282    1.627613
      4          1           0        0.169880   -3.586082    0.786048
      5          6           0       -0.865503   -2.573942    2.181511
      6          1           0       -0.681692   -2.449066    3.250734
      7          6           0       -0.154114   -1.524973    1.285936
      8          6           0       -2.347739   -2.524516    1.807988
      9          1           0       -2.419178   -2.636738    0.721379
     10          1           0       -2.692480   -1.506793    2.011101
     11          8           0        0.376884   -1.943318    0.250822
     12          6           0       -3.317851   -3.511336    2.482559
     13          1           0       -3.359549   -3.358407    3.564467
     14          1           0       -3.077438   -4.558296    2.269284
     15          6           0       -4.654671   -3.192900    1.829523
     16          8           0       -5.261383   -2.171060    2.444315
     17          8           0       -5.032673   -3.703639    0.794330
     18          7           0       -0.321218   -0.253669    1.631496
     19          1           0       -0.701325   -0.046218    2.543838
     20          6           0        0.090612    0.866369    0.788120
     21          1           0       -0.228201    1.762895    1.328250
     22          6           0        1.641170    0.888409    0.717009
     23          6           0       -0.615950    0.839555   -0.596753
     24          1           0       -0.564760    1.852682   -1.013477
     25          1           0       -0.056081    0.187232   -1.270239
     26          8           0        2.314044    0.164025    1.441396
     27          6           0       -2.054366    0.373233   -0.517935
     28          6           0       -2.472359   -0.757793   -1.225199
     29          1           0       -1.767474   -1.271666   -1.872860
     30          6           0       -2.994513    1.018522    0.300199
     31          1           0       -2.712556    1.917371    0.843765
     32          6           0       -3.771947   -1.255501   -1.103161
     33          1           0       -4.073773   -2.142742   -1.653119
     34          6           0       -4.290030    0.530502    0.443745
     35          1           0       -5.008676    1.027449    1.087198
     36          8           0       -5.945156   -1.102445   -0.028043
     37          1           0       -5.928956   -1.804445    1.818265
     38          6           0       -4.675586   -0.622711   -0.247901
     39          7           0        2.145451    1.778922   -0.156305
     40          1           0        1.560260    2.345446   -0.761288
     41          6           0        3.571705    1.993488   -0.343940
     42          1           0        4.073474    2.005877    0.626191
     43          6           0        3.740230    3.321089   -1.059764
     44          6           0        4.188183    0.877945   -1.239650
     45          1           0        4.056867   -0.055956   -0.685514
     46          1           0        3.558335    0.803243   -2.135291
     47          8           0        4.945612    3.836654   -0.889158
     48          6           0        5.673660    1.071915   -1.634693
     49          1           0        6.222753    0.155758   -1.390309
     50          1           0        6.121427    1.863418   -1.029714
     51          6           0        5.925221    1.343021   -3.133428
     52          1           0        7.011352    1.378759   -3.300101
     53          1           0        5.568924    0.474591   -3.703607
     54          6           0        5.291876    2.573002   -3.799608
     55          1           0        5.440689    2.475729   -4.883700
     56          1           0        4.212211    2.601452   -3.627526
     57          7           0        5.836884    3.869814   -3.318620
     58          1           0        5.496652    4.622702   -3.915522
     59          1           0        6.854272    3.873630   -3.395063
     60          1           0        5.307114    4.125081   -1.822188
     61          8           0        2.873272    3.752902   -1.806377
     62          1           0       -6.013815   -1.998070   -0.406463
 ---------------------------------------------------------------------

 SCF Done:  E(RB3LYP) =  -1526.33749274     A.U. after    1 cycles

 Alpha  occ. eigenvalues --  -19.29902 -19.28425 -19.27715 -19.25141 -19.22626
 Alpha  occ. eigenvalues --  -19.20417 -19.20272 -14.61147 -14.50855 -14.44610
 Alpha  occ. eigenvalues --  -14.42512 -10.44383 -10.43613 -10.41857 -10.38111
 Alpha  occ. eigenvalues --  -10.38017 -10.35516 -10.35214 -10.34703 -10.33613
 Alpha  occ. eigenvalues --  -10.30848 -10.30257 -10.29746 -10.29524 -10.29349
 Alpha  occ. eigenvalues --  -10.29175 -10.29156 -10.29013 -10.26377 -10.26181
 Alpha  occ. eigenvalues --  -10.25294  -1.21432  -1.20384  -1.16090  -1.15326
 Alpha  occ. eigenvalues --   -1.15052  -1.12569  -1.12529  -1.07485  -1.06975
 Alpha  occ. eigenvalues --   -1.01288  -0.97922  -0.96055  -0.95843  -0.90731
 Alpha  occ. eigenvalues --   -0.88301  -0.87332  -0.85160  -0.84390  -0.82229
 Alpha  occ. eigenvalues --   -0.79138  -0.77597  -0.77075  -0.75088  -0.74034
 Alpha  occ. eigenvalues --   -0.73117  -0.72300  -0.71773  -0.71115  -0.69192
 Alpha  occ. eigenvalues --   -0.68842  -0.66650  -0.66176  -0.64900  -0.64404
 Alpha  occ. eigenvalues --   -0.64256  -0.62287  -0.61118  -0.60209  -0.59711
 Alpha  occ. eigenvalues --   -0.58815  -0.58536  -0.57927  -0.57725  -0.57097
 Alpha  occ. eigenvalues --   -0.56477  -0.56067  -0.55598  -0.54260  -0.53960
 Alpha  occ. eigenvalues --   -0.53792  -0.53160  -0.52834  -0.52701  -0.52330
 Alpha  occ. eigenvalues --   -0.52069  -0.51737  -0.51267  -0.50563  -0.50183
 Alpha  occ. eigenvalues --   -0.49537  -0.49379  -0.49159  -0.48866  -0.47817
 Alpha  occ. eigenvalues --   -0.46949  -0.46375  -0.45638  -0.45363  -0.44213
 Alpha  occ. eigenvalues --   -0.44012  -0.43057  -0.42908  -0.42619  -0.41903
 Alpha  occ. eigenvalues --   -0.41113  -0.40801  -0.40300  -0.40189  -0.38742
 Alpha  occ. eigenvalues --   -0.36402  -0.35532  -0.34941  -0.34643  -0.34097
 Alpha  occ. eigenvalues --   -0.33106  -0.32350
 Alpha virt. eigenvalues --   -0.13696  -0.12001  -0.10836  -0.10214  -0.09620
 Alpha virt. eigenvalues --   -0.07715  -0.07030  -0.06380  -0.05562  -0.02962
 Alpha virt. eigenvalues --   -0.02204  -0.01839  -0.00690  -0.00360  -0.00264

 Mulliken charges:
               1
     1  N   -0.750693
     2  H    0.422212
     3  H    0.416503
     4  H    0.433768
     5  C   -0.130964
     6  H    0.211179
     7  C    0.690041
     8  C   -0.325481
     9  H    0.203863
    10  H    0.215592
    11  O   -0.539107
    12  C   -0.342152
    13  H    0.194279
    14  H    0.164324
    15  C    0.589948
    16  O   -0.565702
    17  O   -0.470455
    18  N   -0.570441
    19  H    0.357127
    20  C   -0.083341
    21  H    0.188541
    22  C    0.656509
    23  C   -0.386585
    24  H    0.182209
    25  H    0.190142
    26  O   -0.536721
    27  C    0.177460
    28  C   -0.211252
    29  H    0.151092
    30  C   -0.205034
    31  H    0.140015
    32  C   -0.191610
    33  H    0.155861
    34  C   -0.161545
    35  H    0.163121
    36  O   -0.669157
    37  H    0.445103
    38  C    0.347174
    39  N   -0.625822
    40  H    0.355234
    41  C   -0.020040
    42  H    0.189963
    43  C    0.588337
    44  C   -0.283215
    45  H    0.174048
    46  H    0.142425
    47  O   -0.602662
    48  C   -0.281084
    49  H    0.147635
    50  H    0.178106
    51  C   -0.278423
    52  H    0.142841
    53  H    0.150097
    54  C   -0.157567
    55  H    0.152418
    56  H    0.178324
    57  N   -0.778147
    58  H    0.344257
    59  H    0.333306
    60  H    0.460980
    61  O   -0.501988
    62  H    0.435153
 Sum of Mulliken charges =   1.00000

 Dipole moment (field-independent basis, Debye):
    X=              0.1224    Y=             -9.3245    Z=              3.7884  Tot=             10.0654
 Quadrupole moment (field-independent basis, Debye-Ang):
   XX=           -126.4262   YY=           -120.7066   ZZ=           -139.0052
   XY=             24.1962   XZ=            -40.0847   YZ=            -37.8371

 Normal termination of Gaussian 16 at Thu Jun 23 14:07:59 2022.
