 Gaussian 16, Revision C.01,
 Gaussian 16:  ES64L-G16RevC.01  3-Jul-2019

 ----------------------------------------------------------------------
 # B3LYP/6-31G* empiricaldispersion=gd3bj guess=read geom=check nosymm
 integral(ultrafinegrid)
 ----------------------------------------------------------------------

 ------------------------------------------------------
 Candidate Structure: Conf:222 Charge calc in gas phase
 ------------------------------------------------------
 Structure from the checkpoint file:  "conf-222.chk"
 Charge =  1 Multiplicity = 1

                          Input orientation:
 ---------------------------------------------------------------------
 Center     Atomic      Atomic             Coordinates (Angstroms)
 Number     Number       Type             X           Y           Z
 ---------------------------------------------------------------------
      1          7           0       -0.163790   -0.290149    2.635730
      2          1           0        0.818129    1.016668    2.839677
      3          1           0       -0.865600   -0.491181    3.346282
      4          1           0        0.510235   -1.057905    2.633158
      5          6           0       -0.788974   -0.197878    1.298445
      6          1           0       -1.425440    0.688319    1.288264
      7          6           0        0.361344   -0.001738    0.299571
      8          6           0       -1.634085   -1.444673    0.967866
      9          1           0       -2.469438   -1.483088    1.677655
     10          1           0       -1.015335   -2.330349    1.154324
     11          8           0        1.411441   -0.635075    0.408322
     12          6           0       -2.165858   -1.557991   -0.469583
     13          1           0       -2.743337   -2.478802   -0.577399
     14          1           0       -1.326242   -1.629092   -1.169890
     15          6           0       -2.999249   -0.394411   -0.957047
     16          8           0       -2.707684    0.785033   -0.834507
     17          8           0       -4.107461   -0.796023   -1.595705
     18          7           0        0.172683    0.960129   -0.642625
     19          1           0       -0.788754    1.251291   -0.817304
     20          6           0        1.193228    1.246258   -1.652896
     21          1           0        0.938653    2.234989   -2.052533
     22          6           0        2.554125    1.393431   -0.957234
     23          6           0        1.240473    0.236583   -2.812915
     24          1           0        1.972253    0.601246   -3.543426
     25          1           0        1.624227   -0.712856   -2.430850
     26          8           0        3.577944    0.875014   -1.436487
     27          6           0       -0.123058    0.038461   -3.436399
     28          6           0       -0.650687   -1.245618   -3.596207
     29          1           0       -0.046711   -2.108741   -3.326583
     30          6           0       -0.920851    1.125165   -3.824837
     31          1           0       -0.536199    2.139334   -3.747817
     32          6           0       -1.944754   -1.447073   -4.077199
     33          1           0       -2.342184   -2.455085   -4.170003
     34          6           0       -2.215075    0.945378   -4.296239
     35          1           0       -2.836271    1.790379   -4.573657
     36          8           0       -4.048102   -0.457417   -4.779058
     37          1           0       -4.532288   -0.005231   -1.982240
     38          6           0       -2.742310   -0.346351   -4.397986
     39          7           0        2.549632    2.164957    0.153332
     40          1           0        1.624236    2.420402    0.488977
     41          6           0        3.478516    1.899901    1.250852
     42          1           0        4.142068    1.108772    0.911927
     43          6           0        2.700335    1.253686    2.406423
     44          6           0        4.308663    3.119266    1.718073
     45          1           0        4.284698    3.885019    0.934610
     46          1           0        3.832280    3.569848    2.593908
     47          8           0        3.187920    0.392864    3.104875
     48          6           0        5.758897    2.716178    2.052122
     49          1           0        5.764757    1.676657    2.406852
     50          1           0        6.131293    3.304269    2.896388
     51          6           0        6.761396    2.920473    0.896002
     52          1           0        6.949948    3.995266    0.783852
     53          1           0        7.728219    2.472328    1.158797
     54          6           0        6.343302    2.451822   -0.495992
     55          1           0        5.414642    2.924764   -0.821432
     56          1           0        7.117968    2.689992   -1.226498
     57          7           0        6.083893    0.953886   -0.591882
     58          1           0        6.679476    0.503321   -1.291015
     59          1           0        5.054113    0.813249   -0.883042
     60          1           0        6.247553    0.480015    0.300851
     61          8           0        1.465890    1.749078    2.504055
     62          1           0       -4.285789   -1.395667   -4.847828
 ---------------------------------------------------------------------

 SCF Done:  E(RB3LYP) =  -1526.37055187     A.U. after    1 cycles

 Alpha  occ. eigenvalues --  -19.29155 -19.26076 -19.25830 -19.25739 -19.23970
 Alpha  occ. eigenvalues --  -19.22500 -19.22213 -14.57485 -14.47342 -14.46357
 Alpha  occ. eigenvalues --  -14.44551 -10.42136 -10.41862 -10.40497 -10.39215
 Alpha  occ. eigenvalues --  -10.38070 -10.34734 -10.34528 -10.33270 -10.33061
 Alpha  occ. eigenvalues --  -10.32374 -10.30583 -10.30272 -10.29734 -10.29605
 Alpha  occ. eigenvalues --  -10.28446 -10.27878 -10.27686 -10.27652 -10.27396
 Alpha  occ. eigenvalues --  -10.26926  -1.20292  -1.17861  -1.16751  -1.14331
 Alpha  occ. eigenvalues --   -1.14131  -1.12193  -1.11186  -1.09407  -1.05096
 Alpha  occ. eigenvalues --   -1.02745  -1.00688  -0.94095  -0.93362  -0.90032
 Alpha  occ. eigenvalues --   -0.89087  -0.87893  -0.83919  -0.83376  -0.82229
 Alpha  occ. eigenvalues --   -0.80773  -0.77466  -0.75996  -0.74270  -0.72204
 Alpha  occ. eigenvalues --   -0.71889  -0.71139  -0.70376  -0.69959  -0.69271
 Alpha  occ. eigenvalues --   -0.68661  -0.68140  -0.66706  -0.64099  -0.62894
 Alpha  occ. eigenvalues --   -0.62699  -0.62283  -0.61602  -0.60095  -0.59431
 Alpha  occ. eigenvalues --   -0.58758  -0.58401  -0.58018  -0.57157  -0.56921
 Alpha  occ. eigenvalues --   -0.56309  -0.55410  -0.55282  -0.55015  -0.54118
 Alpha  occ. eigenvalues --   -0.54001  -0.53143  -0.52819  -0.52376  -0.52105
 Alpha  occ. eigenvalues --   -0.51578  -0.51124  -0.50925  -0.50663  -0.50355
 Alpha  occ. eigenvalues --   -0.49617  -0.48811  -0.48421  -0.48336  -0.48000
 Alpha  occ. eigenvalues --   -0.47655  -0.46790  -0.46205  -0.45833  -0.45528
 Alpha  occ. eigenvalues --   -0.45426  -0.45090  -0.44484  -0.43911  -0.42142
 Alpha  occ. eigenvalues --   -0.41738  -0.40972  -0.40378  -0.39448  -0.39110
 Alpha  occ. eigenvalues --   -0.37740  -0.37542  -0.36125  -0.35859  -0.34523
 Alpha  occ. eigenvalues --   -0.33656  -0.30249
 Alpha virt. eigenvalues --   -0.11245  -0.10051  -0.09672  -0.09215  -0.08544
 Alpha virt. eigenvalues --   -0.07407  -0.07015  -0.05769  -0.02589  -0.01980
 Alpha virt. eigenvalues --   -0.01509  -0.01290  -0.00385   0.00435   0.00745

 Mulliken charges:
               1
     1  N   -0.784271
     2  H    0.468309
     3  H    0.340825
     4  H    0.356581
     5  C   -0.060499
     6  H    0.187104
     7  C    0.612824
     8  C   -0.280259
     9  H    0.165528
    10  H    0.169016
    11  O   -0.543012
    12  C   -0.385246
    13  H    0.191407
    14  H    0.203619
    15  C    0.624652
    16  O   -0.494287
    17  O   -0.551266
    18  N   -0.640006
    19  H    0.396669
    20  C   -0.065642
    21  H    0.186542
    22  C    0.657156
    23  C   -0.345806
    24  H    0.170899
    25  H    0.179904
    26  O   -0.588070
    27  C    0.175618
    28  C   -0.225706
    29  H    0.141972
    30  C   -0.197062
    31  H    0.130976
    32  C   -0.186800
    33  H    0.139057
    34  C   -0.153619
    35  H    0.158203
    36  O   -0.642767
    37  H    0.428908
    38  C    0.344086
    39  N   -0.579383
    40  H    0.371605
    41  C   -0.055315
    42  H    0.137419
    43  C    0.610328
    44  C   -0.291025
    45  H    0.162705
    46  H    0.190082
    47  O   -0.464126
    48  C   -0.294352
    49  H    0.164121
    50  H    0.185327
    51  C   -0.306476
    52  H    0.192761
    53  H    0.172379
    54  C   -0.183424
    55  H    0.213042
    56  H    0.209543
    57  N   -0.784600
    58  H    0.408172
    59  H    0.459302
    60  H    0.406437
    61  O   -0.628903
    62  H    0.418844
 Sum of Mulliken charges =   1.00000

 Dipole moment (field-independent basis, Debye):
    X=             13.6631    Y=              3.8554    Z=             -3.2202  Tot=             14.5573
 Quadrupole moment (field-independent basis, Debye-Ang):
   XX=            -34.8485   YY=           -152.6913   ZZ=           -165.6755
   XY=             44.9419   XZ=             -4.2263   YZ=              4.2362

 Normal termination of Gaussian 16 at Thu Jun 23 14:07:59 2022.
