 Gaussian 16, Revision C.01,
 Gaussian 16:  ES64L-G16RevC.01  3-Jul-2019

 ----------------------------------------------------------------------
 # B3LYP/6-31G* empiricaldispersion=gd3bj guess=read geom=check nosymm
 integral(ultrafinegrid)
 ----------------------------------------------------------------------

 ------------------------------------------------------
 Candidate Structure: Conf:472 Charge calc in gas phase
 ------------------------------------------------------
 Structure from the checkpoint file:  "conf-472.chk"
 Charge =  1 Multiplicity = 1

                          Input orientation:
 ---------------------------------------------------------------------
 Center     Atomic      Atomic             Coordinates (Angstroms)
 Number     Number       Type             X           Y           Z
 ---------------------------------------------------------------------
      1          7           0       -1.937373   -4.028398   -1.916032
      2          1           0       -1.385926   -3.472129   -2.573594
      3          1           0       -2.809184   -4.248152   -2.393501
      4          6           0       -2.205078   -3.168556   -0.768087
      5          1           0       -3.160403   -3.445143   -0.315981
      6          6           0       -2.135203   -1.676067   -1.151495
      7          6           0       -1.072405   -3.286506    0.290268
      8          1           0       -0.162399   -2.976722   -0.237710
      9          1           0       -1.230531   -2.532546    1.069333
     10          8           0       -1.381946   -1.350426   -2.081555
     11          6           0       -0.817681   -4.622713    0.944699
     12          6           0       -0.664541   -4.684379    2.339590
     13          1           0       -0.849014   -3.793505    2.935766
     14          6           0       -0.601867   -5.792537    0.194147
     15          1           0       -0.753962   -5.748399   -0.879394
     16          6           0       -0.282180   -5.871082    2.974150
     17          1           0       -0.176179   -5.896143    4.054673
     18          6           0       -0.226408   -6.981824    0.828826
     19          1           0       -0.080363   -7.881932    0.237925
     20          6           0       -0.052479   -7.023515    2.219277
     21          1           0        0.235827   -7.949700    2.707189
     22          7           0       -2.730848   -0.776995   -0.343625
     23          6           0       -2.330791    0.649810   -0.374062
     24          1           0       -2.263315    0.987883   -1.410327
     25          6           0       -0.955182    0.718233    0.320035
     26          6           0       -3.436307    1.342194    0.424785
     27          1           0       -3.079315    2.257986    0.898811
     28          1           0       -4.260944    1.595248   -0.249436
     29          8           0       -0.838139    0.876189    1.530632
     30          6           0       -3.869184    0.283115    1.452941
     31          1           0       -3.182662    0.306718    2.300882
     32          1           0       -4.886758    0.437317    1.819537
     33          6           0       -3.733822   -1.053146    0.704611
     34          1           0       -4.676219   -1.357052    0.234509
     35          1           0       -3.407061   -1.860501    1.366980
     36          7           0        0.104094    0.485937   -0.508104
     37          1           0       -0.109476    0.171119   -1.449454
     38          6           0        1.414790    0.205699    0.043407
     39          1           0        1.251710    0.105937    1.125797
     40          6           0        2.405723    1.362268   -0.101359
     41          6           0        2.025079   -1.094275   -0.524580
     42          1           0        2.614895   -0.861520   -1.417911
     43          1           0        1.201315   -1.737385   -0.847529
     44          8           0        3.608725    1.206212   -0.134088
     45          6           0        2.926041   -1.808630    0.490845
     46          1           0        3.698623   -1.104863    0.811674
     47          1           0        2.342493   -2.051560    1.394368
     48          6           0        3.622583   -3.060696   -0.066787
     49          1           0        4.465536   -3.346149    0.577785
     50          1           0        4.065431   -2.822288   -1.040716
     51          6           0        2.730613   -4.281783   -0.275877
     52          1           0        1.804948   -4.053233   -0.807199
     53          1           0        3.250512   -5.079053   -0.811509
     54          7           0        2.303488   -4.885809    1.048448
     55          1           0        1.705353   -5.721799    0.915033
     56          1           0        1.721128   -4.240105    1.596014
     57          1           0        3.114543   -5.144959    1.619304
     58          8           0        1.806328    2.560671   -0.141892
     59          1           0        2.516571    3.229917   -0.181209
 ---------------------------------------------------------------------

 SCF Done:  E(RB3LYP) =  -1300.65313082     A.U. after    2 cycles

 Alpha  occ. eigenvalues --  -19.28293 -19.22750 -19.22095 -19.20564 -14.61067
 Alpha  occ. eigenvalues --  -14.46790 -14.44820 -14.41632 -10.40870 -10.39937
 Alpha  occ. eigenvalues --  -10.38521 -10.37538 -10.33466 -10.33457 -10.33389
 Alpha  occ. eigenvalues --  -10.32556 -10.32320 -10.32104 -10.31877 -10.31857
 Alpha  occ. eigenvalues --  -10.31761 -10.31740 -10.31183 -10.31100 -10.30860
 Alpha  occ. eigenvalues --  -10.30138 -10.27414 -10.27300  -1.19413  -1.15708
 Alpha  occ. eigenvalues --   -1.14104  -1.12381  -1.10346  -1.04329  -1.01849
 Alpha  occ. eigenvalues --   -0.99612  -0.98017  -0.94375  -0.90255  -0.89249
 Alpha  occ. eigenvalues --   -0.88630  -0.87049  -0.85304  -0.83569  -0.82713
 Alpha  occ. eigenvalues --   -0.78271  -0.76486  -0.74829  -0.73589  -0.72975
 Alpha  occ. eigenvalues --   -0.72900  -0.71987  -0.70139  -0.69937  -0.68460
 Alpha  occ. eigenvalues --   -0.67222  -0.65010  -0.64106  -0.64040  -0.62215
 Alpha  occ. eigenvalues --   -0.61873  -0.60769  -0.59734  -0.59340  -0.58441
 Alpha  occ. eigenvalues --   -0.57888  -0.56836  -0.56491  -0.56325  -0.55600
 Alpha  occ. eigenvalues --   -0.55240  -0.54725  -0.54465  -0.54148  -0.53551
 Alpha  occ. eigenvalues --   -0.52716  -0.51591  -0.51472  -0.50883  -0.50604
 Alpha  occ. eigenvalues --   -0.49932  -0.49127  -0.48665  -0.48217  -0.48142
 Alpha  occ. eigenvalues --   -0.47724  -0.47361  -0.46352  -0.46165  -0.45885
 Alpha  occ. eigenvalues --   -0.45587  -0.45152  -0.44841  -0.44379  -0.43781
 Alpha  occ. eigenvalues --   -0.42548  -0.40355  -0.38440  -0.37729  -0.37518
 Alpha  occ. eigenvalues --   -0.36586  -0.35991  -0.34235  -0.33776  -0.32841
 Alpha virt. eigenvalues --   -0.13931  -0.13476  -0.11264  -0.09237  -0.08048
 Alpha virt. eigenvalues --   -0.06535  -0.06408  -0.04593  -0.03629  -0.02787
 Alpha virt. eigenvalues --   -0.02176  -0.01136  -0.00649  -0.00034   0.00445

 Mulliken charges:
               1
     1  N   -0.725446
     2  H    0.327165
     3  H    0.322840
     4  C   -0.060638
     5  H    0.162237
     6  C    0.583959
     7  C   -0.378647
     8  H    0.151110
     9  H    0.175401
    10  O   -0.557972
    11  C    0.144475
    12  C   -0.243080
    13  H    0.161064
    14  C   -0.208965
    15  H    0.204845
    16  C   -0.135675
    17  H    0.170564
    18  C   -0.172815
    19  H    0.170869
    20  C   -0.151840
    21  H    0.171063
    22  N   -0.429684
    23  C   -0.076967
    24  H    0.184406
    25  C    0.615146
    26  C   -0.289914
    27  H    0.186939
    28  H    0.163088
    29  O   -0.517719
    30  C   -0.311073
    31  H    0.191807
    32  H    0.167491
    33  C   -0.133371
    34  H    0.174845
    35  H    0.156544
    36  N   -0.608494
    37  H    0.370202
    38  C   -0.048321
    39  H    0.207781
    40  C    0.600612
    41  C   -0.304135
    42  H    0.176885
    43  H    0.159165
    44  O   -0.464672
    45  C   -0.292520
    46  H    0.213161
    47  H    0.114922
    48  C   -0.296216
    49  H    0.164452
    50  H    0.202735
    51  C   -0.204596
    52  H    0.224632
    53  H    0.216990
    54  N   -0.745409
    55  H    0.414734
    56  H    0.413864
    57  H    0.408335
    58  O   -0.542014
    59  H    0.425857
 Sum of Mulliken charges =   1.00000

 Dipole moment (field-independent basis, Debye):
    X=              3.8360    Y=            -19.4967    Z=              3.1074  Tot=             20.1120
 Quadrupole moment (field-independent basis, Debye-Ang):
   XX=           -120.0254   YY=            -49.3346   ZZ=           -153.1742
   XY=            -34.5366   XZ=              7.1404   YZ=            -24.1929

 Normal termination of Gaussian 16 at Thu Jun 23 11:08:39 2022.
