 Gaussian 16, Revision C.01,
 Gaussian 16:  ES64L-G16RevC.01  3-Jul-2019

 ----------------------------------------------------------------------
 # B3LYP/6-31G* empiricaldispersion=gd3bj guess=read geom=check nosymm
 integral(ultrafinegrid)
 ----------------------------------------------------------------------

 ------------------------------------------------------
 Candidate Structure: Conf:222 Charge calc in gas phase
 ------------------------------------------------------
 Structure from the checkpoint file:  "conf-222.chk"
 Charge =  1 Multiplicity = 1

                          Input orientation:
 ---------------------------------------------------------------------
 Center     Atomic      Atomic             Coordinates (Angstroms)
 Number     Number       Type             X           Y           Z
 ---------------------------------------------------------------------
      1          7           0       -1.314638   -0.621349   -3.941670
      2          1           0       -2.037320   -1.178557   -4.400252
      3          1           0       -0.630682   -1.300798   -3.609281
      4          6           0       -1.935822    0.012323   -2.785114
      5          1           0       -1.133679    0.414470   -2.160910
      6          6           0       -2.771430   -0.990705   -1.967800
      7          6           0       -2.798607    1.211685   -3.247020
      8          1           0       -3.447143    0.870095   -4.061194
      9          1           0       -3.461282    1.533585   -2.434828
     10          8           0       -3.303812   -1.954229   -2.504833
     11          6           0       -1.929498    2.364958   -3.686090
     12          6           0       -1.405760    3.250546   -2.734731
     13          1           0       -1.649552    3.122849   -1.682224
     14          6           0       -1.582063    2.538229   -5.029434
     15          1           0       -1.967816    1.844456   -5.769922
     16          6           0       -0.565610    4.294692   -3.121312
     17          1           0       -0.183101    4.982961   -2.371622
     18          6           0       -0.743625    3.582601   -5.419291
     19          1           0       -0.491681    3.708351   -6.468618
     20          6           0       -0.234731    4.466565   -4.466557
     21          1           0        0.407462    5.288116   -4.772577
     22          7           0       -2.853163   -0.806102   -0.604577
     23          6           0       -2.539450    0.431248    0.118962
     24          1           0       -2.927959    1.314882   -0.393556
     25          6           0       -1.043477    0.702465    0.281802
     26          6           0       -3.250849    0.247327    1.483488
     27          1           0       -2.713113    0.747335    2.292504
     28          1           0       -4.250185    0.689734    1.422254
     29          8           0       -0.625100    1.827864    0.533695
     30          6           0       -3.354796   -1.276258    1.638791
     31          1           0       -2.400548   -1.689421    1.986817
     32          1           0       -4.131530   -1.578209    2.345498
     33          6           0       -3.643520   -1.745047    0.211993
     34          1           0       -4.708240   -1.663822   -0.040252
     35          1           0       -3.333105   -2.770449    0.002150
     36          7           0       -0.215297   -0.377777    0.133495
     37          1           0       -0.626084   -1.222106   -0.251189
     38          6           0        1.185171   -0.143192   -0.141825
     39          1           0        1.291229    0.940615   -0.239514
     40          6           0        1.528258   -0.798007   -1.471869
     41          6           0        2.090373   -0.635689    1.008956
     42          1           0        1.988364   -1.721374    1.112273
     43          1           0        1.684403   -0.188868    1.923193
     44          8           0        0.923193   -1.735159   -1.954885
     45          6           0        3.575509   -0.270265    0.870147
     46          1           0        4.097143   -0.594571    1.778970
     47          1           0        4.027006   -0.810886    0.031327
     48          6           0        3.786740    1.239319    0.660898
     49          1           0        3.253463    1.799451    1.441331
     50          1           0        3.363286    1.530152   -0.307264
     51          6           0        5.262360    1.599799    0.682627
     52          1           0        5.731491    1.426991    1.653919
     53          1           0        5.831304    1.074943   -0.088334
     54          7           0        5.436481    3.092400    0.389103
     55          1           0        6.422484    3.380715    0.389269
     56          1           0        4.942175    3.661956    1.087272
     57          1           0        5.038559    3.330121   -0.528288
     58          8           0        2.605892   -0.228017   -2.063392
     59          1           0        2.736630   -0.694392   -2.912978
 ---------------------------------------------------------------------

 SCF Done:  E(RB3LYP) =  -1300.62613856     A.U. after    1 cycles

 Alpha  occ. eigenvalues --  -19.31829 -19.25824 -19.20907 -19.17902 -14.66227
 Alpha  occ. eigenvalues --  -14.45365 -14.43461 -14.36842 -10.43756 -10.43277
 Alpha  occ. eigenvalues --  -10.37692 -10.35624 -10.34760 -10.34513 -10.32832
 Alpha  occ. eigenvalues --  -10.31537 -10.31219 -10.28704 -10.28527 -10.27302
 Alpha  occ. eigenvalues --  -10.26474 -10.25178 -10.24913 -10.24524 -10.24330
 Alpha  occ. eigenvalues --  -10.24179 -10.24158 -10.23847  -1.22290  -1.20135
 Alpha  occ. eigenvalues --   -1.13462  -1.12799  -1.10007  -1.02938  -1.01227
 Alpha  occ. eigenvalues --   -0.97102  -0.94812  -0.90995  -0.90679  -0.86944
 Alpha  occ. eigenvalues --   -0.85612  -0.83487  -0.82523  -0.80781  -0.79624
 Alpha  occ. eigenvalues --   -0.78671  -0.77661  -0.77410  -0.74504  -0.73055
 Alpha  occ. eigenvalues --   -0.71267  -0.68977  -0.68022  -0.67776  -0.66693
 Alpha  occ. eigenvalues --   -0.65782  -0.64750  -0.64237  -0.63325  -0.61758
 Alpha  occ. eigenvalues --   -0.60834  -0.59421  -0.58795  -0.58409  -0.57781
 Alpha  occ. eigenvalues --   -0.56143  -0.56009  -0.55467  -0.54567  -0.53909
 Alpha  occ. eigenvalues --   -0.53342  -0.51911  -0.51840  -0.51624  -0.51369
 Alpha  occ. eigenvalues --   -0.50836  -0.50285  -0.49545  -0.49478  -0.48540
 Alpha  occ. eigenvalues --   -0.48409  -0.47471  -0.47091  -0.46977  -0.46633
 Alpha  occ. eigenvalues --   -0.46047  -0.45857  -0.44372  -0.43510  -0.43130
 Alpha  occ. eigenvalues --   -0.42732  -0.42239  -0.41716  -0.41255  -0.40157
 Alpha  occ. eigenvalues --   -0.39443  -0.39219  -0.39130  -0.35655  -0.35191
 Alpha  occ. eigenvalues --   -0.32477  -0.31008  -0.30511  -0.29699  -0.29163
 Alpha virt. eigenvalues --   -0.16462  -0.11268  -0.09793  -0.09761  -0.07756
 Alpha virt. eigenvalues --   -0.07503  -0.05924  -0.05263  -0.04469  -0.04400
 Alpha virt. eigenvalues --   -0.03474  -0.02749  -0.00869  -0.00097   0.00358

 Mulliken charges:
               1
     1  N   -0.716786
     2  H    0.316497
     3  H    0.317430
     4  C   -0.079616
     5  H    0.129216
     6  C    0.565692
     7  C   -0.357968
     8  H    0.165950
     9  H    0.150570
    10  O   -0.504395
    11  C    0.176345
    12  C   -0.198673
    13  H    0.139783
    14  C   -0.153844
    15  H    0.137467
    16  C   -0.139265
    17  H    0.114871
    18  C   -0.135229
    19  H    0.134982
    20  C   -0.133991
    21  H    0.123265
    22  N   -0.494729
    23  C   -0.034699
    24  H    0.186469
    25  C    0.594078
    26  C   -0.305549
    27  H    0.172718
    28  H    0.172248
    29  O   -0.532830
    30  C   -0.301758
    31  H    0.148736
    32  H    0.170335
    33  C   -0.114773
    34  H    0.171399
    35  H    0.179904
    36  N   -0.595542
    37  H    0.364085
    38  C   -0.051772
    39  H    0.195854
    40  C    0.604237
    41  C   -0.275881
    42  H    0.178458
    43  H    0.179303
    44  O   -0.454421
    45  C   -0.280105
    46  H    0.165783
    47  H    0.171217
    48  C   -0.301585
    49  H    0.178661
    50  H    0.188202
    51  C   -0.208509
    52  H    0.230586
    53  H    0.231511
    54  N   -0.731053
    55  H    0.433372
    56  H    0.430677
    57  H    0.431585
    58  O   -0.580073
    59  H    0.431562
 Sum of Mulliken charges =   1.00000

 Dipole moment (field-independent basis, Debye):
    X=             23.8545    Y=             10.5163    Z=              4.0530  Tot=             26.3829
 Quadrupole moment (field-independent basis, Debye-Ang):
   XX=            -19.5326   YY=           -132.1443   ZZ=           -157.1552
   XY=             64.5855   XZ=             -1.4004   YZ=             -0.2062

 Normal termination of Gaussian 16 at Thu Jun 23 11:08:18 2022.
