 Gaussian 16, Revision C.01,
 Gaussian 16:  ES64L-G16RevC.01  3-Jul-2019

 ----------------------------------------------------------------------
 # B3LYP/6-31G* empiricaldispersion=gd3bj guess=read geom=check nosymm
 integral(ultrafinegrid)
 ----------------------------------------------------------------------

 ------------------------------------------------------
 Candidate Structure: Conf:304 Charge calc in gas phase
 ------------------------------------------------------
 Structure from the checkpoint file:  "conf-304.chk"
 Charge =  1 Multiplicity = 1

                          Input orientation:
 ---------------------------------------------------------------------
 Center     Atomic      Atomic             Coordinates (Angstroms)
 Number     Number       Type             X           Y           Z
 ---------------------------------------------------------------------
      1          7           0       -1.181168   -0.707786    3.911390
      2          1           0       -1.947790   -1.022859    4.522184
      3          1           0       -0.900368    0.224859    4.276832
      4          6           0       -1.720430   -0.438734    2.538157
      5          1           0       -0.989807   -0.814447    1.822322
      6          6           0       -1.806502    1.102419    2.440926
      7          6           0       -3.078296   -1.161226    2.352509
      8          1           0       -3.503916   -0.853526    1.394220
      9          1           0       -2.884323   -2.237585    2.279308
     10          8           0       -1.615207    1.760387    3.465280
     11          6           0       -4.043751   -0.881711    3.480170
     12          6           0       -4.215966   -1.819074    4.508799
     13          1           0       -3.720494   -2.786464    4.443943
     14          6           0       -4.726387    0.339982    3.554191
     15          1           0       -4.606858    1.072135    2.760567
     16          6           0       -5.051614   -1.540601    5.593704
     17          1           0       -5.184345   -2.279810    6.377631
     18          6           0       -5.561702    0.616513    4.633643
     19          1           0       -6.089443    1.564142    4.677177
     20          6           0       -5.722911   -0.320837    5.657390
     21          1           0       -6.375755   -0.102101    6.496491
     22          7           0       -2.149999    1.655693    1.259088
     23          6           0       -1.993139    1.021095   -0.050794
     24          1           0       -2.624022    0.132055   -0.147478
     25          6           0       -0.513527    0.621550   -0.279504
     26          6           0       -2.443347    2.133224   -1.021734
     27          1           0       -2.043000    1.992982   -2.028849
     28          1           0       -3.536403    2.133163   -1.086554
     29          8           0        0.361895    0.956620    0.511983
     30          6           0       -1.935009    3.407441   -0.333753
     31          1           0       -0.863792    3.532678   -0.519444
     32          1           0       -2.447688    4.307110   -0.680656
     33          6           0       -2.178625    3.136311    1.154271
     34          1           0       -3.156624    3.496493    1.490419
     35          1           0       -1.415781    3.559987    1.808690
     36          7           0       -0.316580   -0.132734   -1.387140
     37          1           0       -1.099180   -0.297481   -2.007014
     38          6           0        0.986213   -0.603372   -1.871845
     39          1           0        1.522848    0.240591   -2.331182
     40          6           0        0.770923   -1.617459   -2.996315
     41          6           0        1.887976   -1.196777   -0.777479
     42          1           0        2.200949   -0.373904   -0.134929
     43          1           0        2.775579   -1.587783   -1.280397
     44          8           0        1.565204   -2.469644   -3.304289
     45          6           0        1.209308   -2.295795    0.062407
     46          1           0        0.119005   -2.239271   -0.063926
     47          1           0        1.505832   -3.287375   -0.296861
     48          6           0        1.525754   -2.141644    1.553448
     49          1           0        1.229978   -1.130697    1.862662
     50          1           0        2.609934   -2.204895    1.716385
     51          6           0        0.817419   -3.172590    2.430518
     52          1           0       -0.217071   -3.314594    2.090565
     53          1           0        1.313203   -4.148573    2.351678
     54          7           0        0.753045   -2.697327    3.836674
     55          1           0        0.478070   -3.462584    4.453857
     56          1           0       -0.377595   -1.437619    3.929532
     57          1           0        1.685786   -2.417029    4.143579
     58          8           0       -0.407146   -1.427287   -3.642993
     59          1           0       -0.448862   -2.086256   -4.362479
 ---------------------------------------------------------------------

 SCF Done:  E(RB3LYP) =  -1300.67739177     A.U. after    1 cycles

 Alpha  occ. eigenvalues --  -19.30798 -19.24607 -19.24406 -19.23424 -14.53968
 Alpha  occ. eigenvalues --  -14.48398 -14.47933 -14.47221 -10.42880 -10.41272
 Alpha  occ. eigenvalues --  -10.40505 -10.37992 -10.35695 -10.35116 -10.33553
 Alpha  occ. eigenvalues --  -10.32962 -10.32137 -10.31091 -10.30775 -10.30050
 Alpha  occ. eigenvalues --  -10.29542 -10.29428 -10.29409 -10.29251 -10.29205
 Alpha  occ. eigenvalues --  -10.29032 -10.28800 -10.28229  -1.21474  -1.16932
 Alpha  occ. eigenvalues --   -1.15297  -1.12510  -1.09581  -1.06360  -1.04467
 Alpha  occ. eigenvalues --   -1.02548  -0.96645  -0.92370  -0.91214  -0.90189
 Alpha  occ. eigenvalues --   -0.87939  -0.85623  -0.85037  -0.84563  -0.80948
 Alpha  occ. eigenvalues --   -0.78744  -0.75803  -0.75195  -0.72288  -0.71451
 Alpha  occ. eigenvalues --   -0.71054  -0.70659  -0.69984  -0.68779  -0.67940
 Alpha  occ. eigenvalues --   -0.67689  -0.67105  -0.64828  -0.62339  -0.62210
 Alpha  occ. eigenvalues --   -0.61321  -0.61017  -0.60310  -0.59600  -0.59163
 Alpha  occ. eigenvalues --   -0.58503  -0.57471  -0.57277  -0.56462  -0.56292
 Alpha  occ. eigenvalues --   -0.55687  -0.54854  -0.54002  -0.53601  -0.53106
 Alpha  occ. eigenvalues --   -0.52907  -0.52444  -0.52088  -0.51788  -0.51459
 Alpha  occ. eigenvalues --   -0.51043  -0.50449  -0.50172  -0.49057  -0.48072
 Alpha  occ. eigenvalues --   -0.47605  -0.47500  -0.46462  -0.46218  -0.45874
 Alpha  occ. eigenvalues --   -0.44950  -0.44653  -0.44400  -0.44328  -0.43986
 Alpha  occ. eigenvalues --   -0.43376  -0.42649  -0.40034  -0.38706  -0.38523
 Alpha  occ. eigenvalues --   -0.37343  -0.37023  -0.35975  -0.35689  -0.35181
 Alpha virt. eigenvalues --   -0.11822  -0.11228  -0.10471  -0.10190  -0.09436
 Alpha virt. eigenvalues --   -0.06144  -0.04534  -0.03203  -0.02805  -0.02103
 Alpha virt. eigenvalues --   -0.01097  -0.00378  -0.00080   0.00311   0.01256

 Mulliken charges:
               1
     1  N   -0.803610
     2  H    0.384710
     3  H    0.412472
     4  C   -0.096674
     5  H    0.211046
     6  C    0.645963
     7  C   -0.389353
     8  H    0.192147
     9  H    0.175683
    10  O   -0.527765
    11  C    0.130253
    12  C   -0.219850
    13  H    0.135920
    14  C   -0.161615
    15  H    0.145176
    16  C   -0.120072
    17  H    0.160130
    18  C   -0.124468
    19  H    0.162090
    20  C   -0.123063
    21  H    0.164388
    22  N   -0.441673
    23  C   -0.102824
    24  H    0.166343
    25  C    0.628752
    26  C   -0.294194
    27  H    0.172324
    28  H    0.175617
    29  O   -0.521634
    30  C   -0.317771
    31  H    0.181478
    32  H    0.180940
    33  C   -0.117742
    34  H    0.174956
    35  H    0.204195
    36  N   -0.640191
    37  H    0.364496
    38  C   -0.038597
    39  H    0.209118
    40  C    0.594276
    41  C   -0.285458
    42  H    0.190415
    43  H    0.186805
    44  O   -0.434028
    45  C   -0.276100
    46  H    0.124578
    47  H    0.171742
    48  C   -0.298825
    49  H    0.161426
    50  H    0.164364
    51  C   -0.147516
    52  H    0.144317
    53  H    0.175064
    54  N   -0.786053
    55  H    0.340479
    56  H    0.447197
    57  H    0.345177
    58  O   -0.589411
    59  H    0.434449
 Sum of Mulliken charges =   1.00000

 Dipole moment (field-independent basis, Debye):
    X=             -7.9350    Y=             -5.0138    Z=              8.5798  Tot=             12.7168
 Quadrupole moment (field-independent basis, Debye-Ang):
   XX=           -129.1192   YY=           -137.7128   ZZ=            -94.3289
   XY=             -5.7329   XZ=            -14.6151   YZ=            -28.9651

 Normal termination of Gaussian 16 at Thu Jun 23 11:08:28 2022.
