 Gaussian 16, Revision C.01,
 Gaussian 16:  ES64L-G16RevC.01  3-Jul-2019

 ----------------------------------------------------------------------
 # B3LYP/6-31G* empiricaldispersion=gd3bj guess=read geom=check nosymm
 integral(ultrafinegrid)
 ----------------------------------------------------------------------

 ------------------------------------------------------
 Candidate Structure: Conf:879 Charge calc in gas phase
 ------------------------------------------------------
 Structure from the checkpoint file:  "conf-879.chk"
 Charge =  1 Multiplicity = 1

                          Input orientation:
 ---------------------------------------------------------------------
 Center     Atomic      Atomic             Coordinates (Angstroms)
 Number     Number       Type             X           Y           Z
 ---------------------------------------------------------------------
      1          7           0       -0.503536   -1.539336   -3.029649
      2          1           0       -0.474562   -1.460712   -4.044415
      3          1           0       -0.761153   -2.500763   -2.796533
      4          6           0       -1.540905   -0.653437   -2.469333
      5          1           0       -1.083904    0.323732   -2.297149
      6          6           0       -1.993507   -1.276820   -1.143440
      7          6           0       -2.770969   -0.440533   -3.396709
      8          1           0       -3.450367    0.262531   -2.900683
      9          1           0       -2.409340    0.061729   -4.302308
     10          8           0       -1.924028   -2.492349   -0.970140
     11          6           0       -3.498004   -1.711679   -3.758531
     12          6           0       -3.158964   -2.423198   -4.915291
     13          1           0       -2.404011   -2.024347   -5.589834
     14          6           0       -4.500947   -2.222792   -2.926072
     15          1           0       -4.782100   -1.674791   -2.030018
     16          6           0       -3.797510   -3.623271   -5.229144
     17          1           0       -3.527420   -4.158603   -6.134740
     18          6           0       -5.143517   -3.419243   -3.236421
     19          1           0       -5.923021   -3.799149   -2.582517
     20          6           0       -4.790459   -4.125099   -4.387905
     21          1           0       -5.294105   -5.055357   -4.633140
     22          7           0       -2.542151   -0.443112   -0.210489
     23          6           0       -2.251431    0.992244   -0.079224
     24          1           0       -2.498191    1.546839   -0.986551
     25          6           0       -0.759613    1.278602    0.199487
     26          6           0       -3.152837    1.415799    1.096383
     27          1           0       -2.776696    2.313847    1.591263
     28          1           0       -4.155941    1.631929    0.714273
     29          8           0       -0.263863    2.354994   -0.078814
     30          6           0       -3.174443    0.170597    1.996314
     31          1           0       -2.270972    0.142426    2.615013
     32          1           0       -4.038024    0.146122    2.664888
     33          6           0       -3.177097   -1.000424    1.002852
     34          1           0       -4.191175   -1.333539    0.755279
     35          1           0       -2.624666   -1.878064    1.349718
     36          7           0       -0.067512    0.249528    0.804392
     37          1           0       -0.554717   -0.636072    0.833154
     38          6           0        1.388210    0.150183    0.688170
     39          1           0        1.736664    1.153280    0.429394
     40          6           0        1.654133   -0.794011   -0.498149
     41          6           0        2.039481   -0.330103    1.985506
     42          1           0        1.951098    0.467376    2.729177
     43          1           0        3.111796   -0.450023    1.787957
     44          8           0        2.100968   -1.927847   -0.367897
     45          6           0        1.440480   -1.637869    2.557788
     46          1           0        0.799439   -1.408457    3.414025
     47          1           0        0.807128   -2.134945    1.816666
     48          6           0        2.500077   -2.652015    3.022967
     49          1           0        2.014527   -3.437682    3.618105
     50          1           0        3.226337   -2.150208    3.678600
     51          6           0        3.219983   -3.291162    1.843084
     52          1           0        2.550173   -3.860993    1.199549
     53          1           0        3.747736   -2.576642    1.214736
     54          7           0        4.273831   -4.282730    2.355442
     55          1           0        4.771585   -4.738324    1.581622
     56          1           0        3.843803   -5.018611    2.928228
     57          1           0        4.971622   -3.809833    2.941743
     58          8           0        1.245603   -0.263355   -1.630449
     59          1           0        0.820578   -0.955362   -2.281350
 ---------------------------------------------------------------------

 SCF Done:  E(RB3LYP) =  -1300.64251651     A.U. after    2 cycles

 Alpha  occ. eigenvalues --  -19.24858 -19.22584 -19.20829 -19.20309 -14.63997
 Alpha  occ. eigenvalues --  -14.45397 -14.45135 -14.42850 -10.40275 -10.39938
 Alpha  occ. eigenvalues --  -10.37489 -10.37304 -10.34084 -10.32584 -10.32300
 Alpha  occ. eigenvalues --  -10.31599 -10.30917 -10.30760 -10.29550 -10.27988
 Alpha  occ. eigenvalues --  -10.27749 -10.27578 -10.26356 -10.25504 -10.25340
 Alpha  occ. eigenvalues --  -10.25236 -10.25178 -10.25040  -1.17885  -1.17418
 Alpha  occ. eigenvalues --   -1.13017  -1.12176  -1.08950  -1.03923  -1.01420
 Alpha  occ. eigenvalues --   -0.99191  -0.94756  -0.92012  -0.88809  -0.88352
 Alpha  occ. eigenvalues --   -0.85365  -0.84465  -0.82726  -0.80782  -0.79702
 Alpha  occ. eigenvalues --   -0.78359  -0.76552  -0.75385  -0.74700  -0.71877
 Alpha  occ. eigenvalues --   -0.71103  -0.69576  -0.67697  -0.67030  -0.66675
 Alpha  occ. eigenvalues --   -0.65930  -0.65364  -0.64997  -0.62457  -0.61284
 Alpha  occ. eigenvalues --   -0.60863  -0.58985  -0.57491  -0.57278  -0.56563
 Alpha  occ. eigenvalues --   -0.55742  -0.55454  -0.54826  -0.54117  -0.53674
 Alpha  occ. eigenvalues --   -0.53111  -0.52554  -0.52390  -0.52195  -0.51741
 Alpha  occ. eigenvalues --   -0.51214  -0.50786  -0.50338  -0.49482  -0.49177
 Alpha  occ. eigenvalues --   -0.48399  -0.47951  -0.47389  -0.46683  -0.46187
 Alpha  occ. eigenvalues --   -0.45946  -0.45546  -0.44994  -0.44655  -0.44024
 Alpha  occ. eigenvalues --   -0.43620  -0.43075  -0.42495  -0.42096  -0.40610
 Alpha  occ. eigenvalues --   -0.40412  -0.39174  -0.37329  -0.36253  -0.35602
 Alpha  occ. eigenvalues --   -0.34471  -0.33628  -0.32201  -0.31254  -0.30658
 Alpha virt. eigenvalues --   -0.14671  -0.09613  -0.08081  -0.08038  -0.07967
 Alpha virt. eigenvalues --   -0.06634  -0.06288  -0.05529  -0.04888  -0.02679
 Alpha virt. eigenvalues --   -0.01413  -0.00553   0.00131   0.01012   0.01153

 Mulliken charges:
               1
     1  N   -0.794936
     2  H    0.334316
     3  H    0.360804
     4  C   -0.058263
     5  H    0.182359
     6  C    0.601646
     7  C   -0.392347
     8  H    0.167327
     9  H    0.167210
    10  O   -0.530114
    11  C    0.183233
    12  C   -0.198484
    13  H    0.119940
    14  C   -0.165652
    15  H    0.124114
    16  C   -0.126163
    17  H    0.141947
    18  C   -0.126831
    19  H    0.139661
    20  C   -0.127601
    21  H    0.143421
    22  N   -0.477049
    23  C   -0.072479
    24  H    0.189145
    25  C    0.618139
    26  C   -0.293767
    27  H    0.186716
    28  H    0.172831
    29  O   -0.493809
    30  C   -0.315861
    31  H    0.154870
    32  H    0.173301
    33  C   -0.127635
    34  H    0.177154
    35  H    0.168414
    36  N   -0.617394
    37  H    0.351427
    38  C   -0.057718
    39  H    0.215103
    40  C    0.585448
    41  C   -0.267373
    42  H    0.174497
    43  H    0.137288
    44  O   -0.513559
    45  C   -0.270709
    46  H    0.172170
    47  H    0.165487
    48  C   -0.304307
    49  H    0.160805
    50  H    0.162611
    51  C   -0.194158
    52  H    0.242368
    53  H    0.242092
    54  N   -0.735025
    55  H    0.430885
    56  H    0.421274
    57  H    0.421499
    58  O   -0.588100
    59  H    0.459833
 Sum of Mulliken charges =   1.00000

 Dipole moment (field-independent basis, Debye):
    X=             10.8941    Y=            -17.0739    Z=              8.6729  Tot=             22.0322
 Quadrupole moment (field-independent basis, Debye-Ang):
   XX=            -72.5875   YY=            -97.9704   ZZ=           -113.2098
   XY=            -67.1723   XZ=             44.7473   YZ=            -32.7663

 Normal termination of Gaussian 16 at Thu Jun 23 11:08:37 2022.
