 Gaussian 16, Revision C.01,
 Gaussian 16:  ES64L-G16RevC.01  3-Jul-2019

 ----------------------------------------------------------------------
 # B3LYP/6-31G* empiricaldispersion=gd3bj guess=read geom=check nosymm
 integral(ultrafinegrid)
 ----------------------------------------------------------------------

 ------------------------------------------------------
 Candidate Structure: Conf:102 Charge calc in gas phase
 ------------------------------------------------------
 Structure from the checkpoint file:  "conf-102.chk"
 Charge =  1 Multiplicity = 1

                          Input orientation:
 ---------------------------------------------------------------------
 Center     Atomic      Atomic             Coordinates (Angstroms)
 Number     Number       Type             X           Y           Z
 ---------------------------------------------------------------------
      1          7           0       -2.972782   -2.070136    3.421517
      2          1           0       -3.057123   -2.300160    4.409002
      3          1           0       -2.212700   -2.621574    3.029012
      4          6           0       -2.660464   -0.658408    3.258428
      5          1           0       -3.553851   -0.079749    3.504426
      6          6           0       -2.251588   -0.453255    1.799482
      7          6           0       -1.497040   -0.130539    4.161229
      8          1           0       -1.738192   -0.411486    5.193214
      9          1           0       -0.584990   -0.671188    3.879197
     10          8           0       -1.502289   -1.305070    1.279583
     11          6           0       -1.303450    1.361562    4.056420
     12          6           0       -0.462149    1.912198    3.082732
     13          1           0        0.117678    1.250047    2.446702
     14          6           0       -2.052686    2.232623    4.857187
     15          1           0       -2.709147    1.823815    5.621878
     16          6           0       -0.386399    3.290164    2.888124
     17          1           0        0.244164    3.687499    2.099375
     18          6           0       -1.970658    3.614104    4.681184
     19          1           0       -2.556698    4.274371    5.313818
     20          6           0       -1.143582    4.146539    3.690095
     21          1           0       -1.088199    5.221182    3.544567
     22          7           0       -2.635074    0.660007    1.142249
     23          6           0       -2.204988    0.911233   -0.255652
     24          1           0       -2.372440   -0.005305   -0.830522
     25          6           0       -0.701885    1.265590   -0.312451
     26          6           0       -3.084649    2.081575   -0.726821
     27          1           0       -2.494535    2.999876   -0.669931
     28          1           0       -3.408775    1.947495   -1.761424
     29          8           0       -0.273161    2.409106   -0.334536
     30          6           0       -4.248358    2.123258    0.272722
     31          1           0       -4.707115    3.112608    0.344297
     32          1           0       -5.027045    1.403474   -0.002237
     33          6           0       -3.588595    1.696635    1.584142
     34          1           0       -4.296187    1.289242    2.304791
     35          1           0       -3.044923    2.523180    2.052484
     36          7           0        0.108781    0.157166   -0.333308
     37          1           0       -0.344232   -0.689945    0.027295
     38          6           0        1.536501    0.304731   -0.131890
     39          1           0        1.720649    1.369665    0.060310
     40          6           0        2.242614   -0.042778   -1.440851
     41          6           0        2.038162   -0.564753    1.022745
     42          1           0        1.893152   -1.617410    0.747632
     43          1           0        1.378568   -0.406392    1.879650
     44          8           0        2.985170   -1.009713   -1.625126
     45          6           0        3.496854   -0.267451    1.424755
     46          1           0        4.066061    0.107750    0.564623
     47          1           0        3.493847    0.548059    2.154078
     48          6           0        4.241335   -1.475151    2.024031
     49          1           0        3.558656   -2.089718    2.625991
     50          1           0        5.021516   -1.132356    2.712558
     51          6           0        4.964003   -2.344805    0.998541
     52          1           0        5.694536   -1.761746    0.432176
     53          1           0        5.476477   -3.186212    1.470429
     54          7           0        4.021735   -2.926452   -0.037050
     55          1           0        4.525073   -3.527051   -0.698052
     56          1           0        3.545948   -2.160743   -0.603454
     57          1           0        3.294418   -3.498270    0.403560
     58          8           0        1.957433    0.805944   -2.414041
     59          1           0        2.398393    0.506442   -3.233286
 ---------------------------------------------------------------------

 SCF Done:  E(RB3LYP) =  -1300.66199449     A.U. after    3 cycles

 Alpha  occ. eigenvalues --  -19.33126 -19.29301 -19.21403 -19.20862 -14.60083
 Alpha  occ. eigenvalues --  -14.45866 -14.45128 -14.38618 -10.46378 -10.40079
 Alpha  occ. eigenvalues --  -10.37982 -10.37452 -10.35589 -10.33953 -10.32276
 Alpha  occ. eigenvalues --  -10.32106 -10.31967 -10.30401 -10.30072 -10.27134
 Alpha  occ. eigenvalues --  -10.27021 -10.26587 -10.26468 -10.26281 -10.26074
 Alpha  occ. eigenvalues --  -10.26049 -10.26019 -10.25899  -1.24953  -1.16034
 Alpha  occ. eigenvalues --   -1.14563  -1.13515  -1.12270  -1.03137  -1.02917
 Alpha  occ. eigenvalues --   -0.96446  -0.94964  -0.92791  -0.90526  -0.87926
 Alpha  occ. eigenvalues --   -0.85682  -0.85224  -0.82918  -0.81624  -0.79678
 Alpha  occ. eigenvalues --   -0.78833  -0.75632  -0.74730  -0.74112  -0.73054
 Alpha  occ. eigenvalues --   -0.71508  -0.70803  -0.68830  -0.67840  -0.66675
 Alpha  occ. eigenvalues --   -0.66080  -0.65040  -0.64865  -0.62939  -0.62369
 Alpha  occ. eigenvalues --   -0.61588  -0.60561  -0.59761  -0.59352  -0.58458
 Alpha  occ. eigenvalues --   -0.57544  -0.56700  -0.55702  -0.55210  -0.54051
 Alpha  occ. eigenvalues --   -0.54000  -0.53348  -0.53309  -0.52620  -0.52218
 Alpha  occ. eigenvalues --   -0.51308  -0.51064  -0.50597  -0.50080  -0.49400
 Alpha  occ. eigenvalues --   -0.49133  -0.48376  -0.48042  -0.47905  -0.47567
 Alpha  occ. eigenvalues --   -0.47029  -0.46945  -0.45727  -0.45646  -0.45072
 Alpha  occ. eigenvalues --   -0.44173  -0.43873  -0.43144  -0.42496  -0.42246
 Alpha  occ. eigenvalues --   -0.41316  -0.41110  -0.41015  -0.36285  -0.36155
 Alpha  occ. eigenvalues --   -0.34566  -0.33150  -0.32341  -0.31870  -0.30056
 Alpha virt. eigenvalues --   -0.13596  -0.11751  -0.07981  -0.07834  -0.07371
 Alpha virt. eigenvalues --   -0.06471  -0.06392  -0.04313  -0.03821  -0.03103
 Alpha virt. eigenvalues --   -0.02082  -0.00614   0.00507   0.00821   0.00966

 Mulliken charges:
               1
     1  N   -0.706591
     2  H    0.303714
     3  H    0.312363
     4  C   -0.045838
     5  H    0.155030
     6  C    0.634076
     7  C   -0.377534
     8  H    0.154106
     9  H    0.137678
    10  O   -0.599740
    11  C    0.165288
    12  C   -0.192928
    13  H    0.112565
    14  C   -0.190078
    15  H    0.134792
    16  C   -0.130497
    17  H    0.151436
    18  C   -0.127314
    19  H    0.147363
    20  C   -0.138875
    21  H    0.146759
    22  N   -0.433307
    23  C   -0.055204
    24  H    0.178432
    25  C    0.610819
    26  C   -0.317427
    27  H    0.196163
    28  H    0.166843
    29  O   -0.499045
    30  C   -0.295831
    31  H    0.169177
    32  H    0.162077
    33  C   -0.148367
    34  H    0.177348
    35  H    0.194524
    36  N   -0.629835
    37  H    0.386525
    38  C   -0.039960
    39  H    0.218701
    40  C    0.636906
    41  C   -0.312191
    42  H    0.113969
    43  H    0.205260
    44  O   -0.538486
    45  C   -0.294846
    46  H    0.154835
    47  H    0.192345
    48  C   -0.292071
    49  H    0.172611
    50  H    0.201145
    51  C   -0.200994
    52  H    0.218810
    53  H    0.215307
    54  N   -0.771736
    55  H    0.413049
    56  H    0.465933
    57  H    0.405159
    58  O   -0.508377
    59  H    0.435963
 Sum of Mulliken charges =   1.00000

 Dipole moment (field-independent basis, Debye):
    X=             12.8819    Y=             -7.5138    Z=              3.0655  Tot=             15.2249
 Quadrupole moment (field-independent basis, Debye-Ang):
   XX=            -78.8078   YY=           -129.6075   ZZ=           -132.6168
   XY=            -53.1237   XZ=             -6.5292   YZ=              1.3704

 Normal termination of Gaussian 16 at Thu Jun 23 11:08:58 2022.
