 Gaussian 16, Revision C.01,
 Gaussian 16:  ES64L-G16RevC.01  3-Jul-2019

 ----------------------------------------------------------------------
 # B3LYP/6-31G* empiricaldispersion=gd3bj guess=read geom=check nosymm
 integral(ultrafinegrid)
 ----------------------------------------------------------------------

 ------------------------------------------------------
 Candidate Structure: Conf:445 Charge calc in gas phase
 ------------------------------------------------------
 Structure from the checkpoint file:  "conf-445.chk"
 Charge =  1 Multiplicity = 1

                          Input orientation:
 ---------------------------------------------------------------------
 Center     Atomic      Atomic             Coordinates (Angstroms)
 Number     Number       Type             X           Y           Z
 ---------------------------------------------------------------------
      1          7           0       -4.228828   -1.215982    3.409576
      2          1           0       -3.529150   -1.862763    3.043087
      3          1           0       -5.085718   -1.429612    2.902109
      4          6           0       -3.780935    0.128131    3.057516
      5          1           0       -4.659891    0.774341    2.970805
      6          6           0       -3.006054    0.139015    1.730629
      7          6           0       -2.909592    0.723532    4.198517
      8          1           0       -2.526877    1.701832    3.892448
      9          1           0       -3.586677    0.890189    5.042462
     10          8           0       -2.430466   -0.888996    1.347163
     11          6           0       -1.747169   -0.111018    4.690407
     12          6           0       -1.963188   -1.206585    5.540631
     13          1           0       -2.982161   -1.520326    5.740318
     14          6           0       -0.426719    0.280317    4.420031
     15          1           0       -0.245271    1.100312    3.730308
     16          6           0       -0.890619   -1.845723    6.169033
     17          1           0       -1.085864   -2.639078    6.887133
     18          6           0        0.647724   -0.349957    5.047853
     19          1           0        1.657801    0.011302    4.874254
     20          6           0        0.421133   -1.400285    5.946814
     21          1           0        1.247465   -1.810500    6.525992
     22          7           0       -2.945533    1.287889    1.020625
     23          6           0       -2.136728    1.342546   -0.202681
     24          1           0       -2.465695    0.560450   -0.894042
     25          6           0       -0.656554    1.138023    0.148619
     26          6           0       -2.403662    2.760619   -0.750861
     27          1           0       -1.548378    3.155665   -1.304596
     28          1           0       -3.261480    2.729910   -1.431050
     29          8           0       -0.145189    1.668073    1.131423
     30          6           0       -2.737094    3.573570    0.507838
     31          1           0       -1.815633    3.827746    1.038545
     32          1           0       -3.287273    4.492556    0.291953
     33          6           0       -3.554860    2.588592    1.348777
     34          1           0       -4.613987    2.594559    1.058990
     35          1           0       -3.490535    2.801500    2.416722
     36          7           0        0.029090    0.346371   -0.720402
     37          1           0       -0.474915   -0.106424   -1.470037
     38          6           0        1.387660   -0.091928   -0.460417
     39          1           0        1.840399    0.672110    0.179556
     40          6           0        2.238773   -0.187796   -1.718234
     41          6           0        1.426183   -1.449774    0.289013
     42          1           0        2.477379   -1.719808    0.438532
     43          1           0        0.980524   -2.221409   -0.354546
     44          8           0        3.396200   -0.536005   -1.704264
     45          6           0        0.643429   -1.337707    1.594166
     46          1           0        1.131969   -0.618909    2.259627
     47          1           0       -0.340843   -0.932384    1.374835
     48          6           0        0.360344   -2.628799    2.362105
     49          1           0       -0.052368   -3.394774    1.693401
     50          1           0       -0.423429   -2.385693    3.090612
     51          6           0        1.567515   -3.180135    3.109921
     52          1           0        2.200530   -3.841983    2.515626
     53          1           0        2.177465   -2.380507    3.534557
     54          7           0        1.069604   -3.977594    4.305763
     55          1           0        1.826350   -4.422319    4.836211
     56          1           0        0.409355   -4.707262    4.016130
     57          1           0        0.566516   -3.314807    4.936825
     58          8           0        1.561271    0.117077   -2.846252
     59          1           0        2.190728    0.011077   -3.585650
 ---------------------------------------------------------------------

 SCF Done:  E(RB3LYP) =  -1300.65432129     A.U. after    1 cycles

 Alpha  occ. eigenvalues --  -19.28781 -19.22584 -19.20896 -19.20603 -14.61288
 Alpha  occ. eigenvalues --  -14.45738 -14.45483 -14.40145 -10.41007 -10.39172
 Alpha  occ. eigenvalues --  -10.37781 -10.37316 -10.33231 -10.32326 -10.31713
 Alpha  occ. eigenvalues --  -10.31673 -10.31403 -10.30734 -10.30561 -10.30329
 Alpha  occ. eigenvalues --  -10.30166 -10.29251 -10.29219 -10.28911 -10.28492
 Alpha  occ. eigenvalues --  -10.28124 -10.27807 -10.27397  -1.19543  -1.15650
 Alpha  occ. eigenvalues --   -1.13280  -1.12065  -1.10473  -1.03531  -1.02187
 Alpha  occ. eigenvalues --   -0.97989  -0.96142  -0.93062  -0.89147  -0.88184
 Alpha  occ. eigenvalues --   -0.87812  -0.85183  -0.84659  -0.82528  -0.81577
 Alpha  occ. eigenvalues --   -0.77716  -0.75727  -0.74347  -0.73849  -0.72457
 Alpha  occ. eigenvalues --   -0.71174  -0.70314  -0.69415  -0.68887  -0.68620
 Alpha  occ. eigenvalues --   -0.67033  -0.64403  -0.64277  -0.62222  -0.61652
 Alpha  occ. eigenvalues --   -0.60581  -0.60089  -0.59003  -0.57922  -0.57340
 Alpha  occ. eigenvalues --   -0.56727  -0.56374  -0.55527  -0.55426  -0.55188
 Alpha  occ. eigenvalues --   -0.54119  -0.53573  -0.53080  -0.52577  -0.52364
 Alpha  occ. eigenvalues --   -0.51650  -0.51163  -0.50677  -0.50137  -0.49873
 Alpha  occ. eigenvalues --   -0.49378  -0.48582  -0.48017  -0.47826  -0.47140
 Alpha  occ. eigenvalues --   -0.46860  -0.46330  -0.45422  -0.44868  -0.44364
 Alpha  occ. eigenvalues --   -0.44180  -0.43966  -0.43301  -0.43090  -0.42943
 Alpha  occ. eigenvalues --   -0.42518  -0.40466  -0.37220  -0.36153  -0.35916
 Alpha  occ. eigenvalues --   -0.35058  -0.34732  -0.34363  -0.33068  -0.32713
 Alpha virt. eigenvalues --   -0.12795  -0.11559  -0.11204  -0.07990  -0.07588
 Alpha virt. eigenvalues --   -0.06930  -0.06129  -0.04149  -0.02706  -0.01664
 Alpha virt. eigenvalues --   -0.01404  -0.00980  -0.00588   0.00314   0.00876

 Mulliken charges:
               1
     1  N   -0.709370
     2  H    0.312169
     3  H    0.314847
     4  C   -0.084011
     5  H    0.157748
     6  C    0.600595
     7  C   -0.351374
     8  H    0.167542
     9  H    0.182451
    10  O   -0.558892
    11  C    0.154407
    12  C   -0.166270
    13  H    0.181512
    14  C   -0.186264
    15  H    0.191673
    16  C   -0.159909
    17  H    0.153515
    18  C   -0.128949
    19  H    0.155306
    20  C   -0.227906
    21  H    0.147894
    22  N   -0.428731
    23  C   -0.058218
    24  H    0.160836
    25  C    0.646332
    26  C   -0.308643
    27  H    0.177510
    28  H    0.167336
    29  O   -0.538972
    30  C   -0.297124
    31  H    0.186582
    32  H    0.168498
    33  C   -0.137252
    34  H    0.167348
    35  H    0.172106
    36  N   -0.597072
    37  H    0.344768
    38  C   -0.063600
    39  H    0.215686
    40  C    0.595912
    41  C   -0.272172
    42  H    0.166846
    43  H    0.142053
    44  O   -0.452154
    45  C   -0.312472
    46  H    0.151625
    47  H    0.236223
    48  C   -0.302324
    49  H    0.167582
    50  H    0.175883
    51  C   -0.191230
    52  H    0.217119
    53  H    0.212077
    54  N   -0.745313
    55  H    0.412872
    56  H    0.413443
    57  H    0.402150
    58  O   -0.568763
    59  H    0.426537
 Sum of Mulliken charges =   1.00000

 Dipole moment (field-independent basis, Debye):
    X=             -1.3707    Y=            -10.9128    Z=             13.6238  Tot=             17.5093
 Quadrupole moment (field-independent basis, Debye-Ang):
   XX=           -139.7674   YY=            -95.3831   ZZ=            -80.9691
   XY=            -28.0749   XZ=             12.3511   YZ=            -59.4954

 Normal termination of Gaussian 16 at Thu Jun 23 11:08:33 2022.
