 Gaussian 16, Revision C.01,
 Gaussian 16:  ES64L-G16RevC.01  3-Jul-2019

 ----------------------------------------------------------------------
 # B3LYP/6-31G* empiricaldispersion=gd3bj guess=read geom=check nosymm
 integral(ultrafinegrid)
 ----------------------------------------------------------------------

 ------------------------------------------------------
 Candidate Structure: Conf:474 Charge calc in gas phase
 ------------------------------------------------------
 Structure from the checkpoint file:  "conf-474.chk"
 Charge =  1 Multiplicity = 1

                          Input orientation:
 ---------------------------------------------------------------------
 Center     Atomic      Atomic             Coordinates (Angstroms)
 Number     Number       Type             X           Y           Z
 ---------------------------------------------------------------------
      1          7           0       -2.543913    2.374417    0.819863
      2          1           0       -3.185675    2.073643    1.554193
      3          1           0       -2.482664    3.391750    0.889044
      4          6           0       -3.118837    2.058123   -0.502296
      5          1           0       -4.144787    2.437237   -0.582002
      6          6           0       -3.100886    0.554541   -0.770068
      7          6           0       -2.267263    2.748863   -1.601218
      8          1           0       -1.246570    2.359856   -1.531016
      9          1           0       -2.638830    2.445489   -2.583155
     10          8           0       -2.293912   -0.210677   -0.207476
     11          6           0       -2.278504    4.250168   -1.448318
     12          6           0       -1.210602    4.919219   -0.837400
     13          1           0       -0.335852    4.354346   -0.521670
     14          6           0       -3.386373    4.995790   -1.872852
     15          1           0       -4.217839    4.491117   -2.360036
     16          6           0       -1.246241    6.303007   -0.654011
     17          1           0       -0.405980    6.808961   -0.187963
     18          6           0       -3.425200    6.376842   -1.691999
     19          1           0       -4.286213    6.942699   -2.034708
     20          6           0       -2.355018    7.033655   -1.079764
     21          1           0       -2.383547    8.110178   -0.942907
     22          7           0       -3.913691    0.087110   -1.733463
     23          6           0       -3.585976   -1.202915   -2.372556
     24          1           0       -3.636111   -2.003417   -1.629140
     25          6           0       -2.173928   -1.061673   -2.971628
     26          6           0       -4.652644   -1.349629   -3.483062
     27          1           0       -4.215161   -1.054996   -4.441156
     28          1           0       -5.008147   -2.378490   -3.568907
     29          8           0       -1.888539   -0.058910   -3.622123
     30          6           0       -5.759939   -0.358718   -3.090444
     31          1           0       -6.359573   -0.034401   -3.944142
     32          1           0       -6.431856   -0.801168   -2.347421
     33          6           0       -4.979151    0.795964   -2.458997
     34          1           0       -5.582715    1.396682   -1.775024
     35          1           0       -4.549973    1.448955   -3.228441
     36          7           0       -1.314818   -2.077756   -2.737760
     37          1           0       -1.608769   -2.864298   -2.176495
     38          6           0        0.076280   -2.039000   -3.183500
     39          1           0        0.088540   -1.963185   -4.279144
     40          6           0        0.795062   -3.337997   -2.837699
     41          6           0        0.855943   -0.829345   -2.626179
     42          1           0        0.393674    0.064353   -3.050172
     43          1           0        1.880914   -0.894515   -3.001570
     44          8           0        1.994096   -3.468524   -2.873674
     45          6           0        0.839361   -0.753900   -1.095419
     46          1           0       -0.167859   -1.013966   -0.755509
     47          1           0        1.530459   -1.494930   -0.673373
     48          6           0        1.212582    0.645130   -0.587030
     49          1           0        0.595288    1.401296   -1.088240
     50          1           0        2.250698    0.876508   -0.853165
     51          6           0        1.090353    0.811110    0.925698
     52          1           0        1.630262    0.015841    1.447037
     53          1           0        1.486470    1.772034    1.263052
     54          7           0       -0.343289    0.743058    1.382670
     55          1           0       -0.410645    0.548926    2.384455
     56          1           0       -0.913248    0.041976    0.863022
     57          1           0       -0.951015    1.596507    1.179997
     58          8           0       -0.052249   -4.337483   -2.491355
     59          1           0        0.497664   -5.124681   -2.313363
 ---------------------------------------------------------------------

 SCF Done:  E(RB3LYP) =  -1300.68644990     A.U. after    3 cycles

 Alpha  occ. eigenvalues --  -19.30054 -19.24605 -19.23752 -19.21508 -14.54727
 Alpha  occ. eigenvalues --  -14.48314 -14.46893 -14.46534 -10.42170 -10.41094
 Alpha  occ. eigenvalues --  -10.38840 -10.36867 -10.35386 -10.34127 -10.34002
 Alpha  occ. eigenvalues --  -10.33359 -10.31077 -10.30369 -10.29522 -10.29317
 Alpha  occ. eigenvalues --  -10.29295 -10.28968 -10.28618 -10.28339 -10.28188
 Alpha  occ. eigenvalues --  -10.28113 -10.28060 -10.27850  -1.20742  -1.16386
 Alpha  occ. eigenvalues --   -1.13542  -1.11688  -1.10212  -1.06001  -1.03126
 Alpha  occ. eigenvalues --   -1.03020  -0.95039  -0.92067  -0.91004  -0.88476
 Alpha  occ. eigenvalues --   -0.88381  -0.85735  -0.83755  -0.82874  -0.82468
 Alpha  occ. eigenvalues --   -0.77363  -0.76572  -0.74370  -0.72468  -0.71066
 Alpha  occ. eigenvalues --   -0.69972  -0.69562  -0.69106  -0.68243  -0.67555
 Alpha  occ. eigenvalues --   -0.66564  -0.66324  -0.64169  -0.63132  -0.62540
 Alpha  occ. eigenvalues --   -0.61554  -0.61415  -0.60414  -0.58860  -0.58460
 Alpha  occ. eigenvalues --   -0.58037  -0.57631  -0.56822  -0.55345  -0.55232
 Alpha  occ. eigenvalues --   -0.54613  -0.54555  -0.54038  -0.53671  -0.52111
 Alpha  occ. eigenvalues --   -0.51755  -0.51527  -0.51269  -0.51132  -0.50604
 Alpha  occ. eigenvalues --   -0.50448  -0.50200  -0.49442  -0.48530  -0.48377
 Alpha  occ. eigenvalues --   -0.47708  -0.47153  -0.45881  -0.45578  -0.44934
 Alpha  occ. eigenvalues --   -0.44640  -0.44318  -0.44053  -0.43587  -0.43421
 Alpha  occ. eigenvalues --   -0.43215  -0.41803  -0.40140  -0.38574  -0.37548
 Alpha  occ. eigenvalues --   -0.37017  -0.35677  -0.34776  -0.34380  -0.33812
 Alpha virt. eigenvalues --   -0.11758  -0.09598  -0.09415  -0.09013  -0.07746
 Alpha virt. eigenvalues --   -0.07482  -0.04069  -0.03894  -0.02732  -0.01757
 Alpha virt. eigenvalues --   -0.00413  -0.00303   0.00039   0.00835   0.01326

 Mulliken charges:
               1
     1  N   -0.786156
     2  H    0.334281
     3  H    0.350298
     4  C   -0.067406
     5  H    0.164394
     6  C    0.629670
     7  C   -0.395940
     8  H    0.171939
     9  H    0.206835
    10  O   -0.590082
    11  C    0.161270
    12  C   -0.199100
    13  H    0.116785
    14  C   -0.179725
    15  H    0.131998
    16  C   -0.124694
    17  H    0.150944
    18  C   -0.125880
    19  H    0.155646
    20  C   -0.125944
    21  H    0.157397
    22  N   -0.423831
    23  C   -0.033121
    24  H    0.166448
    25  C    0.639592
    26  C   -0.319702
    27  H    0.189748
    28  H    0.176344
    29  O   -0.537531
    30  C   -0.295038
    31  H    0.179077
    32  H    0.169013
    33  C   -0.145823
    34  H    0.172592
    35  H    0.184322
    36  N   -0.626855
    37  H    0.359475
    38  C   -0.038122
    39  H    0.214768
    40  C    0.588293
    41  C   -0.286060
    42  H    0.186620
    43  H    0.182799
    44  O   -0.443041
    45  C   -0.304182
    46  H    0.163780
    47  H    0.160233
    48  C   -0.301030
    49  H    0.172092
    50  H    0.186339
    51  C   -0.177229
    52  H    0.197412
    53  H    0.196361
    54  N   -0.785291
    55  H    0.383894
    56  H    0.438217
    57  H    0.423900
    58  O   -0.582000
    59  H    0.431006
 Sum of Mulliken charges =   1.00000

 Dipole moment (field-independent basis, Debye):
    X=             -9.8097    Y=              3.6313    Z=              0.5398  Tot=             10.4742
 Quadrupole moment (field-independent basis, Debye-Ang):
   XX=           -114.2919   YY=           -110.4390   ZZ=           -146.5162
   XY=             -9.9710   XZ=             20.1374   YZ=             10.7752

 Normal termination of Gaussian 16 at Thu Jun 23 11:08:49 2022.
