 Gaussian 16, Revision C.01,
 Gaussian 16:  ES64L-G16RevC.01  3-Jul-2019

 ----------------------------------------------------------------------
 # B3LYP/6-31G* empiricaldispersion=gd3bj guess=read geom=check nosymm
 integral(ultrafinegrid)
 ----------------------------------------------------------------------

 -----------------------------------------------------
 Candidate Structure: Conf:34 Charge calc in gas phase
 -----------------------------------------------------
 Structure from the checkpoint file:  "conf-34.chk"
 Charge =  1 Multiplicity = 1

                          Input orientation:
 ---------------------------------------------------------------------
 Center     Atomic      Atomic             Coordinates (Angstroms)
 Number     Number       Type             X           Y           Z
 ---------------------------------------------------------------------
      1          7           0       -4.808241    0.845800    3.190674
      2          1           0       -5.251409    1.317030    3.977697
      3          1           0       -5.005006   -0.148805    3.295471
      4          6           0       -3.365134    1.083610    3.233126
      5          1           0       -3.222446    2.169307    3.173759
      6          6           0       -2.740521    0.474984    1.974821
      7          6           0       -2.649931    0.592658    4.512167
      8          1           0       -2.802480   -0.490946    4.600541
      9          1           0       -1.572454    0.775209    4.406337
     10          8           0       -2.015935   -0.554271    2.018329
     11          6           0       -3.174858    1.289987    5.742983
     12          6           0       -4.215079    0.732431    6.496410
     13          1           0       -4.610497   -0.244403    6.226588
     14          6           0       -2.670403    2.543193    6.112959
     15          1           0       -1.861267    2.987685    5.537299
     16          6           0       -4.740210    1.410917    7.597354
     17          1           0       -5.543384    0.963239    8.174981
     18          6           0       -3.192032    3.223065    7.212357
     19          1           0       -2.787175    4.191557    7.490209
     20          6           0       -4.229641    2.658223    7.956777
     21          1           0       -4.634595    3.186146    8.814599
     22          7           0       -2.990125    1.057065    0.805570
     23          6           0       -2.349575    0.568313   -0.423590
     24          1           0       -2.655178   -0.468802   -0.598841
     25          6           0       -0.823386    0.679337   -0.291865
     26          6           0       -2.880342    1.524452   -1.517712
     27          1           0       -2.153927    2.328314   -1.673175
     28          1           0       -3.029275    1.007586   -2.468112
     29          8           0       -0.311125    1.648187    0.259202
     30          6           0       -4.174824    2.098165   -0.921732
     31          1           0       -4.461581    3.050804   -1.373211
     32          1           0       -5.004942    1.395162   -1.050214
     33          6           0       -3.840836    2.238121    0.564466
     34          1           0       -4.710492    2.201170    1.220167
     35          1           0       -3.258390    3.147200    0.758475
     36          7           0       -0.132468   -0.326688   -0.879059
     37          1           0       -0.620319   -1.143546   -1.228776
     38          6           0        1.318359   -0.408846   -0.934185
     39          1           0        1.717516    0.357851   -1.609123
     40          6           0        1.645917   -1.775094   -1.518852
     41          6           0        1.999170   -0.224308    0.443626
     42          1           0        1.823676    0.812472    0.733225
     43          1           0        3.076181   -0.358463    0.312367
     44          8           0        0.831758   -2.660816   -1.680593
     45          6           0        1.446291   -1.171370    1.526604
     46          1           0        0.489968   -1.575883    1.172348
     47          1           0        2.123697   -2.021933    1.679034
     48          6           0        1.214547   -0.424324    2.846016
     49          1           0        0.508813    0.393017    2.663097
     50          1           0        2.149466    0.033311    3.190393
     51          6           0        0.704945   -1.297919    3.986821
     52          1           0        1.432959   -2.057147    4.285295
     53          1           0        0.444992   -0.700263    4.863293
     54          7           0       -0.556769   -2.027778    3.581626
     55          1           0       -1.005933   -2.476556    4.383440
     56          1           0       -0.346059   -2.757777    2.895541
     57          1           0       -1.255767   -1.360236    3.095691
     58          8           0        2.950650   -1.892463   -1.805141
     59          1           0        3.091974   -2.787890   -2.168332
 ---------------------------------------------------------------------

 SCF Done:  E(RB3LYP) =  -1300.67618701     A.U. after    3 cycles

 Alpha  occ. eigenvalues --  -19.30353 -19.25137 -19.25027 -19.21294 -14.57357
 Alpha  occ. eigenvalues --  -14.48161 -14.46233 -14.42746 -10.42900 -10.40741
 Alpha  occ. eigenvalues --  -10.38790 -10.37951 -10.34456 -10.33787 -10.33666
 Alpha  occ. eigenvalues --  -10.31679 -10.31364 -10.30310 -10.30280 -10.29121
 Alpha  occ. eigenvalues --  -10.28992 -10.28980 -10.28503 -10.27943 -10.27792
 Alpha  occ. eigenvalues --  -10.27549 -10.27484 -10.27259  -1.21515  -1.16329
 Alpha  occ. eigenvalues --   -1.13444  -1.12568  -1.12261  -1.05812  -1.02980
 Alpha  occ. eigenvalues --   -1.00330  -0.94385  -0.92815  -0.90390  -0.88913
 Alpha  occ. eigenvalues --   -0.87678  -0.85453  -0.83175  -0.83123  -0.81783
 Alpha  occ. eigenvalues --   -0.77478  -0.76634  -0.74354  -0.72822  -0.71853
 Alpha  occ. eigenvalues --   -0.71160  -0.70464  -0.69441  -0.69263  -0.67238
 Alpha  occ. eigenvalues --   -0.66879  -0.66038  -0.63821  -0.63019  -0.62159
 Alpha  occ. eigenvalues --   -0.60446  -0.59798  -0.59493  -0.58912  -0.58433
 Alpha  occ. eigenvalues --   -0.57904  -0.57028  -0.56084  -0.56013  -0.55547
 Alpha  occ. eigenvalues --   -0.54495  -0.54312  -0.54073  -0.53042  -0.52377
 Alpha  occ. eigenvalues --   -0.51961  -0.51590  -0.51369  -0.50954  -0.50686
 Alpha  occ. eigenvalues --   -0.50278  -0.49782  -0.48904  -0.48644  -0.48122
 Alpha  occ. eigenvalues --   -0.47647  -0.47019  -0.45757  -0.45425  -0.45083
 Alpha  occ. eigenvalues --   -0.44909  -0.44372  -0.44012  -0.43542  -0.42874
 Alpha  occ. eigenvalues --   -0.42777  -0.42592  -0.39257  -0.38543  -0.36731
 Alpha  occ. eigenvalues --   -0.35788  -0.35332  -0.34712  -0.33703  -0.33105
 Alpha virt. eigenvalues --   -0.11070  -0.10048  -0.09933  -0.09059  -0.08864
 Alpha virt. eigenvalues --   -0.07535  -0.04692  -0.03522  -0.02416  -0.01727
 Alpha virt. eigenvalues --   -0.00873  -0.00178   0.00572   0.01140   0.01274

 Mulliken charges:
               1
     1  N   -0.713727
     2  H    0.334057
     3  H    0.308569
     4  C   -0.083169
     5  H    0.181862
     6  C    0.671881
     7  C   -0.373264
     8  H    0.113898
     9  H    0.143895
    10  O   -0.631127
    11  C    0.158995
    12  C   -0.196126
    13  H    0.120979
    14  C   -0.180602
    15  H    0.131500
    16  C   -0.126601
    17  H    0.151793
    18  C   -0.126863
    19  H    0.153039
    20  C   -0.126039
    21  H    0.155339
    22  N   -0.422480
    23  C   -0.036915
    24  H    0.164267
    25  C    0.647544
    26  C   -0.318104
    27  H    0.185015
    28  H    0.174660
    29  O   -0.539001
    30  C   -0.299705
    31  H    0.177492
    32  H    0.169022
    33  C   -0.147219
    34  H    0.215274
    35  H    0.179438
    36  N   -0.638925
    37  H    0.358879
    38  C   -0.018945
    39  H    0.204832
    40  C    0.582360
    41  C   -0.296299
    42  H    0.208327
    43  H    0.179907
    44  O   -0.468209
    45  C   -0.297261
    46  H    0.147241
    47  H    0.151058
    48  C   -0.300310
    49  H    0.197154
    50  H    0.185013
    51  C   -0.195793
    52  H    0.202154
    53  H    0.208455
    54  N   -0.776959
    55  H    0.399597
    56  H    0.403019
    57  H    0.472217
    58  O   -0.556304
    59  H    0.431213
 Sum of Mulliken charges =   1.00000

 Dipole moment (field-independent basis, Debye):
    X=             -5.4477    Y=             -4.2246    Z=             13.0044  Tot=             14.7187
 Quadrupole moment (field-independent basis, Debye-Ang):
   XX=           -120.0005   YY=           -137.7425   ZZ=            -80.9556
   XY=            -16.2046   XZ=            -27.8792   YZ=             -9.8030

 Normal termination of Gaussian 16 at Thu Jun 23 11:09:04 2022.
