 Gaussian 16, Revision C.01,
 Gaussian 16:  ES64L-G16RevC.01  3-Jul-2019

 ----------------------------------------------------------------------
 # B3LYP/6-31G* empiricaldispersion=gd3bj guess=read geom=check nosymm
 integral(ultrafinegrid)
 ----------------------------------------------------------------------

 ------------------------------------------------------
 Candidate Structure: Conf:578 Charge calc in gas phase
 ------------------------------------------------------
 Structure from the checkpoint file:  "conf-578.chk"
 Charge =  1 Multiplicity = 1

                          Input orientation:
 ---------------------------------------------------------------------
 Center     Atomic      Atomic             Coordinates (Angstroms)
 Number     Number       Type             X           Y           Z
 ---------------------------------------------------------------------
      1          7           0       -0.740656    0.891985    3.520365
      2          1           0       -0.147197    1.284927    2.792077
      3          1           0       -0.202953    0.262119    4.107072
      4          6           0       -1.900599    0.239521    2.918401
      5          1           0       -1.636265   -0.532235    2.172113
      6          6           0       -2.711074    1.369581    2.252132
      7          6           0       -2.775220   -0.417350    4.002597
      8          1           0       -3.089378    0.378162    4.682153
      9          1           0       -3.677331   -0.815677    3.526128
     10          8           0       -3.407338    2.111768    2.929737
     11          6           0       -2.073635   -1.524021    4.750975
     12          6           0       -2.145370   -2.855945    4.310109
     13          1           0       -2.729104   -3.088847    3.422915
     14          6           0       -1.334166   -1.254265    5.919110
     15          1           0       -1.286598   -0.232825    6.286926
     16          6           0       -1.527874   -3.889230    5.021588
     17          1           0       -1.634364   -4.916002    4.682402
     18          6           0       -0.714517   -2.286040    6.636355
     19          1           0       -0.179655   -2.057023    7.553584
     20          6           0       -0.812508   -3.608926    6.192201
     21          1           0       -0.364199   -4.414007    6.766907
     22          7           0       -2.568497    1.564626    0.906577
     23          6           0       -2.015465    0.657256   -0.090861
     24          1           0       -2.366282   -0.369942    0.069696
     25          6           0       -0.471977    0.610508   -0.079693
     26          6           0       -2.586526    1.215659   -1.420902
     27          1           0       -1.961910    0.988053   -2.288681
     28          1           0       -3.575266    0.778541   -1.593663
     29          8           0        0.222034    1.201083    0.745122
     30          6           0       -2.708929    2.718446   -1.140935
     31          1           0       -1.727188    3.199094   -1.218806
     32          1           0       -3.390091    3.222785   -1.830018
     33          6           0       -3.202753    2.752944    0.304503
     34          1           0       -4.293730    2.667614    0.372806
     35          1           0       -2.905958    3.647113    0.855896
     36          7           0        0.063119   -0.195669   -1.037793
     37          1           0       -0.534959   -0.530207   -1.781101
     38          6           0        1.503509   -0.263915   -1.279820
     39          1           0        1.887763    0.760153   -1.393595
     40          6           0        1.788113   -0.978079   -2.597618
     41          6           0        2.271926   -0.927035   -0.127674
     42          1           0        2.140873   -0.275791    0.739110
     43          1           0        3.334375   -0.920564   -0.384972
     44          8           0        2.821964   -1.547674   -2.846359
     45          6           0        1.811451   -2.363684    0.169156
     46          1           0        0.757224   -2.485123   -0.113456
     47          1           0        2.380769   -3.068595   -0.442478
     48          6           0        1.964058   -2.740753    1.652078
     49          1           0        2.963793   -2.450525    2.004578
     50          1           0        1.878598   -3.827530    1.777398
     51          6           0        0.893735   -2.045621    2.482858
     52          1           0        0.893502   -0.960866    2.360948
     53          1           0       -0.107431   -2.412461    2.250149
     54          7           0        1.076482   -2.301683    3.961506
     55          1           0        0.383029   -1.782011    4.531613
     56          1           0        2.015884   -2.039636    4.277771
     57          1           0        0.919099   -3.286836    4.203538
     58          8           0        0.756759   -0.881014   -3.470313
     59          1           0        1.030434   -1.334597   -4.291066
 ---------------------------------------------------------------------

 SCF Done:  E(RB3LYP) =  -1300.64458445     A.U. after    1 cycles

 Alpha  occ. eigenvalues --  -19.31217 -19.25104 -19.23628 -19.19394 -14.61264
 Alpha  occ. eigenvalues --  -14.47757 -14.45125 -14.41614 -10.43418 -10.40275
 Alpha  occ. eigenvalues --  -10.39515 -10.36702 -10.35535 -10.34399 -10.33793
 Alpha  occ. eigenvalues --  -10.32706 -10.32664 -10.32323 -10.32243 -10.32050
 Alpha  occ. eigenvalues --  -10.31898 -10.31798 -10.31074 -10.29960 -10.29927
 Alpha  occ. eigenvalues --  -10.29628 -10.28979 -10.27866  -1.21943  -1.15961
 Alpha  occ. eigenvalues --   -1.15403  -1.12988  -1.11802  -1.04441  -1.03297
 Alpha  occ. eigenvalues --   -0.99614  -0.98094  -0.94818  -0.90412  -0.89627
 Alpha  occ. eigenvalues --   -0.88532  -0.87446  -0.85516  -0.83531  -0.82884
 Alpha  occ. eigenvalues --   -0.79263  -0.76528  -0.75374  -0.74535  -0.73713
 Alpha  occ. eigenvalues --   -0.73226  -0.71881  -0.71092  -0.69730  -0.68721
 Alpha  occ. eigenvalues --   -0.68269  -0.66454  -0.65406  -0.63558  -0.63124
 Alpha  occ. eigenvalues --   -0.61247  -0.60813  -0.60464  -0.60203  -0.59508
 Alpha  occ. eigenvalues --   -0.58791  -0.58346  -0.57015  -0.56874  -0.56175
 Alpha  occ. eigenvalues --   -0.55921  -0.54712  -0.54523  -0.53866  -0.53537
 Alpha  occ. eigenvalues --   -0.53156  -0.52767  -0.52424  -0.51634  -0.50939
 Alpha  occ. eigenvalues --   -0.50628  -0.50537  -0.49676  -0.49170  -0.48142
 Alpha  occ. eigenvalues --   -0.47773  -0.47178  -0.46581  -0.46256  -0.45926
 Alpha  occ. eigenvalues --   -0.45663  -0.45373  -0.44946  -0.44325  -0.44021
 Alpha  occ. eigenvalues --   -0.43094  -0.42668  -0.38817  -0.38735  -0.37870
 Alpha  occ. eigenvalues --   -0.37541  -0.37018  -0.34379  -0.32695  -0.32442
 Alpha virt. eigenvalues --   -0.14338  -0.13611  -0.11522  -0.10688  -0.09916
 Alpha virt. eigenvalues --   -0.07091  -0.06407  -0.05160  -0.04663  -0.03613
 Alpha virt. eigenvalues --   -0.02392  -0.01568  -0.00589  -0.00227   0.00066

 Mulliken charges:
               1
     1  N   -0.729559
     2  H    0.359247
     3  H    0.266538
     4  C   -0.062667
     5  H    0.086236
     6  C    0.630190
     7  C   -0.347742
     8  H    0.214416
     9  H    0.165615
    10  O   -0.499290
    11  C    0.143552
    12  C   -0.196501
    13  H    0.155996
    14  C   -0.240867
    15  H    0.188596
    16  C   -0.165342
    17  H    0.168828
    18  C   -0.145704
    19  H    0.174674
    20  C   -0.168980
    21  H    0.171147
    22  N   -0.447447
    23  C   -0.081733
    24  H    0.166482
    25  C    0.629568
    26  C   -0.314397
    27  H    0.160232
    28  H    0.173780
    29  O   -0.532268
    30  C   -0.307856
    31  H    0.167680
    32  H    0.176019
    33  C   -0.108426
    34  H    0.172966
    35  H    0.190826
    36  N   -0.627702
    37  H    0.363602
    38  C   -0.038453
    39  H    0.214539
    40  C    0.589264
    41  C   -0.286388
    42  H    0.169852
    43  H    0.189348
    44  O   -0.439280
    45  C   -0.279622
    46  H    0.146239
    47  H    0.191856
    48  C   -0.292881
    49  H    0.165033
    50  H    0.166579
    51  C   -0.207572
    52  H    0.220931
    53  H    0.210942
    54  N   -0.752311
    55  H    0.411981
    56  H    0.408333
    57  H    0.408107
    58  O   -0.581702
    59  H    0.435493
 Sum of Mulliken charges =   1.00000

 Dipole moment (field-independent basis, Debye):
    X=              2.0603    Y=            -11.8300    Z=              9.2638  Tot=             15.1662
 Quadrupole moment (field-independent basis, Debye-Ang):
   XX=           -156.2354   YY=           -134.3869   ZZ=            -84.8831
   XY=             -2.6242   XZ=             27.3151   YZ=            -51.3917

 Normal termination of Gaussian 16 at Thu Jun 23 11:08:28 2022.
