 Gaussian 16, Revision C.01,
 Gaussian 16:  ES64L-G16RevC.01  3-Jul-2019

 ----------------------------------------------------------------------
 # B3LYP/6-31G* empiricaldispersion=gd3bj guess=read geom=check nosymm
 integral(ultrafinegrid)
 ----------------------------------------------------------------------

 ------------------------------------------------------
 Candidate Structure: Conf:497 Charge calc in gas phase
 ------------------------------------------------------
 Structure from the checkpoint file:  "conf-497.chk"
 Charge =  1 Multiplicity = 1

                          Input orientation:
 ---------------------------------------------------------------------
 Center     Atomic      Atomic             Coordinates (Angstroms)
 Number     Number       Type             X           Y           Z
 ---------------------------------------------------------------------
      1          7           0       -1.508090   -1.820968    4.301456
      2          1           0       -2.031376   -2.553740    3.820831
      3          1           0       -1.831773   -1.831494    5.268130
      4          6           0       -1.842133   -0.502641    3.719743
      5          1           0       -2.899253   -0.249312    3.867306
      6          6           0       -1.530291   -0.523399    2.220814
      7          6           0       -0.981903    0.572492    4.441406
      8          1           0       -0.994617    0.317600    5.509091
      9          1           0        0.055866    0.475158    4.102498
     10          8           0       -0.652918   -1.289292    1.755502
     11          6           0       -1.472419    1.985523    4.247269
     12          6           0       -2.611674    2.427799    4.932556
     13          1           0       -3.101351    1.769926    5.647964
     14          6           0       -0.840606    2.847659    3.346876
     15          1           0        0.023251    2.509448    2.787096
     16          6           0       -3.125925    3.702870    4.704607
     17          1           0       -4.009080    4.034881    5.242178
     18          6           0       -1.354300    4.125242    3.117341
     19          1           0       -0.858490    4.781623    2.408495
     20          6           0       -2.499225    4.553812    3.790338
     21          1           0       -2.897815    5.547996    3.611851
     22          7           0       -2.159172    0.319528    1.396980
     23          6           0       -1.678152    0.431291    0.002737
     24          1           0       -1.879763   -0.511228   -0.519655
     25          6           0       -0.174476    0.745382   -0.005070
     26          6           0       -2.519194    1.587845   -0.562467
     27          1           0       -2.004819    2.530051   -0.348553
     28          1           0       -2.658694    1.501113   -1.642192
     29          8           0        0.281363    1.668683    0.663779
     30          6           0       -3.826143    1.504710    0.236782
     31          1           0       -4.400701    2.433519    0.210911
     32          1           0       -4.461768    0.698558   -0.146042
     33          6           0       -3.338600    1.178431    1.651369
     34          1           0       -4.078699    0.642529    2.250141
     35          1           0       -3.038184    2.081521    2.183233
     36          7           0        0.591894   -0.024840   -0.809985
     37          1           0        0.187823   -0.801291   -1.312744
     38          6           0        2.035359    0.164267   -0.855603
     39          1           0        2.222707    1.235463   -0.998474
     40          6           0        2.663887   -0.548732   -2.044223
     41          6           0        2.738763   -0.251122    0.454798
     42          1           0        2.281821    0.344613    1.249568
     43          1           0        3.788714    0.047834    0.375850
     44          8           0        3.856367   -0.657444   -2.197812
     45          6           0        2.653650   -1.750508    0.755775
     46          1           0        1.611809   -2.084704    0.671680
     47          1           0        3.219448   -2.300158   -0.004556
     48          6           0        3.233014   -2.123459    2.132111
     49          1           0        4.214385   -1.650634    2.255930
     50          1           0        3.415005   -3.206095    2.181533
     51          6           0        2.379092   -1.720353    3.334853
     52          1           0        2.891787   -1.931151    4.276168
     53          1           0        2.114414   -0.660387    3.314100
     54          7           0        1.081512   -2.473606    3.339523
     55          1           0        0.433153   -2.267357    4.131950
     56          1           0        1.231378   -3.484213    3.285706
     57          1           0        0.455194   -2.147287    2.549438
     58          8           0        1.750599   -1.057094   -2.904883
     59          1           0        2.251841   -1.478108   -3.629909
 ---------------------------------------------------------------------

 SCF Done:  E(RB3LYP) =  -1300.69009235     A.U. after    1 cycles

 Alpha  occ. eigenvalues --  -19.29955 -19.25218 -19.23639 -19.21630 -14.54798
 Alpha  occ. eigenvalues --  -14.48993 -14.46778 -14.46485 -10.42095 -10.41569
 Alpha  occ. eigenvalues --  -10.39046 -10.36838 -10.35678 -10.34240 -10.34088
 Alpha  occ. eigenvalues --  -10.32785 -10.31410 -10.30906 -10.29533 -10.29269
 Alpha  occ. eigenvalues --  -10.29198 -10.28768 -10.28711 -10.27806 -10.27509
 Alpha  occ. eigenvalues --  -10.27341 -10.27229 -10.27002  -1.20653  -1.16956
 Alpha  occ. eigenvalues --   -1.13749  -1.11593  -1.10467  -1.06181  -1.03077
 Alpha  occ. eigenvalues --   -1.02937  -0.94566  -0.92302  -0.91189  -0.88471
 Alpha  occ. eigenvalues --   -0.88347  -0.85672  -0.82926  -0.82402  -0.82253
 Alpha  occ. eigenvalues --   -0.77582  -0.77032  -0.74574  -0.72535  -0.71650
 Alpha  occ. eigenvalues --   -0.70000  -0.69671  -0.69205  -0.67989  -0.67511
 Alpha  occ. eigenvalues --   -0.67408  -0.66170  -0.64287  -0.63014  -0.62064
 Alpha  occ. eigenvalues --   -0.61462  -0.60840  -0.59299  -0.58827  -0.58355
 Alpha  occ. eigenvalues --   -0.57779  -0.57509  -0.56947  -0.56260  -0.55621
 Alpha  occ. eigenvalues --   -0.54356  -0.54126  -0.54005  -0.53459  -0.52368
 Alpha  occ. eigenvalues --   -0.52028  -0.51784  -0.51427  -0.51093  -0.50217
 Alpha  occ. eigenvalues --   -0.50058  -0.49687  -0.49336  -0.48816  -0.48502
 Alpha  occ. eigenvalues --   -0.48145  -0.47763  -0.46065  -0.45635  -0.45027
 Alpha  occ. eigenvalues --   -0.44680  -0.44495  -0.43698  -0.43487  -0.42829
 Alpha  occ. eigenvalues --   -0.42414  -0.41670  -0.39678  -0.39283  -0.37583
 Alpha  occ. eigenvalues --   -0.37200  -0.35797  -0.35093  -0.33512  -0.33210
 Alpha virt. eigenvalues --   -0.11698  -0.09336  -0.09208  -0.08626  -0.08023
 Alpha virt. eigenvalues --   -0.07406  -0.04539  -0.03897  -0.02715  -0.01404
 Alpha virt. eigenvalues --   -0.00750  -0.00130   0.00157   0.01007   0.01515

 Mulliken charges:
               1
     1  N   -0.775633
     2  H    0.330007
     3  H    0.336497
     4  C   -0.064735
     5  H    0.167264
     6  C    0.634567
     7  C   -0.364736
     8  H    0.164453
     9  H    0.153796
    10  O   -0.605572
    11  C    0.149758
    12  C   -0.183792
    13  H    0.125794
    14  C   -0.184745
    15  H    0.170949
    16  C   -0.132274
    17  H    0.151269
    18  C   -0.144221
    19  H    0.153016
    20  C   -0.130216
    21  H    0.152831
    22  N   -0.429943
    23  C   -0.026699
    24  H    0.160114
    25  C    0.653626
    26  C   -0.313316
    27  H    0.190715
    28  H    0.175645
    29  O   -0.537124
    30  C   -0.306305
    31  H    0.180469
    32  H    0.164003
    33  C   -0.145576
    34  H    0.168011
    35  H    0.213273
    36  N   -0.614015
    37  H    0.353223
    38  C   -0.046609
    39  H    0.217595
    40  C    0.589426
    41  C   -0.275728
    42  H    0.169762
    43  H    0.180540
    44  O   -0.445462
    45  C   -0.298656
    46  H    0.145623
    47  H    0.176613
    48  C   -0.289664
    49  H    0.188324
    50  H    0.156277
    51  C   -0.191549
    52  H    0.200998
    53  H    0.208601
    54  N   -0.776032
    55  H    0.415155
    56  H    0.379989
    57  H    0.452837
    58  O   -0.578608
    59  H    0.430189
 Sum of Mulliken charges =   1.00000

 Dipole moment (field-independent basis, Debye):
    X=             -3.4819    Y=             -6.4587    Z=             11.5586  Tot=             13.6908
 Quadrupole moment (field-independent basis, Debye-Ang):
   XX=           -133.4847   YY=           -130.2633   ZZ=            -97.3052
   XY=            -17.5463   XZ=             -6.8435   YZ=            -20.5477

 Normal termination of Gaussian 16 at Thu Jun 23 11:08:29 2022.
