 Gaussian 16, Revision C.01,
 Gaussian 16:  ES64L-G16RevC.01  3-Jul-2019

 ----------------------------------------------------------------------
 # B3LYP/6-31G* empiricaldispersion=gd3bj guess=read geom=check nosymm
 integral(ultrafinegrid)
 ----------------------------------------------------------------------

 ------------------------------------------------------
 Candidate Structure: Conf:981 Charge calc in gas phase
 ------------------------------------------------------
 Structure from the checkpoint file:  "conf-981.chk"
 Charge =  1 Multiplicity = 1

                          Input orientation:
 ---------------------------------------------------------------------
 Center     Atomic      Atomic             Coordinates (Angstroms)
 Number     Number       Type             X           Y           Z
 ---------------------------------------------------------------------
      1          7           0       -0.760771    2.890637   -1.965459
      2          1           0       -0.489334    3.837605   -1.704613
      3          1           0       -0.984890    2.908545   -2.960713
      4          6           0       -1.972239    2.506192   -1.238193
      5          1           0       -1.679638    2.261700   -0.213341
      6          6           0       -2.545513    1.282479   -1.965975
      7          6           0       -3.103497    3.565353   -1.151216
      8          1           0       -2.696643    4.471775   -0.686950
      9          1           0       -3.421440    3.816013   -2.168033
     10          8           0       -2.821282    1.360231   -3.158825
     11          6           0       -4.251428    3.012646   -0.338341
     12          6           0       -5.275698    2.281529   -0.955313
     13          1           0       -5.293393    2.202597   -2.038673
     14          6           0       -4.237042    3.098467    1.060119
     15          1           0       -3.453415    3.670958    1.551751
     16          6           0       -6.252140    1.640748   -0.192483
     17          1           0       -7.042924    1.084129   -0.687628
     18          6           0       -5.213821    2.460559    1.826541
     19          1           0       -5.191740    2.545186    2.909398
     20          6           0       -6.221120    1.723078    1.201366
     21          1           0       -6.986227    1.231166    1.795000
     22          7           0       -2.726693    0.124851   -1.264510
     23          6           0       -2.515664   -0.063491    0.170933
     24          1           0       -2.975784    0.736589    0.756936
     25          6           0       -1.032653   -0.067712    0.572174
     26          6           0       -3.218018   -1.407168    0.459502
     27          1           0       -2.756786   -1.928050    1.303399
     28          1           0       -4.262418   -1.206696    0.717584
     29          8           0       -0.718569   -0.076095    1.771037
     30          6           0       -3.131025   -2.155486   -0.879021
     31          1           0       -2.131659   -2.589906   -1.010327
     32          1           0       -3.864593   -2.960240   -0.970203
     33          6           0       -3.352185   -1.041804   -1.906408
     34          1           0       -4.418649   -0.843472   -2.070660
     35          1           0       -2.891359   -1.226909   -2.878210
     36          7           0       -0.149215   -0.066864   -0.447576
     37          1           0       -0.531486   -0.047058   -1.387480
     38          6           0        1.224082    0.407079   -0.370566
     39          1           0        1.234032    1.446338   -0.020158
     40          6           0        1.745957    0.413805   -1.802841
     41          6           0        2.120468   -0.426840    0.562690
     42          1           0        1.738793   -0.264140    1.573484
     43          1           0        3.129136   -0.005644    0.529956
     44          8           0        1.152850   -0.051409   -2.749353
     45          6           0        2.152597   -1.930908    0.222580
     46          1           0        1.312039   -2.187192   -0.434140
     47          1           0        3.061599   -2.178983   -0.332755
     48          6           0        2.089148   -2.807949    1.486964
     49          1           0        2.796710   -2.411952    2.229793
     50          1           0        2.394133   -3.837657    1.264248
     51          6           0        0.672816   -2.787029    2.050232
     52          1           0        0.244840   -1.779111    2.092202
     53          1           0       -0.003140   -3.435019    1.486973
     54          7           0        0.644541   -3.303575    3.489603
     55          1           0       -0.307501   -3.290088    3.873927
     56          1           0        1.227126   -2.709932    4.091755
     57          1           0        1.004327   -4.262610    3.562450
     58          8           0        2.962585    0.979140   -1.874975
     59          1           0        3.232103    0.963488   -2.813328
 ---------------------------------------------------------------------

 SCF Done:  E(RB3LYP) =  -1300.64339358     A.U. after    3 cycles

 Alpha  occ. eigenvalues --  -19.29575 -19.24033 -19.22449 -19.19169 -14.64208
 Alpha  occ. eigenvalues --  -14.46158 -14.44906 -14.39580 -10.42068 -10.39880
 Alpha  occ. eigenvalues --  -10.39229 -10.36192 -10.34407 -10.34220 -10.32605
 Alpha  occ. eigenvalues --  -10.31189 -10.30206 -10.30135 -10.30120 -10.29098
 Alpha  occ. eigenvalues --  -10.28395 -10.26625 -10.26109 -10.26017 -10.25884
 Alpha  occ. eigenvalues --  -10.25871 -10.25804 -10.25525  -1.20660  -1.18084
 Alpha  occ. eigenvalues --   -1.14052  -1.11803  -1.11527  -1.04100  -1.02335
 Alpha  occ. eigenvalues --   -0.96655  -0.95217  -0.92475  -0.89695  -0.88702
 Alpha  occ. eigenvalues --   -0.85404  -0.84967  -0.83349  -0.81272  -0.79088
 Alpha  occ. eigenvalues --   -0.78666  -0.76734  -0.76021  -0.74910  -0.72940
 Alpha  occ. eigenvalues --   -0.71912  -0.70292  -0.68386  -0.67454  -0.66910
 Alpha  occ. eigenvalues --   -0.66310  -0.65755  -0.64821  -0.62221  -0.61022
 Alpha  occ. eigenvalues --   -0.60529  -0.59939  -0.58624  -0.57957  -0.57870
 Alpha  occ. eigenvalues --   -0.56727  -0.56261  -0.54553  -0.54128  -0.53593
 Alpha  occ. eigenvalues --   -0.53207  -0.52988  -0.52388  -0.52314  -0.52097
 Alpha  occ. eigenvalues --   -0.51673  -0.51271  -0.50458  -0.50023  -0.49132
 Alpha  occ. eigenvalues --   -0.48830  -0.48710  -0.48061  -0.47122  -0.46757
 Alpha  occ. eigenvalues --   -0.46084  -0.45817  -0.45763  -0.44659  -0.44195
 Alpha  occ. eigenvalues --   -0.43889  -0.43492  -0.42867  -0.42315  -0.41714
 Alpha  occ. eigenvalues --   -0.40997  -0.40599  -0.37679  -0.36941  -0.36424
 Alpha  occ. eigenvalues --   -0.33462  -0.32713  -0.32463  -0.31690  -0.30461
 Alpha virt. eigenvalues --   -0.14804  -0.09840  -0.08687  -0.08344  -0.07816
 Alpha virt. eigenvalues --   -0.07433  -0.07291  -0.06197  -0.05777  -0.03031
 Alpha virt. eigenvalues --   -0.01652  -0.00879   0.00496   0.00837   0.01696

 Mulliken charges:
               1
     1  N   -0.743597
     2  H    0.307716
     3  H    0.330942
     4  C   -0.035568
     5  H    0.133590
     6  C    0.588909
     7  C   -0.363677
     8  H    0.147597
     9  H    0.176228
    10  O   -0.525127
    11  C    0.146986
    12  C   -0.183830
    13  H    0.159080
    14  C   -0.195656
    15  H    0.130487
    16  C   -0.138108
    17  H    0.142933
    18  C   -0.129516
    19  H    0.138804
    20  C   -0.137120
    21  H    0.140005
    22  N   -0.481694
    23  C   -0.034071
    24  H    0.210510
    25  C    0.596705
    26  C   -0.301920
    27  H    0.127661
    28  H    0.181834
    29  O   -0.571243
    30  C   -0.306814
    31  H    0.138672
    32  H    0.169088
    33  C   -0.113244
    34  H    0.173193
    35  H    0.191023
    36  N   -0.613798
    37  H    0.388740
    38  C   -0.018242
    39  H    0.204947
    40  C    0.603549
    41  C   -0.296666
    42  H    0.165277
    43  H    0.186554
    44  O   -0.458077
    45  C   -0.280529
    46  H    0.172899
    47  H    0.180955
    48  C   -0.296579
    49  H    0.159778
    50  H    0.171609
    51  C   -0.249191
    52  H    0.282597
    53  H    0.213776
    54  N   -0.729715
    55  H    0.430402
    56  H    0.425332
    57  H    0.421509
    58  O   -0.566865
    59  H    0.430961
 Sum of Mulliken charges =   1.00000

 Dipole moment (field-independent basis, Debye):
    X=              2.2296    Y=            -11.7755    Z=             12.2705  Tot=             17.1522
 Quadrupole moment (field-independent basis, Debye-Ang):
   XX=           -133.0172   YY=           -103.4616   ZZ=           -121.6743
   XY=             -4.8229   XZ=             -0.1415   YZ=            -46.2727

 Normal termination of Gaussian 16 at Thu Jun 23 11:08:47 2022.
