 Gaussian 16, Revision C.01,
 Gaussian 16:  ES64L-G16RevC.01  3-Jul-2019

 ----------------------------------------------------------------------
 # B3LYP/6-31G* empiricaldispersion=gd3bj guess=read geom=check nosymm
 integral(ultrafinegrid)
 ----------------------------------------------------------------------

 ------------------------------------------------------
 Candidate Structure: Conf:635 Charge calc in gas phase
 ------------------------------------------------------
 Structure from the checkpoint file:  "conf-635.chk"
 Charge =  1 Multiplicity = 1

                          Input orientation:
 ---------------------------------------------------------------------
 Center     Atomic      Atomic             Coordinates (Angstroms)
 Number     Number       Type             X           Y           Z
 ---------------------------------------------------------------------
      1          7           0       -0.734891    2.322254    1.974489
      2          1           0       -0.866574    3.290304    2.281677
      3          1           0       -0.244295    2.391421    1.076365
      4          6           0       -2.087561    1.790720    1.662334
      5          1           0       -1.951660    0.764101    1.315358
      6          6           0       -2.710412    2.712172    0.596824
      7          6           0       -2.990851    1.790175    2.907736
      8          1           0       -3.189111    2.831488    3.178626
      9          1           0       -3.954778    1.352419    2.620990
     10          8           0       -2.900125    3.888153    0.896656
     11          6           0       -2.399470    1.035990    4.072621
     12          6           0       -2.242277   -0.356853    4.021224
     13          1           0       -2.600130   -0.903689    3.151833
     14          6           0       -1.961091    1.715561    5.216153
     15          1           0       -2.092508    2.792462    5.279302
     16          6           0       -1.648439   -1.052400    5.075207
     17          1           0       -1.547838   -2.132574    5.023376
     18          6           0       -1.363310    1.025501    6.276485
     19          1           0       -1.040039    1.567905    7.160206
     20          6           0       -1.196881   -0.361669    6.204841
     21          1           0       -0.743883   -0.901181    7.030974
     22          7           0       -2.997185    2.205929   -0.629359
     23          6           0       -2.597098    0.891686   -1.120607
     24          1           0       -3.107022    0.088871   -0.574236
     25          6           0       -1.076202    0.684310   -1.011241
     26          6           0       -3.043013    0.914745   -2.604336
     27          1           0       -2.439288    0.247994   -3.226232
     28          1           0       -4.085353    0.585708   -2.667468
     29          8           0       -0.284912    1.617435   -0.881058
     30          6           0       -2.919241    2.397551   -2.980855
     31          1           0       -1.872145    2.650853   -3.174854
     32          1           0       -3.506149    2.657927   -3.864576
     33          6           0       -3.404387    3.116517   -1.720187
     34          1           0       -4.493312    3.240572   -1.708787
     35          1           0       -2.949993    4.095005   -1.559295
     36          7           0       -0.690105   -0.615885   -1.057155
     37          1           0       -1.385958   -1.310753   -1.296465
     38          6           0        0.705863   -1.019963   -1.203273
     39          1           0        1.232475   -0.192171   -1.695581
     40          6           0        0.836559   -2.221311   -2.139311
     41          6           0        1.400005   -1.312159    0.143239
     42          1           0        2.246824   -1.977522   -0.050204
     43          1           0        0.692333   -1.864290    0.776056
     44          8           0        1.850947   -2.860423   -2.266886
     45          6           0        1.904944   -0.046420    0.847305
     46          1           0        2.706433    0.390002    0.240669
     47          1           0        1.116078    0.708670    0.877018
     48          6           0        2.437888   -0.329547    2.260177
     49          1           0        3.164134    0.439164    2.558222
     50          1           0        2.994112   -1.274444    2.262332
     51          6           0        1.356217   -0.428574    3.333660
     52          1           0        0.483995   -0.991959    2.996104
     53          1           0        1.734556   -0.906744    4.240466
     54          7           0        0.843047    0.926311    3.741928
     55          1           0        0.257657    0.847832    4.585131
     56          1           0        0.216332    1.444507    2.992793
     57          1           0        1.624918    1.545637    3.974476
     58          8           0       -0.304396   -2.482437   -2.821356
     59          1           0       -0.118513   -3.247630   -3.399565
 ---------------------------------------------------------------------

 SCF Done:  E(RB3LYP) =  -1300.68662009     A.U. after    1 cycles

 Alpha  occ. eigenvalues --  -19.31077 -19.24812 -19.23956 -19.21117 -14.55271
 Alpha  occ. eigenvalues --  -14.48346 -14.46563 -14.46507 -10.43259 -10.40749
 Alpha  occ. eigenvalues --  -10.38316 -10.37210 -10.35597 -10.34891 -10.34604
 Alpha  occ. eigenvalues --  -10.31950 -10.31750 -10.31190 -10.31153 -10.31031
 Alpha  occ. eigenvalues --  -10.31017 -10.30852 -10.30788 -10.30336 -10.30289
 Alpha  occ. eigenvalues --  -10.30135 -10.29952 -10.28247  -1.21767  -1.15943
 Alpha  occ. eigenvalues --   -1.13375  -1.12771  -1.10607  -1.04949  -1.04626
 Alpha  occ. eigenvalues --   -1.02569  -0.97702  -0.93194  -0.90265  -0.89960
 Alpha  occ. eigenvalues --   -0.88926  -0.86519  -0.85560  -0.83876  -0.82788
 Alpha  occ. eigenvalues --   -0.77689  -0.77079  -0.74346  -0.72624  -0.72444
 Alpha  occ. eigenvalues --   -0.71403  -0.70910  -0.69880  -0.69184  -0.68920
 Alpha  occ. eigenvalues --   -0.68359  -0.66475  -0.64163  -0.63776  -0.62327
 Alpha  occ. eigenvalues --   -0.61825  -0.61590  -0.61022  -0.59320  -0.58670
 Alpha  occ. eigenvalues --   -0.58285  -0.57940  -0.57284  -0.57006  -0.56159
 Alpha  occ. eigenvalues --   -0.55107  -0.54721  -0.54313  -0.53846  -0.53552
 Alpha  occ. eigenvalues --   -0.53013  -0.52903  -0.52491  -0.51658  -0.51265
 Alpha  occ. eigenvalues --   -0.50977  -0.50263  -0.50101  -0.49330  -0.48694
 Alpha  occ. eigenvalues --   -0.47763  -0.47300  -0.46783  -0.46326  -0.45724
 Alpha  occ. eigenvalues --   -0.45482  -0.45345  -0.45206  -0.44871  -0.44779
 Alpha  occ. eigenvalues --   -0.43515  -0.42743  -0.40888  -0.39535  -0.37710
 Alpha  occ. eigenvalues --   -0.37480  -0.36968  -0.36713  -0.34799  -0.34242
 Alpha virt. eigenvalues --   -0.12843  -0.12354  -0.10507  -0.10135  -0.08548
 Alpha virt. eigenvalues --   -0.07275  -0.04892  -0.03603  -0.02303  -0.01724
 Alpha virt. eigenvalues --   -0.01335  -0.01013  -0.00467   0.00057   0.01161

 Mulliken charges:
               1
     1  N   -0.814693
     2  H    0.347450
     3  H    0.383833
     4  C   -0.060158
     5  H    0.143435
     6  C    0.617976
     7  C   -0.376443
     8  H    0.194742
     9  H    0.180969
    10  O   -0.524679
    11  C    0.175053
    12  C   -0.194259
    13  H    0.141829
    14  C   -0.212647
    15  H    0.160216
    16  C   -0.137509
    17  H    0.161530
    18  C   -0.162332
    19  H    0.168553
    20  C   -0.155251
    21  H    0.167176
    22  N   -0.440370
    23  C   -0.083175
    24  H    0.163294
    25  C    0.622610
    26  C   -0.306136
    27  H    0.171944
    28  H    0.176468
    29  O   -0.538894
    30  C   -0.306412
    31  H    0.177218
    32  H    0.176156
    33  C   -0.120578
    34  H    0.173786
    35  H    0.197636
    36  N   -0.610374
    37  H    0.356694
    38  C   -0.052203
    39  H    0.219526
    40  C    0.585809
    41  C   -0.272631
    42  H    0.197128
    43  H    0.137837
    44  O   -0.432314
    45  C   -0.286652
    46  H    0.173193
    47  H    0.150466
    48  C   -0.290839
    49  H    0.157086
    50  H    0.185216
    51  C   -0.179343
    52  H    0.194581
    53  H    0.196918
    54  N   -0.795843
    55  H    0.403810
    56  H    0.460852
    57  H    0.379061
    58  O   -0.581405
    59  H    0.435084
 Sum of Mulliken charges =   1.00000

 Dipole moment (field-independent basis, Debye):
    X=             -2.0293    Y=             -0.4130    Z=              9.4310  Tot=              9.6557
 Quadrupole moment (field-independent basis, Debye-Ang):
   XX=           -146.5658   YY=           -157.5181   ZZ=            -85.5138
   XY=              8.0645   XZ=             21.2933   YZ=              9.8603

 Normal termination of Gaussian 16 at Thu Jun 23 11:08:31 2022.
