 Gaussian 16, Revision C.01,
 Gaussian 16:  ES64L-G16RevC.01  3-Jul-2019

 ----------------------------------------------------------------------
 # B3LYP/6-31G* empiricaldispersion=gd3bj guess=read geom=check nosymm
 integral(ultrafinegrid)
 ----------------------------------------------------------------------

 ------------------------------------------------------
 Candidate Structure: Conf:746 Charge calc in gas phase
 ------------------------------------------------------
 Structure from the checkpoint file:  "conf-746.chk"
 Charge =  1 Multiplicity = 1

                          Input orientation:
 ---------------------------------------------------------------------
 Center     Atomic      Atomic             Coordinates (Angstroms)
 Number     Number       Type             X           Y           Z
 ---------------------------------------------------------------------
      1          7           0       -3.047286   -2.074177    3.108151
      2          1           0       -3.352337   -2.338292    4.042057
      3          1           0       -2.088417   -2.384255    2.975579
      4          6           0       -3.092349   -0.629485    2.943372
      5          1           0       -4.143337   -0.338006    2.849403
      6          6           0       -2.359965   -0.292633    1.640928
      7          6           0       -2.505277    0.194203    4.133992
      8          1           0       -2.607795    1.264362    3.924849
      9          1           0       -3.136095   -0.014436    5.006081
     10          8           0       -1.391648   -0.974219    1.272101
     11          6           0       -1.066179   -0.098083    4.476751
     12          6           0       -0.741613   -1.034707    5.466606
     13          1           0       -1.537362   -1.566594    5.981622
     14          6           0       -0.026591    0.600539    3.842149
     15          1           0       -0.255716    1.312762    3.054346
     16          6           0        0.587808   -1.240553    5.855847
     17          1           0        0.814308   -1.927172    6.667801
     18          6           0        1.298453    0.398954    4.224200
     19          1           0        2.084285    0.981157    3.751580
     20          6           0        1.615236   -0.514638    5.239279
     21          1           0        2.643382   -0.629651    5.572901
     22          7           0       -2.794248    0.775951    0.937478
     23          6           0       -2.147600    1.146762   -0.326899
     24          1           0       -2.231650    0.313527   -1.031822
     25          6           0       -0.662943    1.452838   -0.088991
     26          6           0       -2.941710    2.384713   -0.800054
     27          1           0       -2.315285    3.084277   -1.358704
     28          1           0       -3.757817    2.064768   -1.456160
     29          8           0       -0.259581    1.998684    0.934023
     30          6           0       -3.494854    2.973791    0.503670
     31          1           0       -2.709545    3.530240    1.024072
     32          1           0       -4.351550    3.633778    0.348327
     33          6           0       -3.857218    1.726735    1.313254
     34          1           0       -4.840569    1.331235    1.027401
     35          1           0       -3.860248    1.915476    2.387059
     36          7           0        0.154597    1.075753   -1.109889
     37          1           0       -0.241524    0.528654   -1.867509
     38          6           0        1.559975    0.767294   -0.868728
     39          1           0        2.097300    1.656061   -0.530419
     40          6           0        2.141489    0.280364   -2.182882
     41          6           0        1.604229   -0.345154    0.204577
     42          1           0        0.833196   -1.062768   -0.089988
     43          1           0        1.242441    0.126680    1.121131
     44          8           0        1.482029   -0.198818   -3.079275
     45          6           0        2.909987   -1.086934    0.487103
     46          1           0        3.139755   -1.790080   -0.321700
     47          1           0        3.759878   -0.399700    0.550696
     48          6           0        2.793249   -1.839023    1.830022
     49          1           0        2.848679   -1.106763    2.642546
     50          1           0        3.636387   -2.531385    1.952207
     51          6           0        1.471320   -2.594882    1.961367
     52          1           0        0.594207   -1.960483    1.817846
     53          1           0        1.406255   -3.449784    1.283210
     54          7           0        1.326882   -3.140856    3.371621
     55          1           0        0.448553   -3.656728    3.485581
     56          1           0        1.312458   -2.361961    4.066172
     57          1           0        2.098478   -3.768922    3.620343
     58          8           0        3.481687    0.390306   -2.208887
     59          1           0        3.784689    0.026387   -3.063561
 ---------------------------------------------------------------------

 SCF Done:  E(RB3LYP) =  -1300.65887113     A.U. after    1 cycles

 Alpha  occ. eigenvalues --  -19.29808 -19.24180 -19.21841 -19.21109 -14.60685
 Alpha  occ. eigenvalues --  -14.46459 -14.45149 -14.41302 -10.42119 -10.38456
 Alpha  occ. eigenvalues --  -10.38197 -10.38088 -10.33806 -10.32702 -10.32568
 Alpha  occ. eigenvalues --  -10.32502 -10.31925 -10.31344 -10.31174 -10.31170
 Alpha  occ. eigenvalues --  -10.30784 -10.30644 -10.30251 -10.29630 -10.29545
 Alpha  occ. eigenvalues --  -10.28958 -10.28499 -10.27918  -1.20771  -1.15096
 Alpha  occ. eigenvalues --   -1.13931  -1.12619  -1.11834  -1.04230  -1.02346
 Alpha  occ. eigenvalues --   -0.99111  -0.97060  -0.93749  -0.89712  -0.88786
 Alpha  occ. eigenvalues --   -0.88167  -0.86076  -0.85051  -0.82979  -0.81995
 Alpha  occ. eigenvalues --   -0.78114  -0.76705  -0.74227  -0.73680  -0.73335
 Alpha  occ. eigenvalues --   -0.72007  -0.71602  -0.69811  -0.69501  -0.68459
 Alpha  occ. eigenvalues --   -0.67015  -0.65470  -0.63823  -0.63339  -0.62107
 Alpha  occ. eigenvalues --   -0.61265  -0.60607  -0.58921  -0.58681  -0.57584
 Alpha  occ. eigenvalues --   -0.56887  -0.56519  -0.56400  -0.55951  -0.55566
 Alpha  occ. eigenvalues --   -0.55066  -0.54397  -0.54202  -0.53544  -0.53324
 Alpha  occ. eigenvalues --   -0.52156  -0.51970  -0.51077  -0.50935  -0.50545
 Alpha  occ. eigenvalues --   -0.50303  -0.50031  -0.49137  -0.48456  -0.48032
 Alpha  occ. eigenvalues --   -0.47359  -0.46859  -0.46505  -0.45752  -0.45231
 Alpha  occ. eigenvalues --   -0.44987  -0.44535  -0.44356  -0.44219  -0.43478
 Alpha  occ. eigenvalues --   -0.42980  -0.41780  -0.37990  -0.37062  -0.36826
 Alpha  occ. eigenvalues --   -0.35631  -0.35422  -0.35138  -0.33848  -0.32859
 Alpha virt. eigenvalues --   -0.12705  -0.12518  -0.12023  -0.09292  -0.08315
 Alpha virt. eigenvalues --   -0.07680  -0.06470  -0.03633  -0.02653  -0.01747
 Alpha virt. eigenvalues --   -0.01342  -0.00716  -0.00053   0.00246   0.00531

 Mulliken charges:
               1
     1  N   -0.700343
     2  H    0.302300
     3  H    0.283766
     4  C   -0.071635
     5  H    0.170029
     6  C    0.650240
     7  C   -0.391148
     8  H    0.175963
     9  H    0.167143
    10  O   -0.573094
    11  C    0.179055
    12  C   -0.199442
    13  H    0.147661
    14  C   -0.183584
    15  H    0.215755
    16  C   -0.191635
    17  H    0.160212
    18  C   -0.145506
    19  H    0.165430
    20  C   -0.194716
    21  H    0.160329
    22  N   -0.440047
    23  C   -0.058457
    24  H    0.168837
    25  C    0.652506
    26  C   -0.310607
    27  H    0.181440
    28  H    0.171116
    29  O   -0.533498
    30  C   -0.295221
    31  H    0.182865
    32  H    0.172211
    33  C   -0.141715
    34  H    0.174133
    35  H    0.171031
    36  N   -0.610006
    37  H    0.354495
    38  C   -0.033691
    39  H    0.200838
    40  C    0.585902
    41  C   -0.316242
    42  H    0.172476
    43  H    0.192207
    44  O   -0.458490
    45  C   -0.270753
    46  H    0.159518
    47  H    0.177444
    48  C   -0.298404
    49  H    0.166813
    50  H    0.158808
    51  C   -0.232984
    52  H    0.275286
    53  H    0.206774
    54  N   -0.753291
    55  H    0.413880
    56  H    0.416922
    57  H    0.405376
    58  O   -0.562275
    59  H    0.428023
 Sum of Mulliken charges =   1.00000

 Dipole moment (field-independent basis, Debye):
    X=              2.8395    Y=             -8.0727    Z=             12.7712  Tot=             15.3732
 Quadrupole moment (field-independent basis, Debye-Ang):
   XX=           -120.1321   YY=           -125.2852   ZZ=            -99.7038
   XY=            -29.8340   XZ=              2.0870   YZ=            -41.5849

 Normal termination of Gaussian 16 at Thu Jun 23 11:08:27 2022.
