 Gaussian 16, Revision C.01,
 Gaussian 16:  ES64L-G16RevC.01  3-Jul-2019

 ----------------------------------------------------------------------
 # B3LYP/6-31G* empiricaldispersion=gd3bj guess=read geom=check nosymm
 integral(ultrafinegrid)
 ----------------------------------------------------------------------

 -----------------------------------------------------
 Candidate Structure: Conf:62 Charge calc in gas phase
 -----------------------------------------------------
 Structure from the checkpoint file:  "conf-62.chk"
 Charge =  1 Multiplicity = 1

                          Input orientation:
 ---------------------------------------------------------------------
 Center     Atomic      Atomic             Coordinates (Angstroms)
 Number     Number       Type             X           Y           Z
 ---------------------------------------------------------------------
      1          7           0       -3.325028    2.622426    2.589154
      2          1           0       -2.973574    1.717985    2.910529
      3          1           0       -4.308169    2.657922    2.849254
      4          6           0       -3.187957    2.634929    1.139764
      5          1           0       -3.966981    3.263367    0.702138
      6          6           0       -3.154164    1.215085    0.546753
      7          6           0       -1.785026    3.176908    0.738964
      8          1           0       -1.078541    2.488863    1.218966
      9          1           0       -1.638948    3.045624   -0.337594
     10          8           0       -2.681680    0.303304    1.235088
     11          6           0       -1.461635    4.593422    1.131834
     12          6           0       -1.286998    5.578510    0.145960
     13          1           0       -1.481981    5.328907   -0.894491
     14          6           0       -1.207769    4.934575    2.474506
     15          1           0       -1.383606    4.187642    3.241198
     16          6           0       -0.857911    6.864070    0.483071
     17          1           0       -0.732019    7.612670   -0.293684
     18          6           0       -0.778468    6.222548    2.810854
     19          1           0       -0.594879    6.473064    3.851639
     20          6           0       -0.593913    7.186906    1.816839
     21          1           0       -0.259714    8.185689    2.080477
     22          7           0       -3.431407    1.036243   -0.766770
     23          6           0       -2.836765   -0.131750   -1.437042
     24          1           0       -3.213041   -1.056527   -0.992846
     25          6           0       -1.312902   -0.024199   -1.255312
     26          6           0       -3.271635    0.036477   -2.903665
     27          1           0       -2.556447   -0.408124   -3.600009
     28          1           0       -4.236768   -0.460241   -3.047641
     29          8           0       -0.706696    1.007879   -1.560369
     30          6           0       -3.408991    1.557362   -3.075370
     31          1           0       -2.423407    1.996535   -3.244707
     32          1           0       -4.066167    1.833560   -3.903605
     33          6           0       -3.957584    2.027276   -1.720978
     34          1           0       -5.054108    2.016059   -1.700541
     35          1           0       -3.623662    3.037453   -1.472289
     36          7           0       -0.698906   -1.109540   -0.736228
     37          1           0       -1.269488   -1.850369   -0.352260
     38          6           0        0.694241   -1.055214   -0.323059
     39          1           0        1.249171   -0.578138   -1.138523
     40          6           0        1.299802   -2.445726   -0.173212
     41          6           0        0.916507   -0.231989    0.982634
     42          1           0        1.566740   -0.795838    1.658169
     43          1           0       -0.056584   -0.111121    1.470774
     44          8           0        2.431761   -2.627741    0.207901
     45          6           0        1.548199    1.142628    0.723316
     46          1           0        2.537223    1.002499    0.265675
     47          1           0        0.920248    1.660607   -0.012131
     48          6           0        1.700166    1.947520    2.020968
     49          1           0        2.306013    1.380420    2.737654
     50          1           0        0.723419    2.095152    2.500367
     51          6           0        2.388905    3.297340    1.847496
     52          1           0        2.500633    3.829591    2.794517
     53          1           0        3.369647    3.197900    1.375866
     54          7           0        1.568552    4.207010    0.954979
     55          1           0        2.020404    5.110809    0.785111
     56          1           0        0.634882    4.411787    1.372529
     57          1           0        1.387434    3.765191    0.047080
     58          8           0        0.447607   -3.439344   -0.500239
     59          1           0        0.929345   -4.278979   -0.369541
 ---------------------------------------------------------------------

 SCF Done:  E(RB3LYP) =  -1300.65510869     A.U. after    1 cycles

 Alpha  occ. eigenvalues --  -19.29409 -19.23170 -19.21525 -19.21229 -14.60409
 Alpha  occ. eigenvalues --  -14.45929 -14.45929 -14.40629 -10.41698 -10.39541
 Alpha  occ. eigenvalues --  -10.38446 -10.37685 -10.34022 -10.32809 -10.32678
 Alpha  occ. eigenvalues --  -10.32503 -10.31845 -10.31544 -10.30806 -10.30751
 Alpha  occ. eigenvalues --  -10.30709 -10.30523 -10.30474 -10.30281 -10.29833
 Alpha  occ. eigenvalues --  -10.29196 -10.28364 -10.27793  -1.20200  -1.15118
 Alpha  occ. eigenvalues --   -1.13980  -1.12627  -1.11135  -1.03824  -1.02660
 Alpha  occ. eigenvalues --   -0.98719  -0.97047  -0.93855  -0.89622  -0.88874
 Alpha  occ. eigenvalues --   -0.88468  -0.86059  -0.85360  -0.83160  -0.82419
 Alpha  occ. eigenvalues --   -0.77648  -0.75987  -0.73836  -0.73269  -0.72858
 Alpha  occ. eigenvalues --   -0.71978  -0.71356  -0.70484  -0.69323  -0.69282
 Alpha  occ. eigenvalues --   -0.67668  -0.65156  -0.64249  -0.63140  -0.62013
 Alpha  occ. eigenvalues --   -0.61245  -0.60549  -0.59478  -0.58426  -0.57856
 Alpha  occ. eigenvalues --   -0.56973  -0.56863  -0.56476  -0.55981  -0.55775
 Alpha  occ. eigenvalues --   -0.55022  -0.54443  -0.54150  -0.53336  -0.53186
 Alpha  occ. eigenvalues --   -0.52281  -0.51698  -0.51173  -0.50620  -0.50392
 Alpha  occ. eigenvalues --   -0.49914  -0.49427  -0.48826  -0.48125  -0.47846
 Alpha  occ. eigenvalues --   -0.47392  -0.46869  -0.46178  -0.45446  -0.45218
 Alpha  occ. eigenvalues --   -0.44967  -0.44855  -0.44589  -0.44197  -0.43681
 Alpha  occ. eigenvalues --   -0.43337  -0.41001  -0.37482  -0.37273  -0.36679
 Alpha  occ. eigenvalues --   -0.36046  -0.35519  -0.35052  -0.33385  -0.32957
 Alpha virt. eigenvalues --   -0.12639  -0.12455  -0.11053  -0.09087  -0.08272
 Alpha virt. eigenvalues --   -0.07267  -0.05445  -0.04088  -0.02541  -0.01796
 Alpha virt. eigenvalues --   -0.01746  -0.01228  -0.00232  -0.00135   0.00782

 Mulliken charges:
               1
     1  N   -0.719176
     2  H    0.324166
     3  H    0.320003
     4  C   -0.064990
     5  H    0.156591
     6  C    0.589606
     7  C   -0.388477
     8  H    0.151405
     9  H    0.185256
    10  O   -0.549609
    11  C    0.106906
    12  C   -0.209070
    13  H    0.151333
    14  C   -0.209493
    15  H    0.181255
    16  C   -0.138966
    17  H    0.164362
    18  C   -0.130164
    19  H    0.165810
    20  C   -0.144619
    21  H    0.165914
    22  N   -0.425013
    23  C   -0.058852
    24  H    0.169640
    25  C    0.649970
    26  C   -0.303396
    27  H    0.175742
    28  H    0.171414
    29  O   -0.559359
    30  C   -0.299585
    31  H    0.178809
    32  H    0.166867
    33  C   -0.129771
    34  H    0.173905
    35  H    0.155538
    36  N   -0.595002
    37  H    0.359245
    38  C   -0.036373
    39  H    0.207583
    40  C    0.576363
    41  C   -0.294993
    42  H    0.182358
    43  H    0.190685
    44  O   -0.447960
    45  C   -0.314966
    46  H    0.160739
    47  H    0.171283
    48  C   -0.299316
    49  H    0.196875
    50  H    0.176856
    51  C   -0.200277
    52  H    0.216813
    53  H    0.214836
    54  N   -0.753100
    55  H    0.415724
    56  H    0.417369
    57  H    0.417916
    58  O   -0.567244
    59  H    0.430633
 Sum of Mulliken charges =   1.00000

 Dipole moment (field-independent basis, Debye):
    X=              0.3732    Y=             15.1516    Z=              2.1259  Tot=             15.3046
 Quadrupole moment (field-independent basis, Debye-Ang):
   XX=           -131.0253   YY=            -65.8385   ZZ=           -146.1297
   XY=             18.6040   XZ=             16.0678   YZ=             19.5168

 Normal termination of Gaussian 16 at Thu Jun 23 11:08:26 2022.
