 Gaussian 16, Revision C.01,
 Gaussian 16:  ES64L-G16RevC.01  3-Jul-2019

 ----------------------------------------------------------------------
 # B3LYP/6-31G* empiricaldispersion=gd3bj guess=read geom=check nosymm
 integral(ultrafinegrid)
 ----------------------------------------------------------------------

 ------------------------------------------------------
 Candidate Structure: Conf:883 Charge calc in gas phase
 ------------------------------------------------------
 Structure from the checkpoint file:  "conf-883.chk"
 Charge =  1 Multiplicity = 1

                          Input orientation:
 ---------------------------------------------------------------------
 Center     Atomic      Atomic             Coordinates (Angstroms)
 Number     Number       Type             X           Y           Z
 ---------------------------------------------------------------------
      1          7           0       -3.702794    2.020976    1.923846
      2          1           0       -4.220202    1.150050    2.039426
      3          1           0       -4.248196    2.738738    2.399713
      4          6           0       -3.641823    2.360000    0.493934
      5          1           0       -4.641138    2.433740    0.037684
      6          6           0       -2.892351    1.237032   -0.230600
      7          6           0       -2.970127    3.748751    0.316316
      8          1           0       -2.978091    4.014742   -0.744139
      9          1           0       -3.614872    4.479089    0.819672
     10          8           0       -2.148184    0.451001    0.393660
     11          6           0       -1.562327    3.854920    0.849255
     12          6           0       -1.319625    4.372025    2.129164
     13          1           0       -2.153831    4.710876    2.737738
     14          6           0       -0.474962    3.441398    0.068157
     15          1           0       -0.635872    3.030867   -0.924234
     16          6           0       -0.017025    4.465069    2.628640
     17          1           0        0.155109    4.878329    3.618209
     18          6           0        0.827286    3.543781    0.560314
     19          1           0        1.659849    3.239349   -0.066315
     20          6           0        1.062529    4.049804    1.841986
     21          1           0        2.077333    4.139204    2.218055
     22          7           0       -3.069350    1.080269   -1.548964
     23          6           0       -2.357582   -0.005682   -2.245960
     24          1           0       -2.629972   -0.961619   -1.788812
     25          6           0       -0.840247    0.210238   -2.141951
     26          6           0       -2.857995    0.109849   -3.702318
     27          1           0       -2.092658   -0.190991   -4.421358
     28          1           0       -3.727073   -0.541525   -3.841802
     29          8           0       -0.334044    1.318634   -2.302314
     30          6           0       -3.258424    1.585478   -3.833413
     31          1           0       -2.365705    2.201398   -3.971837
     32          1           0       -3.950093    1.771497   -4.658122
     33          6           0       -3.884570    1.894197   -2.470983
     34          1           0       -4.933098    1.573023   -2.424893
     35          1           0       -3.834138    2.952393   -2.216497
     36          7           0       -0.127733   -0.914839   -1.909711
     37          1           0       -0.610328   -1.785480   -1.738932
     38          6           0        1.313891   -0.897827   -1.693212
     39          1           0        1.786491   -0.385268   -2.538607
     40          6           0        1.887138   -2.308844   -1.665060
     41          6           0        1.715071   -0.149273   -0.401708
     42          1           0        1.504226    0.910290   -0.564599
     43          1           0        2.796011   -0.264934   -0.274315
     44          8           0        3.055695   -2.545209   -1.482529
     45          6           0        0.951383   -0.632566    0.834028
     46          1           0       -0.117733   -0.541820    0.625200
     47          1           0        1.145142   -1.698195    1.014366
     48          6           0        1.316081    0.167011    2.098341
     49          1           0        1.601602    1.191796    1.831224
     50          1           0        2.191449   -0.272579    2.588157
     51          6           0        0.189157    0.239715    3.128016
     52          1           0       -0.284158   -0.733416    3.283748
     53          1           0        0.546842    0.610208    4.091965
     54          7           0       -0.887041    1.184434    2.669834
     55          1           0       -1.675306    1.264786    3.318279
     56          1           0       -1.346993    0.911064    1.755279
     57          1           0       -0.521347    2.138346    2.552518
     58          8           0        0.949149   -3.272703   -1.837369
     59          1           0        1.415665   -4.129937   -1.802732
 ---------------------------------------------------------------------

 SCF Done:  E(RB3LYP) =  -1300.69962249     A.U. after    1 cycles

 Alpha  occ. eigenvalues --  -19.30004 -19.25068 -19.23556 -19.21937 -14.54391
 Alpha  occ. eigenvalues --  -14.49110 -14.46516 -14.45038 -10.42026 -10.41392
 Alpha  occ. eigenvalues --  -10.39167 -10.36273 -10.35413 -10.34415 -10.34025
 Alpha  occ. eigenvalues --  -10.33817 -10.31176 -10.30794 -10.30488 -10.30142
 Alpha  occ. eigenvalues --  -10.30087 -10.29948 -10.29872 -10.29672 -10.29279
 Alpha  occ. eigenvalues --  -10.29102 -10.28696 -10.28441  -1.20626  -1.16865
 Alpha  occ. eigenvalues --   -1.13826  -1.11563  -1.09913  -1.06527  -1.03250
 Alpha  occ. eigenvalues --   -1.01946  -0.96631  -0.91887  -0.91243  -0.89248
 Alpha  occ. eigenvalues --   -0.88487  -0.86016  -0.85292  -0.83383  -0.82192
 Alpha  occ. eigenvalues --   -0.78326  -0.76179  -0.74693  -0.72320  -0.71732
 Alpha  occ. eigenvalues --   -0.71309  -0.70027  -0.69122  -0.68815  -0.67723
 Alpha  occ. eigenvalues --   -0.67216  -0.66510  -0.63941  -0.63599  -0.61881
 Alpha  occ. eigenvalues --   -0.61412  -0.61107  -0.60443  -0.58385  -0.58084
 Alpha  occ. eigenvalues --   -0.57812  -0.57536  -0.56964  -0.56424  -0.56118
 Alpha  occ. eigenvalues --   -0.55528  -0.54864  -0.54445  -0.53652  -0.52949
 Alpha  occ. eigenvalues --   -0.52556  -0.52051  -0.51724  -0.51466  -0.51075
 Alpha  occ. eigenvalues --   -0.50497  -0.50239  -0.49792  -0.48937  -0.48619
 Alpha  occ. eigenvalues --   -0.47974  -0.47578  -0.46571  -0.46113  -0.45279
 Alpha  occ. eigenvalues --   -0.44957  -0.44788  -0.44603  -0.44520  -0.43937
 Alpha  occ. eigenvalues --   -0.43334  -0.41684  -0.38926  -0.38039  -0.37601
 Alpha  occ. eigenvalues --   -0.37510  -0.36130  -0.35842  -0.35649  -0.35012
 Alpha virt. eigenvalues --   -0.12109  -0.11533  -0.10750  -0.09192  -0.08063
 Alpha virt. eigenvalues --   -0.06150  -0.03963  -0.02807  -0.01776  -0.00941
 Alpha virt. eigenvalues --   -0.00466  -0.00037   0.00748   0.01083   0.01116

 Mulliken charges:
               1
     1  N   -0.755626
     2  H    0.323072
     3  H    0.322224
     4  C   -0.074700
     5  H    0.161467
     6  C    0.643044
     7  C   -0.387706
     8  H    0.183946
     9  H    0.172438
    10  O   -0.581909
    11  C    0.174116
    12  C   -0.202116
    13  H    0.141289
    14  C   -0.204357
    15  H    0.199830
    16  C   -0.168634
    17  H    0.160903
    18  C   -0.156237
    19  H    0.167067
    20  C   -0.146979
    21  H    0.162078
    22  N   -0.428135
    23  C   -0.061811
    24  H    0.166488
    25  C    0.661759
    26  C   -0.311934
    27  H    0.185990
    28  H    0.171197
    29  O   -0.533189
    30  C   -0.296012
    31  H    0.193095
    32  H    0.176800
    33  C   -0.147771
    34  H    0.175929
    35  H    0.178066
    36  N   -0.624387
    37  H    0.360258
    38  C   -0.038006
    39  H    0.213845
    40  C    0.592397
    41  C   -0.295482
    42  H    0.175147
    43  H    0.182658
    44  O   -0.441348
    45  C   -0.311412
    46  H    0.177928
    47  H    0.154699
    48  C   -0.286969
    49  H    0.162813
    50  H    0.183744
    51  C   -0.188104
    52  H    0.197918
    53  H    0.193679
    54  N   -0.785629
    55  H    0.391898
    56  H    0.468780
    57  H    0.406612
    58  O   -0.585710
    59  H    0.430989
 Sum of Mulliken charges =   1.00000

 Dipole moment (field-independent basis, Debye):
    X=            -10.0600    Y=              4.5830    Z=              4.4720  Tot=             11.9250
 Quadrupole moment (field-independent basis, Debye-Ang):
   XX=           -122.4902   YY=           -131.4703   ZZ=           -118.6404
   XY=            -17.1694   XZ=              6.8645   YZ=             17.9671

 Normal termination of Gaussian 16 at Thu Jun 23 11:08:29 2022.
