 Gaussian 16, Revision C.01,
 Gaussian 16:  ES64L-G16RevC.01  3-Jul-2019

 ----------------------------------------------------------------------
 # B3LYP/6-31G* empiricaldispersion=gd3bj guess=read geom=check nosymm
 integral(ultrafinegrid)
 ----------------------------------------------------------------------

 ------------------------------------------------------
 Candidate Structure: Conf:123 Charge calc in gas phase
 ------------------------------------------------------
 Structure from the checkpoint file:  "conf-123.chk"
 Charge =  1 Multiplicity = 1

                          Input orientation:
 ---------------------------------------------------------------------
 Center     Atomic      Atomic             Coordinates (Angstroms)
 Number     Number       Type             X           Y           Z
 ---------------------------------------------------------------------
      1          7           0       -4.707701    3.071277    0.968895
      2          1           0       -4.374396    2.493562    1.742122
      3          1           0       -5.697525    2.861019    0.857684
      4          6           0       -3.971065    2.679226   -0.220929
      5          1           0       -4.530017    2.977992   -1.110817
      6          6           0       -3.582918    1.192233   -0.237137
      7          6           0       -2.570794    3.355867   -0.241566
      8          1           0       -2.135990    3.128049    0.740830
      9          1           0       -1.969622    2.827828   -0.988972
     10          8           0       -3.260219    0.640164    0.820134
     11          6           0       -2.490897    4.834549   -0.514512
     12          6           0       -1.770002    5.288898   -1.629046
     13          1           0       -1.350653    4.564195   -2.327259
     14          6           0       -3.071202    5.778119    0.346125
     15          1           0       -3.645952    5.427613    1.196459
     16          6           0       -1.624903    6.655400   -1.882814
     17          1           0       -1.071642    6.990224   -2.755525
     18          6           0       -2.932409    7.140308    0.088329
     19          1           0       -3.391846    7.862427    0.756906
     20          6           0       -2.205688    7.583699   -1.020835
     21          1           0       -2.099377    8.646973   -1.213105
     22          7           0       -3.381556    0.576448   -1.431059
     23          6           0       -2.487728   -0.586441   -1.474183
     24          1           0       -2.918310   -1.416773   -0.906143
     25          6           0       -1.141076   -0.171298   -0.875762
     26          6           0       -2.357737   -0.902087   -2.984797
     27          1           0       -1.431191   -0.464864   -3.368040
     28          1           0       -2.332783   -1.977531   -3.172290
     29          8           0       -0.575940    0.855095   -1.309631
     30          6           0       -3.569161   -0.200773   -3.622269
     31          1           0       -3.416685    0.022488   -4.680842
     32          1           0       -4.465334   -0.822784   -3.529364
     33          6           0       -3.728224    1.062677   -2.772144
     34          1           0       -4.745152    1.460470   -2.787232
     35          1           0       -3.036767    1.852520   -3.096412
     36          7           0       -0.609268   -0.949157    0.073329
     37          1           0       -1.155443   -1.721141    0.434525
     38          6           0        0.667000   -0.665034    0.714021
     39          1           0        1.207748    0.007151    0.047951
     40          6           0        1.531131   -1.913688    0.846808
     41          6           0        0.497209   -0.034969    2.119309
     42          1           0        1.495168    0.059510    2.563876
     43          1           0       -0.046481   -0.762006    2.732870
     44          8           0        2.731743   -1.873902    0.954200
     45          6           0       -0.252954    1.309179    2.153835
     46          1           0       -1.029124    1.323808    1.384885
     47          1           0       -0.807870    1.360968    3.096162
     48          6           0        0.623419    2.573564    2.110150
     49          1           0        1.302723    2.566321    2.971320
     50          1           0       -0.015212    3.457312    2.243116
     51          6           0        1.510892    2.795849    0.888874
     52          1           0        2.129484    3.686463    1.020979
     53          1           0        2.171835    1.948293    0.692730
     54          7           0        0.705727    3.005849   -0.372199
     55          1           0        1.313661    3.255081   -1.158257
     56          1           0        0.019680    3.768020   -0.274388
     57          1           0        0.184505    2.123644   -0.656887
     58          8           0        0.791822   -3.041308    0.902411
     59          1           0        1.405826   -3.789021    1.038111
 ---------------------------------------------------------------------

 SCF Done:  E(RB3LYP) =  -1300.66843309     A.U. after    1 cycles

 Alpha  occ. eigenvalues --  -19.31349 -19.26149 -19.25249 -19.22230 -14.57932
 Alpha  occ. eigenvalues --  -14.50006 -14.47206 -14.40795 -10.43642 -10.42648
 Alpha  occ. eigenvalues --  -10.38595 -10.38582 -10.36611 -10.35048 -10.33007
 Alpha  occ. eigenvalues --  -10.32626 -10.32593 -10.31383 -10.30473 -10.30147
 Alpha  occ. eigenvalues --  -10.29662 -10.29492 -10.29154 -10.28567 -10.28022
 Alpha  occ. eigenvalues --  -10.27583 -10.27524 -10.27188  -1.22111  -1.17713
 Alpha  occ. eigenvalues --   -1.14217  -1.13218  -1.12880  -1.06524  -1.05307
 Alpha  occ. eigenvalues --   -0.98652  -0.94499  -0.93830  -0.91061  -0.90037
 Alpha  occ. eigenvalues --   -0.87505  -0.86593  -0.84345  -0.83263  -0.81575
 Alpha  occ. eigenvalues --   -0.78637  -0.76710  -0.74546  -0.73547  -0.72400
 Alpha  occ. eigenvalues --   -0.72123  -0.71471  -0.70567  -0.69839  -0.69427
 Alpha  occ. eigenvalues --   -0.67345  -0.66811  -0.63926  -0.63388  -0.62703
 Alpha  occ. eigenvalues --   -0.62353  -0.60577  -0.59462  -0.59385  -0.59236
 Alpha  occ. eigenvalues --   -0.58662  -0.58440  -0.57246  -0.56031  -0.55483
 Alpha  occ. eigenvalues --   -0.54843  -0.54477  -0.54052  -0.53590  -0.53311
 Alpha  occ. eigenvalues --   -0.52714  -0.52479  -0.52063  -0.51326  -0.51169
 Alpha  occ. eigenvalues --   -0.50948  -0.50626  -0.50149  -0.49532  -0.48250
 Alpha  occ. eigenvalues --   -0.47219  -0.46700  -0.46602  -0.46206  -0.45860
 Alpha  occ. eigenvalues --   -0.45804  -0.45525  -0.44618  -0.43762  -0.43144
 Alpha  occ. eigenvalues --   -0.43057  -0.42734  -0.41054  -0.40322  -0.37896
 Alpha  occ. eigenvalues --   -0.36522  -0.35274  -0.34303  -0.33650  -0.32626
 Alpha virt. eigenvalues --   -0.12135  -0.10667  -0.10153  -0.10061  -0.08609
 Alpha virt. eigenvalues --   -0.08102  -0.04343  -0.03865  -0.03557  -0.02454
 Alpha virt. eigenvalues --   -0.01780  -0.01086  -0.00104   0.00220   0.00547

 Mulliken charges:
               1
     1  N   -0.700804
     2  H    0.319949
     3  H    0.318380
     4  C   -0.059305
     5  H    0.156701
     6  C    0.573352
     7  C   -0.406538
     8  H    0.153939
     9  H    0.150353
    10  O   -0.550084
    11  C    0.153959
    12  C   -0.234570
    13  H    0.113368
    14  C   -0.169199
    15  H    0.173916
    16  C   -0.126862
    17  H    0.145992
    18  C   -0.129872
    19  H    0.155004
    20  C   -0.126251
    21  H    0.154325
    22  N   -0.425651
    23  C   -0.020943
    24  H    0.173957
    25  C    0.657261
    26  C   -0.320773
    27  H    0.177752
    28  H    0.179025
    29  O   -0.603852
    30  C   -0.297470
    31  H    0.176098
    32  H    0.175381
    33  C   -0.132288
    34  H    0.181425
    35  H    0.161957
    36  N   -0.562990
    37  H    0.371472
    38  C   -0.079085
    39  H    0.175418
    40  C    0.601434
    41  C   -0.283188
    42  H    0.179231
    43  H    0.177231
    44  O   -0.437506
    45  C   -0.305370
    46  H    0.188160
    47  H    0.182321
    48  C   -0.298378
    49  H    0.190707
    50  H    0.174071
    51  C   -0.200242
    52  H    0.211809
    53  H    0.212315
    54  N   -0.790125
    55  H    0.403428
    56  H    0.410198
    57  H    0.466629
    58  O   -0.571892
    59  H    0.436721
 Sum of Mulliken charges =   1.00000

 Dipole moment (field-independent basis, Debye):
    X=             -3.0578    Y=              7.7688    Z=             -2.3108  Tot=              8.6628
 Quadrupole moment (field-independent basis, Debye-Ang):
   XX=           -139.6777   YY=           -101.8232   ZZ=           -142.2417
   XY=              2.9497   XZ=             12.9800   YZ=             -4.1423

 Normal termination of Gaussian 16 at Thu Jun 23 11:08:36 2022.
