 Gaussian 16, Revision C.01,
 Gaussian 16:  ES64L-G16RevC.01  3-Jul-2019

 ----------------------------------------------------------------------
 # B3LYP/6-31G* empiricaldispersion=gd3bj guess=read geom=check nosymm
 integral(ultrafinegrid)
 ----------------------------------------------------------------------

 ------------------------------------------------------
 Candidate Structure: Conf:876 Charge calc in gas phase
 ------------------------------------------------------
 Structure from the checkpoint file:  "conf-876.chk"
 Charge =  1 Multiplicity = 1

                          Input orientation:
 ---------------------------------------------------------------------
 Center     Atomic      Atomic             Coordinates (Angstroms)
 Number     Number       Type             X           Y           Z
 ---------------------------------------------------------------------
      1          7           0       -4.055858    4.148651   -1.310757
      2          1           0       -3.288638    4.652921   -0.877747
      3          1           0       -4.750224    3.989427   -0.584083
      4          6           0       -3.605286    2.885719   -1.875809
      5          1           0       -4.493527    2.420501   -2.317880
      6          6           0       -3.064417    1.896353   -0.823918
      7          6           0       -2.638125    3.114556   -3.054781
      8          1           0       -2.422600    2.146511   -3.522433
      9          1           0       -3.209768    3.696636   -3.787116
     10          8           0       -2.374194    2.242004    0.140575
     11          6           0       -1.312471    3.824671   -2.832116
     12          6           0       -0.505547    4.018673   -3.967626
     13          1           0       -0.853444    3.657276   -4.932337
     14          6           0       -0.834695    4.293717   -1.603024
     15          1           0       -1.388891    4.103173   -0.692646
     16          6           0        0.724059    4.673042   -3.882909
     17          1           0        1.319918    4.819109   -4.779546
     18          6           0        0.390097    4.964421   -1.517244
     19          1           0        0.731184    5.324276   -0.550905
     20          6           0        1.173950    5.161136   -2.650222
     21          1           0        2.123661    5.682514   -2.581093
     22          7           0       -3.426134    0.582479   -0.936309
     23          6           0       -3.172383   -0.302164    0.200680
     24          1           0       -3.685256    0.056468    1.097206
     25          6           0       -1.698915   -0.337847    0.594720
     26          6           0       -3.731099   -1.671168   -0.272322
     27          1           0       -3.129856   -2.515729    0.078521
     28          1           0       -4.736137   -1.801690    0.138843
     29          8           0       -1.351739   -0.447740    1.764081
     30          6           0       -3.789937   -1.560437   -1.805873
     31          1           0       -2.816194   -1.792003   -2.253500
     32          1           0       -4.526409   -2.234621   -2.249230
     33          6           0       -4.129423   -0.083954   -2.040965
     34          1           0       -5.212023    0.089364   -1.982674
     35          1           0       -3.768847    0.279942   -3.004698
     36          7           0       -0.774543   -0.420782   -0.458356
     37          1           0       -1.240857   -0.362781   -1.368383
     38          6           0        0.367463    0.530182   -0.523013
     39          1           0        0.160649    1.370189    0.150217
     40          6           0        0.341809    1.099417   -1.944893
     41          6           0        1.736124   -0.083171   -0.180683
     42          1           0        2.508713    0.608954   -0.522504
     43          1           0        1.863232   -0.990991   -0.785482
     44          8           0       -0.497960    0.781800   -2.767141
     45          6           0        1.903656   -0.358636    1.331468
     46          1           0        2.575905    0.386988    1.766091
     47          1           0        0.943818   -0.210001    1.836209
     48          6           0        2.452568   -1.747499    1.696101
     49          1           0        2.445673   -1.851568    2.787288
     50          1           0        3.497719   -1.849810    1.382455
     51          6           0        1.696262   -2.926018    1.076445
     52          1           0        1.973018   -3.099130    0.034600
     53          1           0        1.870112   -3.848334    1.633655
     54          7           0        0.201538   -2.680033    1.062034
     55          1           0       -0.326620   -3.550218    0.954767
     56          1           0       -0.073771   -2.027085    0.282585
     57          1           0       -0.143019   -2.190510    1.901319
     58          8           0        1.324933    1.965556   -2.145379
     59          1           0        1.151667    2.471144   -2.971461
 ---------------------------------------------------------------------

 SCF Done:  E(RB3LYP) =  -1300.65234631     A.U. after    3 cycles

 Alpha  occ. eigenvalues --  -19.30466 -19.26219 -19.25958 -19.22249 -14.59294
 Alpha  occ. eigenvalues --  -14.48561 -14.47393 -14.39777 -10.43876 -10.42539
 Alpha  occ. eigenvalues --  -10.39276 -10.38546 -10.36186 -10.34950 -10.33510
 Alpha  occ. eigenvalues --  -10.32852 -10.31800 -10.31692 -10.31468 -10.30853
 Alpha  occ. eigenvalues --  -10.30843 -10.28251 -10.27763 -10.27343 -10.27101
 Alpha  occ. eigenvalues --  -10.26948 -10.26886 -10.26559  -1.22138  -1.17828
 Alpha  occ. eigenvalues --   -1.14277  -1.14000  -1.13536  -1.06038  -1.04498
 Alpha  occ. eigenvalues --   -0.97619  -0.94179  -0.93619  -0.91183  -0.90126
 Alpha  occ. eigenvalues --   -0.87085  -0.85960  -0.84443  -0.82491  -0.80834
 Alpha  occ. eigenvalues --   -0.78565  -0.77060  -0.74163  -0.73308  -0.72683
 Alpha  occ. eigenvalues --   -0.71965  -0.71403  -0.70872  -0.69607  -0.68595
 Alpha  occ. eigenvalues --   -0.67807  -0.65784  -0.64300  -0.63452  -0.61467
 Alpha  occ. eigenvalues --   -0.60985  -0.60755  -0.60089  -0.58815  -0.58491
 Alpha  occ. eigenvalues --   -0.58127  -0.57848  -0.57126  -0.56156  -0.55725
 Alpha  occ. eigenvalues --   -0.55300  -0.54646  -0.54067  -0.53748  -0.53095
 Alpha  occ. eigenvalues --   -0.53044  -0.52329  -0.51657  -0.51085  -0.50854
 Alpha  occ. eigenvalues --   -0.50239  -0.50026  -0.49605  -0.48933  -0.48521
 Alpha  occ. eigenvalues --   -0.47412  -0.47358  -0.46578  -0.46323  -0.46142
 Alpha  occ. eigenvalues --   -0.45952  -0.45272  -0.44705  -0.44259  -0.42412
 Alpha  occ. eigenvalues --   -0.41857  -0.41136  -0.40671  -0.39744  -0.39192
 Alpha  occ. eigenvalues --   -0.36276  -0.35300  -0.33368  -0.32388  -0.31916
 Alpha virt. eigenvalues --   -0.13666  -0.10989  -0.10591  -0.09241  -0.08459
 Alpha virt. eigenvalues --   -0.08353  -0.04669  -0.04081  -0.03146  -0.02686
 Alpha virt. eigenvalues --   -0.00921  -0.00423  -0.00092   0.00392   0.00669

 Mulliken charges:
               1
     1  N   -0.693930
     2  H    0.324653
     3  H    0.310936
     4  C   -0.096757
     5  H    0.156612
     6  C    0.598644
     7  C   -0.352329
     8  H    0.173608
     9  H    0.190434
    10  O   -0.531935
    11  C    0.163315
    12  C   -0.202129
    13  H    0.142562
    14  C   -0.221565
    15  H    0.165674
    16  C   -0.174764
    17  H    0.153462
    18  C   -0.127639
    19  H    0.146287
    20  C   -0.128094
    21  H    0.150825
    22  N   -0.469463
    23  C   -0.026050
    24  H    0.203879
    25  C    0.601657
    26  C   -0.316208
    27  H    0.134713
    28  H    0.191881
    29  O   -0.507443
    30  C   -0.309587
    31  H    0.158549
    32  H    0.184195
    33  C   -0.135970
    34  H    0.177750
    35  H    0.191045
    36  N   -0.700935
    37  H    0.383770
    38  C   -0.051301
    39  H    0.233054
    40  C    0.622624
    41  C   -0.301865
    42  H    0.209003
    43  H    0.137489
    44  O   -0.490040
    45  C   -0.325678
    46  H    0.188773
    47  H    0.186715
    48  C   -0.297165
    49  H    0.181748
    50  H    0.192662
    51  C   -0.189554
    52  H    0.209668
    53  H    0.215421
    54  N   -0.777526
    55  H    0.404227
    56  H    0.432741
    57  H    0.430457
    58  O   -0.562284
    59  H    0.441179
 Sum of Mulliken charges =   1.00000

 Dipole moment (field-independent basis, Debye):
    X=             -1.4437    Y=             -7.7492    Z=             -1.2372  Tot=              7.9791
 Quadrupole moment (field-independent basis, Debye-Ang):
   XX=           -124.7325   YY=           -124.6061   ZZ=           -148.3035
   XY=              5.9172   XZ=              9.3809   YZ=            -16.2568

 Normal termination of Gaussian 16 at Thu Jun 23 11:08:49 2022.
