 Gaussian 16, Revision C.01,
 Gaussian 16:  ES64L-G16RevC.01  3-Jul-2019

 ----------------------------------------------------------------------
 # B3LYP/6-31G* empiricaldispersion=gd3bj guess=read geom=check nosymm
 integral(ultrafinegrid)
 ----------------------------------------------------------------------

 ------------------------------------------------------
 Candidate Structure: Conf:797 Charge calc in gas phase
 ------------------------------------------------------
 Structure from the checkpoint file:  "conf-797.chk"
 Charge =  1 Multiplicity = 1

                          Input orientation:
 ---------------------------------------------------------------------
 Center     Atomic      Atomic             Coordinates (Angstroms)
 Number     Number       Type             X           Y           Z
 ---------------------------------------------------------------------
      1          7           0       -3.585917   -1.557362   -3.575368
      2          1           0       -3.652269   -2.132927   -4.412148
      3          1           0       -3.046381   -0.724134   -3.803501
      4          6           0       -2.900301   -2.290128   -2.525879
      5          1           0       -3.577274   -3.068472   -2.158205
      6          6           0       -2.568376   -1.299943   -1.418406
      7          6           0       -1.557034   -2.979303   -2.938830
      8          1           0       -0.869716   -2.188853   -3.263165
      9          1           0       -1.104702   -3.463862   -2.062951
     10          8           0       -2.140534   -0.175258   -1.665160
     11          6           0       -1.766569   -3.991174   -4.034184
     12          6           0       -2.142918   -5.304512   -3.724825
     13          1           0       -2.225873   -5.605132   -2.682261
     14          6           0       -1.658108   -3.624378   -5.381713
     15          1           0       -1.355175   -2.611780   -5.636749
     16          6           0       -2.403492   -6.229456   -4.734174
     17          1           0       -2.688821   -7.245354   -4.476596
     18          6           0       -1.919848   -4.547281   -6.395743
     19          1           0       -1.826860   -4.247454   -7.435501
     20          6           0       -2.294202   -5.851778   -6.074151
     21          1           0       -2.495612   -6.571677   -6.861695
     22          7           0       -2.645154   -1.734147   -0.116590
     23          6           0       -2.388282   -0.765429    0.946534
     24          1           0       -2.910972    0.174505    0.752011
     25          6           0       -0.912332   -0.380469    1.055266
     26          6           0       -2.902760   -1.474531    2.220903
     27          1           0       -2.328293   -1.196996    3.108888
     28          1           0       -3.942875   -1.182537    2.394905
     29          8           0       -0.607609    0.642218    1.703279
     30          6           0       -2.816849   -2.968107    1.868887
     31          1           0       -1.789466   -3.331647    1.989212
     32          1           0       -3.469500   -3.591020    2.484879
     33          6           0       -3.206517   -2.999887    0.386350
     34          1           0       -4.295785   -3.022431    0.256972
     35          1           0       -2.778431   -3.854917   -0.142009
     36          7           0       -0.051734   -1.226552    0.483797
     37          1           0       -0.473987   -2.001104   -0.021068
     38          6           0        1.368835   -1.057551    0.220887
     39          1           0        1.498888   -0.381955   -0.637648
     40          6           0        1.863182   -2.429799   -0.243722
     41          6           0        2.179390   -0.483872    1.393721
     42          1           0        1.899587    0.567030    1.482428
     43          1           0        3.234281   -0.497988    1.105717
     44          8           0        1.131763   -3.365267   -0.482457
     45          6           0        1.987819   -1.241380    2.715612
     46          1           0        0.937841   -1.534698    2.834840
     47          1           0        2.557813   -2.175338    2.667962
     48          6           0        2.438236   -0.445585    3.954197
     49          1           0        3.339256    0.141778    3.729780
     50          1           0        2.726524   -1.137035    4.753684
     51          6           0        1.370159    0.456635    4.569090
     52          1           0        0.472042   -0.112333    4.823315
     53          1           0        1.739659    0.947370    5.472518
     54          7           0        0.906528    1.545014    3.628242
     55          1           0        0.253118    2.182320    4.094382
     56          1           0        0.383304    1.138703    2.779219
     57          1           0        1.694116    2.107725    3.293355
     58          8           0        3.195779   -2.456327   -0.385443
     59          1           0        3.437941   -3.336230   -0.734540
 ---------------------------------------------------------------------

 SCF Done:  E(RB3LYP) =  -1300.66223625     A.U. after    1 cycles

 Alpha  occ. eigenvalues --  -19.32131 -19.26695 -19.25641 -19.20541 -14.58844
 Alpha  occ. eigenvalues --  -14.48809 -14.46237 -14.37664 -10.44730 -10.42005
 Alpha  occ. eigenvalues --  -10.39588 -10.37244 -10.37132 -10.33839 -10.33820
 Alpha  occ. eigenvalues --  -10.32403 -10.32371 -10.32168 -10.30266 -10.29924
 Alpha  occ. eigenvalues --  -10.29558 -10.26523 -10.26136 -10.25251 -10.25163
 Alpha  occ. eigenvalues --  -10.25102 -10.25053 -10.24856  -1.23269  -1.16943
 Alpha  occ. eigenvalues --   -1.14435  -1.13694  -1.12858  -1.06330  -1.04034
 Alpha  occ. eigenvalues --   -0.95928  -0.94951  -0.91629  -0.91573  -0.89753
 Alpha  occ. eigenvalues --   -0.86424  -0.84783  -0.84231  -0.80584  -0.79208
 Alpha  occ. eigenvalues --   -0.79077  -0.76485  -0.74866  -0.74296  -0.72916
 Alpha  occ. eigenvalues --   -0.71544  -0.71313  -0.70153  -0.68902  -0.66770
 Alpha  occ. eigenvalues --   -0.66431  -0.64446  -0.64331  -0.63808  -0.62132
 Alpha  occ. eigenvalues --   -0.61308  -0.60492  -0.60159  -0.59873  -0.58238
 Alpha  occ. eigenvalues --   -0.57501  -0.57260  -0.56061  -0.55184  -0.54670
 Alpha  occ. eigenvalues --   -0.54170  -0.53947  -0.53687  -0.53145  -0.52777
 Alpha  occ. eigenvalues --   -0.52519  -0.51908  -0.51135  -0.50531  -0.50253
 Alpha  occ. eigenvalues --   -0.50089  -0.49073  -0.48266  -0.48006  -0.47663
 Alpha  occ. eigenvalues --   -0.47550  -0.47178  -0.46365  -0.45766  -0.45309
 Alpha  occ. eigenvalues --   -0.44699  -0.44518  -0.44230  -0.43290  -0.41772
 Alpha  occ. eigenvalues --   -0.40461  -0.40268  -0.40122  -0.39806  -0.39042
 Alpha  occ. eigenvalues --   -0.34400  -0.34119  -0.31423  -0.30997  -0.29515
 Alpha virt. eigenvalues --   -0.12065  -0.10891  -0.10465  -0.07918  -0.06391
 Alpha virt. eigenvalues --   -0.06191  -0.05687  -0.04569  -0.04101  -0.03233
 Alpha virt. eigenvalues --   -0.01772  -0.00865   0.00234   0.00866   0.01056

 Mulliken charges:
               1
     1  N   -0.714863
     2  H    0.315840
     3  H    0.316562
     4  C   -0.057722
     5  H    0.152601
     6  C    0.609439
     7  C   -0.390285
     8  H    0.150979
     9  H    0.152238
    10  O   -0.528926
    11  C    0.174235
    12  C   -0.178403
    13  H    0.117406
    14  C   -0.197237
    15  H    0.129333
    16  C   -0.126747
    17  H    0.141370
    18  C   -0.126932
    19  H    0.144282
    20  C   -0.128006
    21  H    0.145216
    22  N   -0.500508
    23  C   -0.019600
    24  H    0.206892
    25  C    0.656210
    26  C   -0.309827
    27  H    0.147183
    28  H    0.183036
    29  O   -0.614900
    30  C   -0.304842
    31  H    0.155499
    32  H    0.178932
    33  C   -0.132541
    34  H    0.182667
    35  H    0.179313
    36  N   -0.612363
    37  H    0.389738
    38  C   -0.029245
    39  H    0.221303
    40  C    0.597656
    41  C   -0.295365
    42  H    0.130864
    43  H    0.196991
    44  O   -0.453068
    45  C   -0.288388
    46  H    0.158791
    47  H    0.181431
    48  C   -0.291596
    49  H    0.169459
    50  H    0.197713
    51  C   -0.196135
    52  H    0.210586
    53  H    0.212274
    54  N   -0.770562
    55  H    0.410302
    56  H    0.472675
    57  H    0.399650
    58  O   -0.559174
    59  H    0.438567
 Sum of Mulliken charges =   1.00000

 Dipole moment (field-independent basis, Debye):
    X=              4.5799    Y=             -3.2545    Z=             12.6045  Tot=             13.8000
 Quadrupole moment (field-independent basis, Debye-Ang):
   XX=           -140.6220   YY=           -128.2564   ZZ=            -88.7578
   XY=             13.1734   XZ=             10.9539   YZ=             25.3067

 Normal termination of Gaussian 16 at Thu Jun 23 11:08:25 2022.
