 Gaussian 16, Revision C.01,
 Gaussian 16:  ES64L-G16RevC.01  3-Jul-2019

 ----------------------------------------------------------------------
 # B3LYP/6-31G* empiricaldispersion=gd3bj guess=read geom=check nosymm
 integral(ultrafinegrid)
 ----------------------------------------------------------------------

 ------------------------------------------------------
 Candidate Structure: Conf:962 Charge calc in gas phase
 ------------------------------------------------------
 Structure from the checkpoint file:  "conf-962.chk"
 Charge =  1 Multiplicity = 1

                          Input orientation:
 ---------------------------------------------------------------------
 Center     Atomic      Atomic             Coordinates (Angstroms)
 Number     Number       Type             X           Y           Z
 ---------------------------------------------------------------------
      1          7           0       -0.621796    2.660963   -3.276163
      2          1           0       -0.360402    3.635392   -3.438330
      3          1           0       -0.943922    2.216523   -4.153590
      4          6           0       -1.767050    2.517382   -2.311657
      5          1           0       -1.348460    2.559863   -1.307505
      6          6           0       -2.364013    1.143063   -2.672418
      7          6           0       -2.802278    3.634445   -2.557258
      8          1           0       -2.321795    4.601549   -2.363832
      9          1           0       -3.089737    3.606140   -3.614753
     10          8           0       -2.397199    0.846207   -3.872370
     11          6           0       -4.021114    3.468988   -1.679530
     12          6           0       -5.091735    2.674081   -2.106348
     13          1           0       -5.072337    2.237021   -3.101656
     14          6           0       -4.059661    4.037297   -0.401322
     15          1           0       -3.234959    4.659517   -0.062305
     16          6           0       -6.175814    2.437227   -1.261639
     17          1           0       -7.004659    1.825639   -1.605750
     18          6           0       -5.143037    3.800740    0.445538
     19          1           0       -5.161129    4.245915    1.435442
     20          6           0       -6.200351    2.995409    0.018494
     21          1           0       -7.045707    2.814390    0.675309
     22          7           0       -2.849497    0.357691   -1.697796
     23          6           0       -2.831185    0.637590   -0.249271
     24          1           0       -3.163905    1.652181   -0.037670
     25          6           0       -1.431749    0.512985    0.370070
     26          6           0       -3.837387   -0.391275    0.311141
     27          1           0       -3.599272   -0.669924    1.339966
     28          1           0       -4.833587    0.061255    0.301668
     29          8           0       -1.114624    1.233010    1.306191
     30          6           0       -3.767114   -1.562652   -0.679438
     31          1           0       -2.898035   -2.192215   -0.460439
     32          1           0       -4.656537   -2.196211   -0.650747
     33          6           0       -3.597662   -0.871156   -2.035369
     34          1           0       -4.560399   -0.589157   -2.477236
     35          1           0       -3.047534   -1.453947   -2.777212
     36          7           0       -0.619669   -0.454438   -0.161834
     37          1           0       -0.892719   -0.769923   -1.083843
     38          6           0        0.817964   -0.379462    0.064422
     39          1           0        0.930264    0.293844    0.922685
     40          6           0        1.490194    0.325228   -1.149487
     41          6           0        1.437413   -1.740453    0.412255
     42          1           0        1.638831   -2.288882   -0.516366
     43          1           0        0.698982   -2.330270    0.962997
     44          8           0        2.701898    0.094107   -1.434010
     45          6           0        2.713359   -1.584042    1.262829
     46          1           0        3.173866   -0.611782    1.050640
     47          1           0        2.437765   -1.545018    2.321937
     48          6           0        3.760855   -2.690825    1.073354
     49          1           0        3.351511   -3.664851    1.365825
     50          1           0        4.611641   -2.502535    1.740868
     51          6           0        4.270739   -2.828278   -0.361989
     52          1           0        5.153327   -3.470882   -0.410929
     53          1           0        3.510792   -3.242643   -1.027615
     54          7           0        4.622194   -1.483434   -0.932068
     55          1           0        5.045465   -1.570393   -1.859465
     56          1           0        5.296449   -0.994203   -0.337094
     57          1           0        3.710870   -0.824884   -1.051388
     58          8           0        0.752082    1.118625   -1.776479
     59          1           0        0.193800    2.107776   -2.877068
 ---------------------------------------------------------------------

 SCF Done:  E(RB3LYP) =  -1300.68509119     A.U. after    1 cycles

 Alpha  occ. eigenvalues --  -19.23146 -19.21566 -19.20877 -19.20625 -14.54372
 Alpha  occ. eigenvalues --  -14.54362 -14.47661 -14.44746 -10.40177 -10.39040
 Alpha  occ. eigenvalues --  -10.37544 -10.36612 -10.36316 -10.32726 -10.31816
 Alpha  occ. eigenvalues --  -10.31752 -10.31236 -10.30902 -10.29348 -10.29307
 Alpha  occ. eigenvalues --  -10.28710 -10.28588 -10.28416 -10.28022 -10.28005
 Alpha  occ. eigenvalues --  -10.27834 -10.27721 -10.27646  -1.15651  -1.14635
 Alpha  occ. eigenvalues --   -1.12532  -1.09791  -1.09397  -1.05722  -1.05383
 Alpha  occ. eigenvalues --   -1.01184  -0.95178  -0.91795  -0.90810  -0.88969
 Alpha  occ. eigenvalues --   -0.86901  -0.84894  -0.83388  -0.83082  -0.80630
 Alpha  occ. eigenvalues --   -0.77626  -0.75266  -0.74005  -0.70519  -0.70082
 Alpha  occ. eigenvalues --   -0.69837  -0.69411  -0.69126  -0.68768  -0.68387
 Alpha  occ. eigenvalues --   -0.67667  -0.66816  -0.65919  -0.64132  -0.61588
 Alpha  occ. eigenvalues --   -0.60748  -0.60012  -0.59779  -0.59117  -0.57920
 Alpha  occ. eigenvalues --   -0.56286  -0.55911  -0.55607  -0.55361  -0.54670
 Alpha  occ. eigenvalues --   -0.54228  -0.54205  -0.53297  -0.52569  -0.51963
 Alpha  occ. eigenvalues --   -0.51038  -0.50868  -0.50603  -0.50330  -0.50079
 Alpha  occ. eigenvalues --   -0.49497  -0.49303  -0.48806  -0.48455  -0.47672
 Alpha  occ. eigenvalues --   -0.46962  -0.46560  -0.45607  -0.44988  -0.44345
 Alpha  occ. eigenvalues --   -0.44165  -0.43982  -0.43436  -0.43232  -0.42985
 Alpha  occ. eigenvalues --   -0.42924  -0.37872  -0.37428  -0.36917  -0.36848
 Alpha  occ. eigenvalues --   -0.35238  -0.34179  -0.33715  -0.33574  -0.33082
 Alpha virt. eigenvalues --   -0.10297  -0.09660  -0.09130  -0.07756  -0.07592
 Alpha virt. eigenvalues --   -0.05867  -0.05393  -0.02444  -0.01701  -0.00915
 Alpha virt. eigenvalues --    0.00120   0.00364   0.00635   0.01639   0.01947

 Mulliken charges:
               1
     1  N   -0.755288
     2  H    0.390554
     3  H    0.405574
     4  C   -0.095658
     5  H    0.223268
     6  C    0.633816
     7  C   -0.373275
     8  H    0.170105
     9  H    0.182577
    10  O   -0.546617
    11  C    0.144964
    12  C   -0.180658
    13  H    0.152035
    14  C   -0.187598
    15  H    0.143324
    16  C   -0.137568
    17  H    0.152688
    18  C   -0.122859
    19  H    0.158982
    20  C   -0.130019
    21  H    0.156340
    22  N   -0.470730
    23  C   -0.074355
    24  H    0.202088
    25  C    0.607853
    26  C   -0.304751
    27  H    0.184652
    28  H    0.177534
    29  O   -0.512829
    30  C   -0.313082
    31  H    0.161273
    32  H    0.176619
    33  C   -0.127977
    34  H    0.178352
    35  H    0.184333
    36  N   -0.583680
    37  H    0.332681
    38  C   -0.085656
    39  H    0.210675
    40  C    0.615804
    41  C   -0.272247
    42  H    0.128961
    43  H    0.171834
    44  O   -0.615050
    45  C   -0.294932
    46  H    0.144859
    47  H    0.178276
    48  C   -0.289625
    49  H    0.183483
    50  H    0.165134
    51  C   -0.181312
    52  H    0.199022
    53  H    0.201207
    54  N   -0.773752
    55  H    0.394278
    56  H    0.387311
    57  H    0.475175
    58  O   -0.586463
    59  H    0.440349
 Sum of Mulliken charges =   1.00000

 Dipole moment (field-independent basis, Debye):
    X=              4.3033    Y=             -0.5368    Z=             -6.5780  Tot=              7.8789
 Quadrupole moment (field-independent basis, Debye-Ang):
   XX=            -64.8487   YY=           -119.7754   ZZ=           -147.1814
   XY=            -34.5246   XZ=             -1.5478   YZ=            -17.8228

 Normal termination of Gaussian 16 at Thu Jun 23 11:08:26 2022.
