 Gaussian 16, Revision C.01,
 Gaussian 16:  ES64L-G16RevC.01  3-Jul-2019

 ----------------------------------------------------------------------
 # B3LYP/6-31G* empiricaldispersion=gd3bj guess=read geom=check nosymm
 integral(ultrafinegrid)
 ----------------------------------------------------------------------

 ------------------------------------------------------
 Candidate Structure: Conf:535 Charge calc in gas phase
 ------------------------------------------------------
 Structure from the checkpoint file:  "conf-535.chk"
 Charge =  1 Multiplicity = 1

                          Input orientation:
 ---------------------------------------------------------------------
 Center     Atomic      Atomic             Coordinates (Angstroms)
 Number     Number       Type             X           Y           Z
 ---------------------------------------------------------------------
      1          7           0       -4.089817    0.135163    4.175197
      2          1           0       -3.554262   -0.729942    4.094478
      3          1           0       -4.980595   -0.049899    3.715588
      4          6           0       -3.365103    1.168241    3.440376
      5          1           0       -4.039797    2.014071    3.285103
      6          6           0       -2.829958    0.639682    2.098937
      7          6           0       -2.167300    1.645435    4.306055
      8          1           0       -2.577273    1.918264    5.282314
      9          1           0       -1.509372    0.780045    4.455734
     10          8           0       -2.351476   -0.511243    2.063288
     11          6           0       -1.405087    2.793344    3.690824
     12          6           0       -1.677934    4.118866    4.048255
     13          1           0       -2.391056    4.321740    4.843587
     14          6           0       -0.478951    2.557385    2.667253
     15          1           0       -0.274134    1.533497    2.376555
     16          6           0       -1.055936    5.178646    3.384663
     17          1           0       -1.280054    6.201333    3.673897
     18          6           0        0.131480    3.609010    1.986393
     19          1           0        0.808492    3.398945    1.163197
     20          6           0       -0.158627    4.927474    2.345036
     21          1           0        0.310568    5.752923    1.818000
     22          7           0       -2.856580    1.438784    1.013689
     23          6           0       -2.400440    0.961829   -0.310756
     24          1           0       -2.782282   -0.052147   -0.464736
     25          6           0       -0.857468    0.911638   -0.412308
     26          6           0       -2.994420    1.988171   -1.279914
     27          1           0       -2.401814    2.069036   -2.191555
     28          1           0       -4.014900    1.689601   -1.542961
     29          8           0       -0.201921    1.719379   -1.058553
     30          6           0       -3.000942    3.282180   -0.455454
     31          1           0       -1.991765    3.701853   -0.425790
     32          1           0       -3.683577    4.040812   -0.845983
     33          6           0       -3.407477    2.811000    0.943293
     34          1           0       -4.498784    2.775452    1.052025
     35          1           0       -2.992630    3.436976    1.732904
     36          7           0       -0.297748   -0.142581    0.253663
     37          1           0       -0.909608   -0.655747    0.894049
     38          6           0        1.122350   -0.404812    0.181748
     39          1           0        1.515000    0.328751   -0.533119
     40          6           0        1.347409   -1.798041   -0.408997
     41          6           0        1.837843   -0.263153    1.530474
     42          1           0        1.460953   -1.044211    2.202467
     43          1           0        1.542460    0.690702    1.971791
     44          8           0        1.953233   -2.703681    0.140944
     45          6           0        3.376460   -0.320059    1.416825
     46          1           0        3.680803   -0.768486    0.465260
     47          1           0        3.782943    0.695709    1.419633
     48          6           0        4.044279   -1.103296    2.560692
     49          1           0        3.641988   -0.754947    3.522828
     50          1           0        5.123756   -0.901596    2.566673
     51          6           0        3.811259   -2.600443    2.410625
     52          1           0        2.757848   -2.871109    2.362903
     53          1           0        4.300274   -3.012570    1.526938
     54          7           0        4.403399   -3.345531    3.612357
     55          1           0        4.273619   -4.361090    3.533612
     56          1           0        3.960124   -3.040335    4.486998
     57          1           0        5.410205   -3.163647    3.702988
     58          8           0        0.790577   -1.926930   -1.618117
     59          1           0        0.957455   -2.838736   -1.924555
 ---------------------------------------------------------------------

 SCF Done:  E(RB3LYP) =  -1300.64406447     A.U. after    1 cycles

 Alpha  occ. eigenvalues --  -19.29852 -19.24991 -19.19706 -19.19619 -14.64564
 Alpha  occ. eigenvalues --  -14.44610 -14.43632 -14.38002 -10.42651 -10.40636
 Alpha  occ. eigenvalues --  -10.36526 -10.35901 -10.34469 -10.33370 -10.31237
 Alpha  occ. eigenvalues --  -10.30765 -10.29797 -10.29430 -10.29221 -10.26313
 Alpha  occ. eigenvalues --  -10.25817 -10.25687 -10.25651 -10.25577 -10.25483
 Alpha  occ. eigenvalues --  -10.25470 -10.25459 -10.25402  -1.21198  -1.18453
 Alpha  occ. eigenvalues --   -1.12100  -1.11893  -1.10900  -1.01999  -1.01014
 Alpha  occ. eigenvalues --   -0.95651  -0.95311  -0.92217  -0.89178  -0.86972
 Alpha  occ. eigenvalues --   -0.84584  -0.84430  -0.81898  -0.81105  -0.79253
 Alpha  occ. eigenvalues --   -0.78064  -0.77090  -0.76388  -0.73522  -0.72286
 Alpha  occ. eigenvalues --   -0.70350  -0.68980  -0.67584  -0.67243  -0.66641
 Alpha  occ. eigenvalues --   -0.65906  -0.64976  -0.63248  -0.61803  -0.61022
 Alpha  occ. eigenvalues --   -0.59771  -0.58985  -0.58490  -0.57879  -0.57618
 Alpha  occ. eigenvalues --   -0.56791  -0.54563  -0.54396  -0.53779  -0.53314
 Alpha  occ. eigenvalues --   -0.53027  -0.52557  -0.52248  -0.51803  -0.51238
 Alpha  occ. eigenvalues --   -0.50645  -0.49778  -0.49048  -0.48815  -0.48479
 Alpha  occ. eigenvalues --   -0.48186  -0.47488  -0.47227  -0.46418  -0.45949
 Alpha  occ. eigenvalues --   -0.45726  -0.45139  -0.44802  -0.43776  -0.43200
 Alpha  occ. eigenvalues --   -0.42577  -0.42271  -0.42004  -0.40835  -0.40722
 Alpha  occ. eigenvalues --   -0.40474  -0.40114  -0.38895  -0.34904  -0.34033
 Alpha  occ. eigenvalues --   -0.33354  -0.32141  -0.31485  -0.30831  -0.30209
 Alpha virt. eigenvalues --   -0.15131  -0.10354  -0.08559  -0.08387  -0.07282
 Alpha virt. eigenvalues --   -0.06929  -0.06564  -0.05429  -0.05216  -0.02044
 Alpha virt. eigenvalues --   -0.01856  -0.00868   0.00416   0.00830   0.02093

 Mulliken charges:
               1
     1  N   -0.695173
     2  H    0.311184
     3  H    0.305649
     4  C   -0.063352
     5  H    0.152828
     6  C    0.591257
     7  C   -0.341362
     8  H    0.173506
     9  H    0.142290
    10  O   -0.592444
    11  C    0.146953
    12  C   -0.192755
    13  H    0.139318
    14  C   -0.194430
    15  H    0.131664
    16  C   -0.126915
    17  H    0.145718
    18  C   -0.144914
    19  H    0.143680
    20  C   -0.136455
    21  H    0.143550
    22  N   -0.426185
    23  C   -0.071787
    24  H    0.178291
    25  C    0.626511
    26  C   -0.293163
    27  H    0.185118
    28  H    0.153285
    29  O   -0.513984
    30  C   -0.311419
    31  H    0.185442
    32  H    0.162327
    33  C   -0.138663
    34  H    0.160354
    35  H    0.192366
    36  N   -0.632919
    37  H    0.381396
    38  C   -0.043076
    39  H    0.215925
    40  C    0.596127
    41  C   -0.282933
    42  H    0.136025
    43  H    0.186479
    44  O   -0.506410
    45  C   -0.270203
    46  H    0.165638
    47  H    0.181411
    48  C   -0.303422
    49  H    0.165286
    50  H    0.166216
    51  C   -0.198972
    52  H    0.247990
    53  H    0.232136
    54  N   -0.733658
    55  H    0.431193
    56  H    0.423860
    57  H    0.423123
    58  O   -0.533676
    59  H    0.424173
 Sum of Mulliken charges =   1.00000

 Dipole moment (field-independent basis, Debye):
    X=             14.6839    Y=            -10.6053    Z=             13.6412  Tot=             22.6753
 Quadrupole moment (field-independent basis, Debye-Ang):
   XX=            -63.4519   YY=           -102.6776   ZZ=           -113.3406
   XY=            -68.0936   XZ=             63.6907   YZ=            -34.9303

 Normal termination of Gaussian 16 at Thu Jun 23 11:08:28 2022.
