 Gaussian 16, Revision C.01,
 Gaussian 16:  ES64L-G16RevC.01  3-Jul-2019

 ----------------------------------------------------------------------
 # B3LYP/6-31G* empiricaldispersion=gd3bj guess=read geom=check nosymm
 integral(ultrafinegrid)
 ----------------------------------------------------------------------

 ------------------------------------------------------
 Candidate Structure: Conf:950 Charge calc in gas phase
 ------------------------------------------------------
 Structure from the checkpoint file:  "conf-950.chk"
 Charge =  1 Multiplicity = 1

                          Input orientation:
 ---------------------------------------------------------------------
 Center     Atomic      Atomic             Coordinates (Angstroms)
 Number     Number       Type             X           Y           Z
 ---------------------------------------------------------------------
      1          7           0       -4.642534    0.833180   -3.445768
      2          1           0       -5.026269    0.769351   -4.387811
      3          1           0       -4.965400    1.725871   -3.071797
      4          6           0       -3.176697    0.852171   -3.530062
      5          1           0       -2.881837   -0.082623   -4.024630
      6          6           0       -2.647436    0.825005   -2.095031
      7          6           0       -2.564742    2.028476   -4.318991
      8          1           0       -2.821700    2.961717   -3.807412
      9          1           0       -1.471992    1.946623   -4.285440
     10          8           0       -2.089229    1.783320   -1.567885
     11          6           0       -3.053374    2.036194   -5.746425
     12          6           0       -2.437521    1.230633   -6.713248
     13          1           0       -1.563615    0.642823   -6.439542
     14          6           0       -4.170424    2.793388   -6.121431
     15          1           0       -4.650493    3.436075   -5.387228
     16          6           0       -2.921663    1.182998   -8.019626
     17          1           0       -2.426192    0.559160   -8.758092
     18          6           0       -4.659764    2.748442   -7.427899
     19          1           0       -5.522431    3.348673   -7.702253
     20          6           0       -4.037059    1.941566   -8.380172
     21          1           0       -4.413316    1.908806   -9.398239
     22          7           0       -2.817818   -0.344191   -1.387557
     23          6           0       -2.582593   -0.304331    0.055659
     24          1           0       -3.003286    0.606857    0.489998
     25          6           0       -1.099831   -0.253736    0.428283
     26          6           0       -3.280478   -1.579915    0.583401
     27          1           0       -2.761803   -2.007193    1.445746
     28          1           0       -4.296104   -1.324089    0.900206
     29          8           0       -0.795110    0.054572    1.597789
     30          6           0       -3.321315   -2.508339   -0.640001
     31          1           0       -2.353528   -3.007063   -0.772288
     32          1           0       -4.090999   -3.280006   -0.563723
     33          6           0       -3.578740   -1.540421   -1.798614
     34          1           0       -4.636977   -1.290340   -1.916576
     35          1           0       -3.214371   -1.918547   -2.757146
     36          7           0       -0.246967   -0.601837   -0.544173
     37          1           0       -0.702178   -0.747018   -1.440531
     38          6           0        1.198528   -0.374460   -0.630305
     39          1           0        1.352707    0.646429   -1.013365
     40          6           0        1.781963   -1.304094   -1.698581
     41          6           0        1.965377   -0.505513    0.687024
     42          1           0        1.654943    0.327140    1.320312
     43          1           0        3.024330   -0.361754    0.452131
     44          8           0        2.883965   -1.792483   -1.653993
     45          6           0        1.775412   -1.851404    1.393597
     46          1           0        0.707386   -2.094068    1.449784
     47          1           0        2.233684   -2.642121    0.792754
     48          6           0        2.395278   -1.898865    2.799632
     49          1           0        3.486320   -1.814713    2.733843
     50          1           0        2.192724   -2.875743    3.257122
     51          6           0        1.934708   -0.791947    3.746616
     52          1           0        2.292672   -0.961093    4.764533
     53          1           0        2.269713    0.195022    3.423377
     54          7           0        0.425413   -0.713026    3.803586
     55          1           0        0.112837   -0.010757    4.481110
     56          1           0        0.019841   -1.610604    4.086171
     57          1           0        0.000699   -0.444249    2.857600
     58          8           0        0.925568   -1.473484   -2.731397
     59          1           0        1.372809   -2.038897   -3.390354
 ---------------------------------------------------------------------

 SCF Done:  E(RB3LYP) =  -1300.66060842     A.U. after    3 cycles

 Alpha  occ. eigenvalues --  -19.31616 -19.25747 -19.25274 -19.20867 -14.58806
 Alpha  occ. eigenvalues --  -14.48718 -14.45998 -14.40056 -10.43917 -10.41786
 Alpha  occ. eigenvalues --  -10.39014 -10.37454 -10.36561 -10.33638 -10.33049
 Alpha  occ. eigenvalues --  -10.31353 -10.31243 -10.31029 -10.30661 -10.29929
 Alpha  occ. eigenvalues --  -10.29041 -10.25987 -10.25750 -10.25174 -10.25098
 Alpha  occ. eigenvalues --  -10.25070 -10.25006 -10.24815  -1.22454  -1.16571
 Alpha  occ. eigenvalues --   -1.13606  -1.13539  -1.12962  -1.06029  -1.03707
 Alpha  occ. eigenvalues --   -0.97472  -0.94331  -0.91614  -0.90765  -0.89279
 Alpha  occ. eigenvalues --   -0.85764  -0.84393  -0.84090  -0.80524  -0.79579
 Alpha  occ. eigenvalues --   -0.79206  -0.75640  -0.74089  -0.73613  -0.71935
 Alpha  occ. eigenvalues --   -0.71489  -0.70977  -0.69405  -0.68473  -0.66705
 Alpha  occ. eigenvalues --   -0.66304  -0.64851  -0.63970  -0.63380  -0.61459
 Alpha  occ. eigenvalues --   -0.61045  -0.60739  -0.60525  -0.59385  -0.57818
 Alpha  occ. eigenvalues --   -0.57098  -0.56039  -0.55435  -0.54985  -0.54559
 Alpha  occ. eigenvalues --   -0.53906  -0.53525  -0.52818  -0.52694  -0.52360
 Alpha  occ. eigenvalues --   -0.51914  -0.51429  -0.51220  -0.50818  -0.50290
 Alpha  occ. eigenvalues --   -0.49844  -0.49651  -0.48139  -0.47582  -0.47092
 Alpha  occ. eigenvalues --   -0.46569  -0.46371  -0.46066  -0.45762  -0.45355
 Alpha  occ. eigenvalues --   -0.44473  -0.44163  -0.43605  -0.43083  -0.41798
 Alpha  occ. eigenvalues --   -0.40417  -0.40076  -0.40028  -0.39523  -0.37833
 Alpha  occ. eigenvalues --   -0.34540  -0.33985  -0.32732  -0.31100  -0.30342
 Alpha virt. eigenvalues --   -0.11432  -0.10838  -0.10423  -0.07883  -0.06414
 Alpha virt. eigenvalues --   -0.06245  -0.05264  -0.04182  -0.02951  -0.02096
 Alpha virt. eigenvalues --   -0.01626  -0.00162   0.00591   0.01140   0.01391

 Mulliken charges:
               1
     1  N   -0.724381
     2  H    0.327389
     3  H    0.310501
     4  C   -0.084807
     5  H    0.149615
     6  C    0.607322
     7  C   -0.350813
     8  H    0.166239
     9  H    0.147733
    10  O   -0.516466
    11  C    0.162923
    12  C   -0.179479
    13  H    0.115417
    14  C   -0.197437
    15  H    0.126643
    16  C   -0.126756
    17  H    0.139658
    18  C   -0.126694
    19  H    0.143746
    20  C   -0.129189
    21  H    0.144602
    22  N   -0.502000
    23  C   -0.019062
    24  H    0.200570
    25  C    0.656206
    26  C   -0.307380
    27  H    0.144505
    28  H    0.179934
    29  O   -0.612963
    30  C   -0.300473
    31  H    0.148289
    32  H    0.176838
    33  C   -0.115520
    34  H    0.200889
    35  H    0.163825
    36  N   -0.609588
    37  H    0.382435
    38  C   -0.043863
    39  H    0.221317
    40  C    0.602983
    41  C   -0.283080
    42  H    0.153242
    43  H    0.189194
    44  O   -0.437795
    45  C   -0.298086
    46  H    0.135845
    47  H    0.195404
    48  C   -0.292115
    49  H    0.198163
    50  H    0.169532
    51  C   -0.198762
    52  H    0.211739
    53  H    0.218404
    54  N   -0.771452
    55  H    0.410278
    56  H    0.398814
    57  H    0.471715
    58  O   -0.579685
    59  H    0.435936
 Sum of Mulliken charges =   1.00000

 Dipole moment (field-independent basis, Debye):
    X=             -1.7623    Y=             -5.7007    Z=              6.3024  Tot=              8.6790
 Quadrupole moment (field-independent basis, Debye-Ang):
   XX=           -134.8786   YY=           -153.9833   ZZ=            -72.9418
   XY=             -1.9533   XZ=             28.3463   YZ=             -9.7995

 Normal termination of Gaussian 16 at Thu Jun 23 11:08:41 2022.
