 Gaussian 16, Revision C.01,
 Gaussian 16:  ES64L-G16RevC.01  3-Jul-2019

 ----------------------------------------------------------------------
 # B3LYP/6-31G* empiricaldispersion=gd3bj guess=read geom=check nosymm
 integral(ultrafinegrid)
 ----------------------------------------------------------------------

 ------------------------------------------------------
 Candidate Structure: Conf:684 Charge calc in gas phase
 ------------------------------------------------------
 Structure from the checkpoint file:  "conf-684.chk"
 Charge =  1 Multiplicity = 1

                          Input orientation:
 ---------------------------------------------------------------------
 Center     Atomic      Atomic             Coordinates (Angstroms)
 Number     Number       Type             X           Y           Z
 ---------------------------------------------------------------------
      1          7           0       -1.163887    3.579388    1.480539
      2          1           0       -0.591364    3.517374    0.640718
      3          1           0       -0.547493    3.470463    2.282936
      4          6           0       -2.173598    2.532258    1.468659
      5          1           0       -1.743202    1.513459    1.386195
      6          6           0       -3.057205    2.814693    0.231501
      7          6           0       -3.017087    2.587727    2.757022
      8          1           0       -2.377650    2.903256    3.588033
      9          1           0       -3.777235    3.363333    2.620490
     10          8           0       -3.928009    3.669335    0.266354
     11          6           0       -3.633529    1.247767    3.076217
     12          6           0       -4.487280    0.606338    2.160012
     13          1           0       -4.787291    1.129454    1.256842
     14          6           0       -3.315571    0.573934    4.267641
     15          1           0       -2.681469    1.065991    5.001113
     16          6           0       -4.983020   -0.673568    2.416750
     17          1           0       -5.656785   -1.142548    1.705102
     18          6           0       -3.824471   -0.702829    4.536616
     19          1           0       -3.588920   -1.190265    5.478497
     20          6           0       -4.648258   -1.337995    3.604425
     21          1           0       -5.056811   -2.321942    3.814545
     22          7           0       -2.745979    2.166042   -0.939465
     23          6           0       -2.160103    0.841232   -1.066701
     24          1           0       -2.694516    0.112876   -0.437969
     25          6           0       -0.683193    0.777502   -0.685025
     26          6           0       -2.362030    0.479195   -2.571526
     27          1           0       -1.517751   -0.082683   -2.982021
     28          1           0       -3.259082   -0.140013   -2.670277
     29          8           0        0.055747    1.735236   -0.585543
     30          6           0       -2.573383    1.841929   -3.246274
     31          1           0       -1.610028    2.329876   -3.426514
     32          1           0       -3.101424    1.757376   -4.198822
     33          6           0       -3.363444    2.619706   -2.197004
     34          1           0       -4.432935    2.372362   -2.216581
     35          1           0       -3.270290    3.703770   -2.275082
     36          7           0       -0.255894   -0.534236   -0.389020
     37          1           0       -0.740056   -1.233220   -0.949106
     38          6           0        1.196664   -0.776620   -0.303235
     39          1           0        1.670026    0.209500   -0.377276
     40          6           0        1.722813   -1.600595   -1.473749
     41          6           0        1.586894   -1.418274    1.036870
     42          1           0        2.659131   -1.623652    1.013284
     43          1           0        1.100438   -2.399886    1.103998
     44          8           0        2.810284   -2.118261   -1.491712
     45          6           0        1.219513   -0.516666    2.236965
     46          1           0        2.122290   -0.036875    2.626358
     47          1           0        0.585408    0.314092    1.899622
     48          6           0        0.528679   -1.238240    3.407907
     49          1           0        0.274268   -0.503818    4.181974
     50          1           0        1.216473   -1.952298    3.874981
     51          6           0       -0.728845   -2.022962    3.033637
     52          1           0       -0.504816   -2.916423    2.447820
     53          1           0       -1.295326   -2.322142    3.917316
     54          7           0       -1.655087   -1.186219    2.191659
     55          1           0       -2.547919   -1.660295    2.011609
     56          1           0       -1.204049   -0.921670    1.284956
     57          1           0       -1.930696   -0.321828    2.687228
     58          8           0        0.832157   -1.679929   -2.495028
     59          1           0        1.260075   -2.196829   -3.205533
 ---------------------------------------------------------------------

 SCF Done:  E(RB3LYP) =  -1300.64443796     A.U. after    1 cycles

 Alpha  occ. eigenvalues --  -19.32469 -19.26929 -19.26144 -19.21340 -14.59112
 Alpha  occ. eigenvalues --  -14.50871 -14.46659 -14.41095 -10.44525 -10.43004
 Alpha  occ. eigenvalues --  -10.39542 -10.38243 -10.36876 -10.36541 -10.33763
 Alpha  occ. eigenvalues --  -10.33402 -10.32582 -10.32423 -10.32171 -10.32161
 Alpha  occ. eigenvalues --  -10.32149 -10.31941 -10.31855 -10.31595 -10.31424
 Alpha  occ. eigenvalues --  -10.31405 -10.29269 -10.29192  -1.23031  -1.18704
 Alpha  occ. eigenvalues --   -1.14441  -1.14116  -1.13599  -1.06937  -1.05113
 Alpha  occ. eigenvalues --   -0.99401  -0.98163  -0.95072  -0.91507  -0.90006
 Alpha  occ. eigenvalues --   -0.89872  -0.87395  -0.87078  -0.84791  -0.82720
 Alpha  occ. eigenvalues --   -0.79588  -0.77591  -0.75072  -0.74119  -0.73505
 Alpha  occ. eigenvalues --   -0.73152  -0.72551  -0.71972  -0.71626  -0.70661
 Alpha  occ. eigenvalues --   -0.69360  -0.67233  -0.65136  -0.63664  -0.63408
 Alpha  occ. eigenvalues --   -0.63372  -0.61765  -0.61254  -0.60425  -0.59815
 Alpha  occ. eigenvalues --   -0.59053  -0.58600  -0.58430  -0.57604  -0.57127
 Alpha  occ. eigenvalues --   -0.56285  -0.55931  -0.54941  -0.54802  -0.54720
 Alpha  occ. eigenvalues --   -0.54339  -0.54107  -0.52950  -0.52431  -0.52040
 Alpha  occ. eigenvalues --   -0.51659  -0.51377  -0.50800  -0.50561  -0.49673
 Alpha  occ. eigenvalues --   -0.48069  -0.48004  -0.47413  -0.47143  -0.47008
 Alpha  occ. eigenvalues --   -0.46705  -0.46422  -0.46073  -0.45716  -0.45018
 Alpha  occ. eigenvalues --   -0.44170  -0.43683  -0.42965  -0.39789  -0.39043
 Alpha  occ. eigenvalues --   -0.38532  -0.37471  -0.35674  -0.34276  -0.32993
 Alpha virt. eigenvalues --   -0.14278  -0.13596  -0.13109  -0.11529  -0.09930
 Alpha virt. eigenvalues --   -0.08899  -0.05754  -0.05478  -0.04456  -0.02977
 Alpha virt. eigenvalues --   -0.02485  -0.02103  -0.01472  -0.01036  -0.00383

 Mulliken charges:
               1
     1  N   -0.712281
     2  H    0.341395
     3  H    0.303446
     4  C   -0.021426
     5  H    0.043431
     6  C    0.601502
     7  C   -0.355790
     8  H    0.150959
     9  H    0.228651
    10  O   -0.486293
    11  C    0.129856
    12  C   -0.192295
    13  H    0.182041
    14  C   -0.244083
    15  H    0.161748
    16  C   -0.160814
    17  H    0.167897
    18  C   -0.129659
    19  H    0.167559
    20  C   -0.167707
    21  H    0.168772
    22  N   -0.449189
    23  C   -0.053724
    24  H    0.128624
    25  C    0.614979
    26  C   -0.329617
    27  H    0.177085
    28  H    0.171050
    29  O   -0.466229
    30  C   -0.294412
    31  H    0.179013
    32  H    0.178502
    33  C   -0.119995
    34  H    0.166574
    35  H    0.200288
    36  N   -0.680534
    37  H    0.357701
    38  C   -0.076957
    39  H    0.242861
    40  C    0.596024
    41  C   -0.282801
    42  H    0.213978
    43  H    0.137575
    44  O   -0.424042
    45  C   -0.311773
    46  H    0.194503
    47  H    0.152710
    48  C   -0.292843
    49  H    0.173027
    50  H    0.197560
    51  C   -0.193225
    52  H    0.204350
    53  H    0.213249
    54  N   -0.801587
    55  H    0.399440
    56  H    0.439916
    57  H    0.409336
    58  O   -0.586302
    59  H    0.437979
 Sum of Mulliken charges =   1.00000

 Dipole moment (field-independent basis, Debye):
    X=             -6.8627    Y=             -8.1089    Z=              6.0008  Tot=             12.2009
 Quadrupole moment (field-independent basis, Debye-Ang):
   XX=           -147.6410   YY=           -165.5817   ZZ=           -108.4879
   XY=             21.3386   XZ=             -4.8343   YZ=            -12.6713

 Normal termination of Gaussian 16 at Thu Jun 23 11:08:29 2022.
