 Gaussian 16, Revision C.01,
 Gaussian 16:  ES64L-G16RevC.01  3-Jul-2019

 -------------------------------------------------------------------
 # B3LYP/6-31G* guess=read geom=check nosymm integral(ultrafinegrid)
 -------------------------------------------------------------------

 ------------------------------------------------------
 Candidate Structure: Conf:961 Charge calc in gas phase
 ------------------------------------------------------
 Structure from the checkpoint file:  "conf-961.chk"
 Charge =  1 Multiplicity = 1

                          Input orientation:
 ---------------------------------------------------------------------
 Center     Atomic      Atomic             Coordinates (Angstroms)
 Number     Number       Type             X           Y           Z
 ---------------------------------------------------------------------
      1          7           0       -5.236312   -8.516828   -6.158889
      2          1           0       -5.155328   -8.774420   -7.147007
      3          1           0       -5.720075   -9.270513   -5.662398
      4          1           0       -4.259063   -8.358151   -5.766931
      5          6           0       -5.877635   -7.155051   -5.942812
      6          1           0       -6.408411   -6.884847   -6.857494
      7          6           0       -4.632336   -6.251566   -5.710271
      8          6           0       -6.835284   -7.234094   -4.737177
      9          1           0       -6.244062   -7.479843   -3.844675
     10          1           0       -7.522494   -8.075014   -4.914986
     11          8           0       -3.566824   -6.822022   -5.427157
     12          6           0       -7.690610   -5.976114   -4.458784
     13          1           0       -7.021487   -5.131175   -4.253702
     14          6           0       -8.594292   -5.605609   -5.645417
     15          1           0       -9.271662   -6.430307   -5.901186
     16          1           0       -8.033449   -5.339177   -6.550752
     17          1           0       -9.210459   -4.737434   -5.393375
     18          6           0       -8.527552   -6.218939   -3.192493
     19          1           0       -9.232338   -7.047576   -3.334589
     20          1           0       -7.895229   -6.455748   -2.329407
     21          1           0       -9.110542   -5.326554   -2.944936
     22          7           0       -4.801862   -4.940096   -5.837733
     23          1           0       -5.730383   -4.534555   -5.953453
     24          6           0       -3.795801   -3.927984   -5.487553
     25          1           0       -3.039132   -4.410172   -4.861075
     26          6           0       -4.602405   -2.875155   -4.691394
     27          6           0       -3.117921   -3.325287   -6.755224
     28          1           0       -3.903583   -2.795752   -7.312614
     29          8           0       -5.804727   -2.724170   -4.937859
     30          6           0       -2.019653   -2.317054   -6.380599
     31          1           0       -1.227464   -2.794672   -5.789713
     32          1           0       -2.402429   -1.465699   -5.811470
     33          1           0       -1.553969   -1.922845   -7.289207
     34          6           0       -2.539743   -4.427269   -7.655735
     35          1           0       -1.780964   -5.015840   -7.127461
     36          1           0       -2.065691   -3.978030   -8.534289
     37          1           0       -3.314159   -5.111853   -8.016117
     38          7           0       -3.930921   -2.176473   -3.762422
     39          1           0       -2.937278   -2.315981   -3.601817
     40          6           0       -4.523789   -1.099017   -2.973368
     41          1           0       -5.240976   -0.571390   -3.611699
     42          6           0       -3.346967   -0.173328   -2.618975
     43          6           0       -5.299261   -1.651681   -1.735044
     44          1           0       -6.065446   -2.299916   -2.180165
     45          8           0       -2.199649   -0.620773   -2.549787
     46          6           0       -4.425132   -2.505294   -0.805647
     47          1           0       -3.628260   -1.933934   -0.318091
     48          1           0       -3.956183   -3.334323   -1.346529
     49          1           0       -5.044833   -2.939972   -0.013758
     50          6           0       -6.027205   -0.537163   -0.969266
     51          1           0       -5.327628    0.119223   -0.439574
     52          1           0       -6.650616    0.076864   -1.633102
     53          1           0       -6.691790   -0.972983   -0.216468
     54          7           0       -3.632309    1.136151   -2.405739
     55          1           0       -4.601080    1.428213   -2.377390
     56          6           0       -2.605655    2.136403   -2.096861
     57          1           0       -1.678463    1.758014   -2.544246
     58          6           0       -2.278389    2.288982   -0.588955
     59          6           0       -2.916512    3.491615   -2.754578
     60          1           0       -2.515400    4.282515   -2.122184
     61          1           0       -4.004074    3.645737   -2.830406
     62          8           0       -2.063852    3.398613   -0.099658
     63          8           0       -2.287781    3.640569   -4.022680
     64          1           0       -2.660554    2.991987   -4.639961
     65          7           0       -2.142687    1.132385    0.102845
     66          1           0       -2.105153    0.248644   -0.398806
     67          6           0       -1.478284    1.115199    1.411284
     68          1           0       -1.782858    2.015592    1.950779
     69          6           0        0.046293    1.139401    1.167378
     70          6           0       -1.874308   -0.151451    2.194672
     71          1           0       -1.218572   -0.195933    3.075252
     72          8           0        0.722104    0.099369    1.212031
     73          6           0       -3.327793   -0.145697    2.645193
     74          1           0       -3.516462    0.680038    3.339601
     75          1           0       -4.007117   -0.042686    1.792528
     76          1           0       -3.555056   -1.086358    3.155038
     77          8           0       -1.664662   -1.295731    1.366673
     78          1           0       -0.696903   -1.314542    1.221479
     79          7           0        0.564377    2.340972    0.846380
     80          1           0       -0.063843    3.138089    0.815209
     81          6           0        1.970452    2.533446    0.452550
     82          1           0        2.290305    1.585924    0.003240
     83          6           0        2.813909    2.766218    1.730352
     84          6           0        2.111216    3.670182   -0.560056
     85          1           0        3.168163    3.785574   -0.813177
     86          1           0        1.818014    4.617831   -0.093942
     87          8           0        3.349335    3.840771    1.988062
     88          6           0        1.312282    3.428710   -1.846996
     89          1           0        0.234333    3.495478   -1.659970
     90          1           0        1.504866    2.411319   -2.220162
     91          6           0        1.706650    4.400399   -2.965255
     92          7           0        0.747338    4.610956   -3.913568
     93          1           0       -0.192941    4.235081   -3.872528
     94          1           0        0.975887    5.244854   -4.666747
     95          8           0        2.813636    4.917151   -3.022259
     96          7           0        2.865335    1.682514    2.547320
     97          1           0        2.330005    0.859125    2.283872
     98          6           0        3.320530    1.786144    3.931298
     99          1           0        3.206877    2.837849    4.224929
    100          6           0        4.817892    1.410155    4.018447
    101          6           0        2.443996    0.896931    4.837366
    102          1           0        2.613925   -0.147513    4.559943
    103          8           0        5.194350    0.312205    4.428397
    104          6           0        2.758816    1.082170    6.318997
    105          1           0        3.790014    0.791805    6.533573
    106          1           0        2.620909    2.129460    6.622676
    107          1           0        2.086191    0.460936    6.918279
    108          8           0        1.053851    1.131057    4.566514
    109          1           0        0.845686    2.018911    4.901388
    110          7           0        5.656476    2.381947    3.590366
    111          1           0        5.298348    3.255914    3.208590
    112          6           0        7.096119    2.191556    3.550355
    113          1           0        7.385305    1.642296    4.453502
    114          6           0        7.739288    3.586922    3.551696
    115          6           0        7.542580    1.381135    2.317435
    116          1           0        8.626829    1.224444    2.320737
    117          1           0        7.050091    0.405224    2.332095
    118          1           0        7.269572    1.907479    1.396761
    119          8           0        7.118614    4.582578    3.183416
    120          7           0        9.035096    3.623931    3.945425
    121          1           0        9.528081    2.795095    4.259046
    122          6           0        9.826200    4.845778    3.928400
    123          1           0        9.525534    5.423834    3.049118
    124          6           0       11.290141    4.397730    3.815839
    125          6           0        9.574732    5.682058    5.211009
    126          1           0        8.485978    5.777308    5.303693
    127          1           0        9.920987    5.086956    6.066123
    128          8           0       11.660889    3.322096    4.284768
    129          6           0       10.204995    7.088234    5.268424
    130          1           0       11.291583    6.996363    5.131052
    131          6           0        9.660527    8.021162    4.174095
    132          1           0        8.570725    8.119857    4.251111
    133          1           0        9.880289    7.663371    3.160642
    134          1           0       10.096476    9.022585    4.265501
    135          6           0        9.966361    7.700213    6.657968
    136          1           0        8.893203    7.817855    6.855605
    137          1           0       10.429605    8.690499    6.737057
    138          1           0       10.384892    7.068779    7.450342
    139          7           0       12.135765    5.258324    3.192959
    140          1           0       11.789378    6.140441    2.842552
    141          6           0       13.567384    4.995344    3.112406
    142          1           0       13.837008    4.422720    4.006503
    143          6           0       14.391802    6.276277    3.149043
    144          6           0       13.949405    4.158290    1.877928
    145          1           0       15.028229    3.982889    1.865334
    146          1           0       13.429011    3.198499    1.924825
    147          1           0       13.663776    4.671064    0.953156
    148          8           0       15.599395    6.296931    3.136763
    149          8           0       13.636062    7.404450    3.172264
    150          1           0       14.262301    8.153444    3.180055
 ---------------------------------------------------------------------

 SCF Done:  E(RB3LYP) =  -3455.47886470     A.U. after    2 cycles

 Alpha  occ. eigenvalues --  -19.27757 -19.24585 -19.24093 -19.23045 -19.22608
 Alpha  occ. eigenvalues --  -19.20283 -19.19675 -19.18944 -19.18902 -19.18162
 Alpha  occ. eigenvalues --  -19.15640 -19.15634 -19.14298 -19.14148 -19.13915
 Alpha  occ. eigenvalues --  -14.60929 -14.50528 -14.47307 -14.47038 -14.43930
 Alpha  occ. eigenvalues --  -14.42557 -14.40432 -14.39329 -14.38779 -14.38525
 Alpha  occ. eigenvalues --  -14.37858 -10.44578 -10.41676 -10.40217 -10.39659
 Alpha  occ. eigenvalues --  -10.37353 -10.36540 -10.35548 -10.35395 -10.34386
 Alpha  occ. eigenvalues --  -10.33737 -10.32742 -10.32650 -10.32523 -10.32137
 Alpha  occ. eigenvalues --  -10.32052 -10.31856 -10.31491 -10.31146 -10.30531
 Alpha  occ. eigenvalues --  -10.29901 -10.29728 -10.29139 -10.28903 -10.28327
 Alpha  occ. eigenvalues --  -10.28308 -10.28193 -10.27664 -10.27447 -10.27301
 Alpha  occ. eigenvalues --  -10.26670 -10.26579 -10.26393 -10.26070 -10.25161
 Alpha  occ. eigenvalues --  -10.23894 -10.23466 -10.22942 -10.22063 -10.21867
 Alpha  occ. eigenvalues --  -10.21495 -10.21017 -10.20918 -10.20415 -10.20093
 Alpha  occ. eigenvalues --   -1.20225  -1.15292  -1.15145  -1.14707  -1.14329
 Alpha  occ. eigenvalues --   -1.12206  -1.11032  -1.10492  -1.07753  -1.07509
 Alpha  occ. eigenvalues --   -1.07055  -1.07020  -1.06356  -1.06040  -1.06028
 Alpha  occ. eigenvalues --   -1.06023  -1.05377  -1.03566  -1.03091  -1.00147
 Alpha  occ. eigenvalues --   -0.98673  -0.96891  -0.95838  -0.95662  -0.95336
 Alpha  occ. eigenvalues --   -0.94382  -0.93165  -0.91995  -0.89793  -0.89048
 Alpha  occ. eigenvalues --   -0.86170  -0.84543  -0.84291  -0.83934  -0.83023
 Alpha  occ. eigenvalues --   -0.81827  -0.81552  -0.81343  -0.79959  -0.79697
 Alpha  occ. eigenvalues --   -0.79236  -0.78460  -0.78262  -0.76946  -0.76694
 Alpha  occ. eigenvalues --   -0.76345  -0.74886  -0.74005  -0.73686  -0.73311
 Alpha  occ. eigenvalues --   -0.72842  -0.71709  -0.71125  -0.70811  -0.70109
 Alpha  occ. eigenvalues --   -0.69403  -0.69161  -0.68232  -0.68107  -0.67725
 Alpha  occ. eigenvalues --   -0.67146  -0.66509  -0.66058  -0.65677  -0.65368
 Alpha  occ. eigenvalues --   -0.64835  -0.64212  -0.64127  -0.63153  -0.63080
 Alpha  occ. eigenvalues --   -0.62088  -0.61543  -0.61366  -0.61105  -0.60538
 Alpha  occ. eigenvalues --   -0.60198  -0.59925  -0.59604  -0.59419  -0.58970
 Alpha  occ. eigenvalues --   -0.58137  -0.58039  -0.57775  -0.57526  -0.57200
 Alpha  occ. eigenvalues --   -0.56838  -0.56402  -0.56270  -0.56200  -0.55645
 Alpha  occ. eigenvalues --   -0.55566  -0.55215  -0.54687  -0.54167  -0.53750
 Alpha  occ. eigenvalues --   -0.53128  -0.52945  -0.52801  -0.52378  -0.52366
 Alpha  occ. eigenvalues --   -0.52146  -0.51885  -0.51831  -0.51414  -0.51301
 Alpha  occ. eigenvalues --   -0.51076  -0.51024  -0.50768  -0.50411  -0.50092
 Alpha  occ. eigenvalues --   -0.50016  -0.49931  -0.49888  -0.49636  -0.49134
 Alpha  occ. eigenvalues --   -0.49024  -0.48885  -0.48756  -0.48708  -0.48115
 Alpha  occ. eigenvalues --   -0.47970  -0.47900  -0.47805  -0.47639  -0.47504
 Alpha  occ. eigenvalues --   -0.47292  -0.47160  -0.46574  -0.46376  -0.46164
 Alpha  occ. eigenvalues --   -0.45904  -0.45738  -0.45715  -0.45493  -0.45356
 Alpha  occ. eigenvalues --   -0.45096  -0.44904  -0.44893  -0.44855  -0.44733
 Alpha  occ. eigenvalues --   -0.44550  -0.44213  -0.44136  -0.44012  -0.43807
 Alpha  occ. eigenvalues --   -0.43750  -0.43243  -0.43177  -0.43052  -0.42773
 Alpha  occ. eigenvalues --   -0.42615  -0.42454  -0.42404  -0.42312  -0.42200
 Alpha  occ. eigenvalues --   -0.41876  -0.41612  -0.41495  -0.41269  -0.41052
 Alpha  occ. eigenvalues --   -0.40978  -0.40524  -0.40380  -0.40302  -0.40094
 Alpha  occ. eigenvalues --   -0.39855  -0.39796  -0.39468  -0.39345  -0.38913
 Alpha  occ. eigenvalues --   -0.38646  -0.38495  -0.38323  -0.37711  -0.37251
 Alpha  occ. eigenvalues --   -0.36705  -0.36514  -0.36437  -0.36378  -0.35999
 Alpha  occ. eigenvalues --   -0.35846  -0.35516  -0.35486  -0.35330  -0.33425
 Alpha  occ. eigenvalues --   -0.33074  -0.32615  -0.32411  -0.31558  -0.31048
 Alpha  occ. eigenvalues --   -0.30615  -0.29870  -0.29696  -0.29478  -0.28735
 Alpha  occ. eigenvalues --   -0.28445  -0.28048  -0.27951  -0.27158  -0.26643
 Alpha virt. eigenvalues --   -0.13338  -0.11932  -0.09570  -0.08293  -0.07390
 Alpha virt. eigenvalues --   -0.07295  -0.06022  -0.04581  -0.03429  -0.03018
 Alpha virt. eigenvalues --   -0.02496  -0.01943  -0.01877  -0.01785  -0.01669

 Mulliken charges:
               1
     1  N   -0.756358
     2  H    0.417570
     3  H    0.413893
     4  H    0.435083
     5  C   -0.117670
     6  H    0.214820
     7  C    0.650021
     8  C   -0.287532
     9  H    0.177246
    10  H    0.162093
    11  O   -0.538644
    12  C   -0.108540
    13  H    0.163476
    14  C   -0.461099
    15  H    0.157981
    16  H    0.135336
    17  H    0.188402
    18  C   -0.452383
    19  H    0.157351
    20  H    0.158513
    21  H    0.175265
    22  N   -0.598846
    23  H    0.379915
    24  C   -0.073647
    25  H    0.189609
    26  C    0.633480
    27  C   -0.077597
    28  H    0.149742
    29  O   -0.552784
    30  C   -0.469725
    31  H    0.160328
    32  H    0.157039
    33  H    0.173821
    34  C   -0.446925
    35  H    0.166317
    36  H    0.171585
    37  H    0.128092
    38  N   -0.612657
    39  H    0.369469
    40  C   -0.050047
    41  H    0.174685
    42  C    0.618231
    43  C   -0.077096
    44  H    0.154413
    45  O   -0.541063
    46  C   -0.474068
    47  H    0.195142
    48  H    0.136792
    49  H    0.157628
    50  C   -0.481856
    51  H    0.164107
    52  H    0.142429
    53  H    0.172894
    54  N   -0.615491
    55  H    0.345240
    56  C   -0.101491
    57  H    0.219463
    58  C    0.621403
    59  C   -0.065943
    60  H    0.219510
    61  H    0.137543
    62  O   -0.531764
    63  O   -0.606081
    64  H    0.400186
    65  N   -0.602749
    66  H    0.372194
    67  C   -0.088286
    68  H    0.183639
    69  C    0.651011
    70  C    0.118717
    71  H    0.171863
    72  O   -0.570755
    73  C   -0.461977
    74  H    0.152955
    75  H    0.148155
    76  H    0.168904
    77  O   -0.654990
    78  H    0.423333
    79  N   -0.604863
    80  H    0.368851
    81  C   -0.082182
    82  H    0.181348
    83  C    0.621175
    84  C   -0.278414
    85  H    0.202189
    86  H    0.169056
    87  O   -0.522263
    88  C   -0.386662
    89  H    0.141319
    90  H    0.161945
    91  C    0.604480
    92  N   -0.786093
    93  H    0.364070
    94  H    0.336867
    95  O   -0.502967
    96  N   -0.612242
    97  H    0.375302
    98  C   -0.075242
    99  H    0.160528
   100  C    0.640657
   101  C    0.117449
   102  H    0.166792
   103  O   -0.547607
   104  C   -0.478126
   105  H    0.188247
   106  H    0.132080
   107  H    0.160699
   108  O   -0.633496
   109  H    0.385466
   110  N   -0.621071
   111  H    0.376360
   112  C   -0.037014
   113  H    0.171741
   114  C    0.618597
   115  C   -0.448040
   116  H    0.148855
   117  H    0.180510
   118  H    0.159665
   119  O   -0.535697
   120  N   -0.624753
   121  H    0.351282
   122  C   -0.048434
   123  H    0.172465
   124  C    0.617074
   125  C   -0.254378
   126  H    0.166330
   127  H    0.144157
   128  O   -0.538794
   129  C   -0.090822
   130  H    0.129604
   131  C   -0.447723
   132  H    0.159256
   133  H    0.130527
   134  H    0.145475
   135  C   -0.443582
   136  H    0.145288
   137  H    0.143576
   138  H    0.145633
   139  N   -0.615550
   140  H    0.355873
   141  C   -0.046329
   142  H    0.214063
   143  C    0.590310
   144  C   -0.445890
   145  H    0.181509
   146  H    0.180048
   147  H    0.152016
   148  O   -0.450360
   149  O   -0.579958
   150  H    0.421000
 Sum of Mulliken charges =   1.00000

 Dipole moment (field-independent basis, Debye):
    X=            -29.8076    Y=            -26.6243    Z=            -26.9518  Tot=             48.2053
 Quadrupole moment (field-independent basis, Debye-Ang):
   XX=           -234.4443   YY=           -154.2632   ZZ=           -238.5881
   XY=            205.1120   XZ=            150.9179   YZ=            207.2928

 Normal termination of Gaussian 16 at Tue Jul 12 00:11:15 2022.
