 Gaussian 16, Revision C.01,
 Gaussian 16:  ES64L-G16RevC.01  3-Jul-2019

 -------------------------------------------------------------------
 # B3LYP/6-31G* guess=read geom=check nosymm integral(ultrafinegrid)
 -------------------------------------------------------------------

 ------------------------------------------------------
 Candidate Structure: Conf:745 Charge calc in gas phase
 ------------------------------------------------------
 Structure from the checkpoint file:  "conf-745.chk"
 Charge =  1 Multiplicity = 1

                          Input orientation:
 ---------------------------------------------------------------------
 Center     Atomic      Atomic             Coordinates (Angstroms)
 Number     Number       Type             X           Y           Z
 ---------------------------------------------------------------------
      1          7           0       -8.659787   -3.137510   -8.582512
      2          1           0       -8.238670   -3.689398   -9.335873
      3          1           0       -9.235791   -2.400256   -8.998632
      4          1           0       -9.240015   -3.786181   -7.969995
      5          6           0       -7.640901   -2.605878   -7.586819
      6          1           0       -6.659360   -2.633529   -8.063448
      7          6           0       -7.752518   -3.645444   -6.434746
      8          6           0       -8.032093   -1.170863   -7.182345
      9          1           0       -9.012942   -1.208505   -6.689287
     10          1           0       -8.153734   -0.587188   -8.107320
     11          8           0       -8.769786   -4.356581   -6.412539
     12          6           0       -7.028568   -0.419059   -6.277061
     13          1           0       -6.914293   -0.975670   -5.338465
     14          6           0       -5.644684   -0.271933   -6.929309
     15          1           0       -5.711530    0.261659   -7.885973
     16          1           0       -5.147536   -1.232721   -7.115512
     17          1           0       -4.978874    0.301088   -6.277231
     18          6           0       -7.615122    0.958126   -5.927602
     19          1           0       -7.743834    1.574943   -6.825695
     20          1           0       -8.589753    0.869085   -5.434562
     21          1           0       -6.945600    1.495754   -5.249245
     22          7           0       -6.746656   -3.696003   -5.569201
     23          1           0       -6.001011   -3.002043   -5.589704
     24          6           0       -6.727663   -4.504780   -4.343315
     25          1           0       -7.755657   -4.812787   -4.128632
     26          6           0       -6.191561   -3.538762   -3.266979
     27          6           0       -5.824210   -5.767929   -4.505513
     28          1           0       -4.803833   -5.404544   -4.689649
     29          8           0       -5.453329   -2.603998   -3.610516
     30          6           0       -5.803656   -6.620892   -3.226115
     31          1           0       -6.819953   -6.919284   -2.931066
     32          1           0       -5.312741   -6.108690   -2.394421
     33          1           0       -5.244206   -7.542937   -3.413116
     34          6           0       -6.273195   -6.609698   -5.709271
     35          1           0       -7.300878   -6.970198   -5.583357
     36          1           0       -5.620810   -7.482599   -5.811487
     37          1           0       -6.220303   -6.050877   -6.649370
     38          7           0       -6.563134   -3.755674   -1.993206
     39          1           0       -7.046777   -4.619733   -1.783877
     40          6           0       -5.895779   -3.078616   -0.871256
     41          1           0       -6.087747   -2.003620   -0.969725
     42          6           0       -4.379132   -3.361365   -0.997396
     43          6           0       -6.470824   -3.587729    0.470453
     44          1           0       -6.288298   -4.672035    0.498007
     45          8           0       -3.976497   -4.499705   -1.217171
     46          6           0       -5.733477   -2.955257    1.660685
     47          1           0       -5.845695   -1.863605    1.663737
     48          1           0       -4.664303   -3.186457    1.655635
     49          1           0       -6.150262   -3.330831    2.600478
     50          6           0       -7.981966   -3.325911    0.575552
     51          1           0       -8.193025   -2.249537    0.561474
     52          1           0       -8.554012   -3.785928   -0.237909
     53          1           0       -8.369675   -3.728170    1.517117
     54          7           0       -3.578124   -2.275537   -0.889125
     55          1           0       -3.940578   -1.385750   -0.564472
     56          6           0       -2.142029   -2.310310   -1.099551
     57          1           0       -1.812028   -3.347999   -1.005231
     58          6           0       -1.488817   -1.393109   -0.058779
     59          6           0       -1.810792   -1.796305   -2.530177
     60          1           0       -0.733663   -1.882922   -2.707588
     61          1           0       -2.072649   -0.725933   -2.577739
     62          8           0       -2.127886   -0.479674    0.459249
     63          8           0       -2.451870   -2.541586   -3.536175
     64          1           0       -3.414532   -2.438785   -3.427307
     65          7           0       -0.177287   -1.646811    0.194331
     66          1           0        0.334176   -2.259030   -0.438173
     67          6           0        0.690713   -0.680450    0.855874
     68          1           0        0.193949    0.296392    0.843431
     69          6           0        1.993207   -0.628047    0.029768
     70          6           0        0.989737   -1.079921    2.329136
     71          1           0        1.705238   -0.355214    2.734317
     72          8           0        2.196637   -1.461768   -0.862069
     73          6           0       -0.261177   -1.088847    3.205203
     74          1           0       -0.755036   -0.111951    3.211440
     75          1           0       -0.988395   -1.824236    2.842396
     76          1           0        0.017026   -1.353473    4.229666
     77          8           0        1.677744   -2.322967    2.367645
     78          1           0        1.045011   -3.009181    2.097885
     79          7           0        2.836623    0.368491    0.351952
     80          1           0        2.649728    0.944596    1.170535
     81          6           0        4.227197    0.475801   -0.082514
     82          1           0        4.574901   -0.518468   -0.380697
     83          6           0        5.005454    0.960988    1.157201
     84          6           0        4.408048    1.473489   -1.251288
     85          1           0        5.476706    1.668276   -1.399209
     86          1           0        3.943944    2.422924   -0.958721
     87          8           0        4.414435    1.526921    2.083430
     88          6           0        3.817871    0.984093   -2.586101
     89          1           0        3.828458    1.816219   -3.296689
     90          1           0        2.780045    0.661870   -2.455544
     91          6           0        4.686217   -0.120825   -3.196034
     92          7           0        4.187671   -1.385881   -3.080278
     93          1           0        3.434620   -1.583582   -2.427240
     94          1           0        4.796275   -2.142869   -3.363378
     95          8           0        5.756442    0.136915   -3.732108
     96          7           0        6.334397    0.746213    1.146315
     97          1           0        6.808894    0.334501    0.348215
     98          6           0        7.215805    1.173692    2.231103
     99          1           0        6.655151    1.093100    3.167203
    100          6           0        7.646644    2.640216    2.004966
    101          6           0        8.457295    0.252362    2.244067
    102          1           0        9.175138    0.684709    2.956274
    103          8           0        8.714453    2.918478    1.444680
    104          6           0        8.137799   -1.177522    2.659089
    105          1           0        7.747168   -1.209968    3.681968
    106          1           0        7.397300   -1.628583    1.990525
    107          1           0        9.049045   -1.780581    2.612993
    108          8           0        9.017447    0.220458    0.935814
    109          1           0        9.294133    1.145254    0.768588
    110          7           0        6.780014    3.571621    2.448820
    111          1           0        5.884155    3.305361    2.851555
    112          6           0        7.024417    4.997920    2.300617
    113          1           0        8.083032    5.180986    2.514088
    114          6           0        6.144294    5.713770    3.336754
    115          6           0        6.710203    5.500839    0.877797
    116          1           0        6.911838    6.573687    0.786424
    117          1           0        7.338306    4.967466    0.159646
    118          1           0        5.656900    5.323488    0.635994
    119          8           0        5.134838    5.178863    3.792737
    120          7           0        6.563764    6.959034    3.675550
    121          1           0        7.299853    7.402955    3.133864
    122          6           0        5.740203    7.902895    4.416515
    123          1           0        4.719681    7.508375    4.432275
    124          6           0        5.786026    9.230982    3.638012
    125          6           0        6.246582    8.127385    5.862583
    126          1           0        7.272148    8.515220    5.797475
    127          1           0        5.643489    8.923947    6.322148
    128          8           0        6.692398    9.473010    2.842264
    129          6           0        6.223169    6.888339    6.778164
    130          1           0        6.788289    6.090790    6.276671
    131          6           0        6.935764    7.212189    8.100537
    132          1           0        6.413053    8.008740    8.646269
    133          1           0        7.967075    7.544488    7.932386
    134          1           0        6.968934    6.332054    8.752659
    135          6           0        4.798824    6.372647    7.033203
    136          1           0        4.168626    7.157914    7.473416
    137          1           0        4.816145    5.533661    7.738511
    138          1           0        4.327698    6.014388    6.113057
    139          7           0        4.792553   10.112014    3.917201
    140          1           0        4.089094    9.878196    4.603877
    141          6           0        4.779093   11.455622    3.350368
    142          1           0        5.822914   11.768421    3.236745
    143          6           0        4.120607   12.463806    4.284266
    144          6           0        4.112342   11.509816    1.963708
    145          1           0        4.132656   12.533154    1.580110
    146          1           0        4.661731   10.858175    1.279883
    147          1           0        3.071720   11.172105    2.016670
    148          8           0        4.041982   13.645118    4.046854
    149          8           0        3.601742   11.900824    5.406290
    150          1           0        3.197870   12.628775    5.916333
 ---------------------------------------------------------------------

 SCF Done:  E(RB3LYP) =  -3455.49377200     A.U. after    1 cycles

 Alpha  occ. eigenvalues --  -19.27452 -19.25436 -19.23602 -19.20221 -19.20109
 Alpha  occ. eigenvalues --  -19.19366 -19.19294 -19.19271 -19.19015 -19.18029
 Alpha  occ. eigenvalues --  -19.17333 -19.16786 -19.16353 -19.16303 -19.13842
 Alpha  occ. eigenvalues --  -14.60703 -14.50286 -14.47230 -14.43848 -14.43029
 Alpha  occ. eigenvalues --  -14.42598 -14.42039 -14.41362 -14.40280 -14.40119
 Alpha  occ. eigenvalues --  -14.38040 -10.44284 -10.41372 -10.40367 -10.37411
 Alpha  occ. eigenvalues --  -10.36711 -10.36236 -10.36165 -10.35156 -10.34966
 Alpha  occ. eigenvalues --  -10.34104 -10.33801 -10.33337 -10.33248 -10.32550
 Alpha  occ. eigenvalues --  -10.31702 -10.31547 -10.30335 -10.30281 -10.30131
 Alpha  occ. eigenvalues --  -10.29823 -10.29683 -10.29671 -10.29122 -10.28749
 Alpha  occ. eigenvalues --  -10.28567 -10.28026 -10.28000 -10.27880 -10.27865
 Alpha  occ. eigenvalues --  -10.27820 -10.26795 -10.25989 -10.25819 -10.25343
 Alpha  occ. eigenvalues --  -10.24846 -10.23456 -10.23074 -10.22948 -10.22744
 Alpha  occ. eigenvalues --  -10.22429 -10.22420 -10.21358 -10.20586 -10.20157
 Alpha  occ. eigenvalues --   -1.19927  -1.16009  -1.15437  -1.14410  -1.11732
 Alpha  occ. eigenvalues --   -1.11195  -1.10555  -1.09797  -1.08950  -1.08328
 Alpha  occ. eigenvalues --   -1.07946  -1.07728  -1.07701  -1.06902  -1.06837
 Alpha  occ. eigenvalues --   -1.05683  -1.04962  -1.03435  -1.00087  -0.99542
 Alpha  occ. eigenvalues --   -0.99218  -0.98184  -0.97912  -0.96965  -0.96531
 Alpha  occ. eigenvalues --   -0.95370  -0.92921  -0.91456  -0.89394  -0.88592
 Alpha  occ. eigenvalues --   -0.86088  -0.85193  -0.84509  -0.83446  -0.82768
 Alpha  occ. eigenvalues --   -0.82502  -0.82144  -0.80782  -0.80676  -0.79305
 Alpha  occ. eigenvalues --   -0.78726  -0.78426  -0.77866  -0.77273  -0.76654
 Alpha  occ. eigenvalues --   -0.76372  -0.74622  -0.74536  -0.73746  -0.72879
 Alpha  occ. eigenvalues --   -0.72594  -0.71825  -0.71321  -0.70641  -0.69721
 Alpha  occ. eigenvalues --   -0.68925  -0.68750  -0.68550  -0.67856  -0.67812
 Alpha  occ. eigenvalues --   -0.67226  -0.66726  -0.66148  -0.65565  -0.64889
 Alpha  occ. eigenvalues --   -0.64858  -0.64623  -0.64092  -0.63774  -0.63475
 Alpha  occ. eigenvalues --   -0.62741  -0.62521  -0.62023  -0.61162  -0.60654
 Alpha  occ. eigenvalues --   -0.60553  -0.60214  -0.59742  -0.59402  -0.58880
 Alpha  occ. eigenvalues --   -0.58264  -0.58192  -0.57457  -0.57267  -0.57115
 Alpha  occ. eigenvalues --   -0.56191  -0.55903  -0.55610  -0.55288  -0.55208
 Alpha  occ. eigenvalues --   -0.54944  -0.54381  -0.54322  -0.53983  -0.53549
 Alpha  occ. eigenvalues --   -0.53345  -0.53160  -0.52914  -0.52740  -0.52244
 Alpha  occ. eigenvalues --   -0.52194  -0.52088  -0.52078  -0.51549  -0.51428
 Alpha  occ. eigenvalues --   -0.51183  -0.50836  -0.50649  -0.50579  -0.50345
 Alpha  occ. eigenvalues --   -0.50286  -0.49880  -0.49683  -0.49602  -0.49372
 Alpha  occ. eigenvalues --   -0.48943  -0.48749  -0.48703  -0.48572  -0.48393
 Alpha  occ. eigenvalues --   -0.48376  -0.48242  -0.47844  -0.47689  -0.47423
 Alpha  occ. eigenvalues --   -0.47265  -0.47183  -0.46863  -0.46711  -0.46522
 Alpha  occ. eigenvalues --   -0.46330  -0.46200  -0.46148  -0.45693  -0.45595
 Alpha  occ. eigenvalues --   -0.45344  -0.45243  -0.45081  -0.44792  -0.44584
 Alpha  occ. eigenvalues --   -0.44532  -0.44516  -0.44494  -0.44098  -0.43868
 Alpha  occ. eigenvalues --   -0.43706  -0.43397  -0.43090  -0.42888  -0.42792
 Alpha  occ. eigenvalues --   -0.42490  -0.42367  -0.42308  -0.42251  -0.42163
 Alpha  occ. eigenvalues --   -0.42141  -0.42062  -0.41908  -0.41849  -0.41522
 Alpha  occ. eigenvalues --   -0.41494  -0.41302  -0.41168  -0.40942  -0.40723
 Alpha  occ. eigenvalues --   -0.40359  -0.40088  -0.39808  -0.39570  -0.39544
 Alpha  occ. eigenvalues --   -0.39254  -0.39073  -0.38344  -0.37362  -0.37221
 Alpha  occ. eigenvalues --   -0.37100  -0.36948  -0.36470  -0.35888  -0.35852
 Alpha  occ. eigenvalues --   -0.34685  -0.34634  -0.33938  -0.33692  -0.33596
 Alpha  occ. eigenvalues --   -0.33284  -0.32735  -0.32676  -0.31837  -0.31571
 Alpha  occ. eigenvalues --   -0.31263  -0.31127  -0.30972  -0.30716  -0.30346
 Alpha  occ. eigenvalues --   -0.29579  -0.29491  -0.29196  -0.28608  -0.27569
 Alpha virt. eigenvalues --   -0.13042  -0.11677  -0.09620  -0.07110  -0.05933
 Alpha virt. eigenvalues --   -0.05719  -0.05462  -0.04846  -0.04294  -0.04031
 Alpha virt. eigenvalues --   -0.02719  -0.02700  -0.02340  -0.02061  -0.01592

 Mulliken charges:
               1
     1  N   -0.755842
     2  H    0.417964
     3  H    0.413344
     4  H    0.434023
     5  C   -0.118992
     6  H    0.216492
     7  C    0.650728
     8  C   -0.286749
     9  H    0.175691
    10  H    0.161773
    11  O   -0.540348
    12  C   -0.108261
    13  H    0.162839
    14  C   -0.462425
    15  H    0.157616
    16  H    0.139236
    17  H    0.188896
    18  C   -0.451766
    19  H    0.156798
    20  H    0.157318
    21  H    0.175602
    22  N   -0.595119
    23  H    0.381262
    24  C   -0.087769
    25  H    0.187388
    26  C    0.662433
    27  C   -0.073266
    28  H    0.164539
    29  O   -0.569749
    30  C   -0.503384
    31  H    0.134909
    32  H    0.209205
    33  H    0.173431
    34  C   -0.445682
    35  H    0.160987
    36  H    0.173318
    37  H    0.124199
    38  N   -0.602474
    39  H    0.351065
    40  C   -0.014993
    41  H    0.158289
    42  C    0.616586
    43  C   -0.121942
    44  H    0.155220
    45  O   -0.524664
    46  C   -0.464800
    47  H    0.152610
    48  H    0.171583
    49  H    0.167786
    50  C   -0.449673
    51  H    0.155062
    52  H    0.136857
    53  H    0.170467
    54  N   -0.605405
    55  H    0.350594
    56  C   -0.090218
    57  H    0.194309
    58  C    0.616159
    59  C   -0.026821
    60  H    0.161413
    61  H    0.128535
    62  O   -0.533339
    63  O   -0.640020
    64  H    0.429390
    65  N   -0.622157
    66  H    0.360355
    67  C   -0.091486
    68  H    0.185666
    69  C    0.651724
    70  C    0.129427
    71  H    0.159474
    72  O   -0.563788
    73  C   -0.460748
    74  H    0.161873
    75  H    0.145835
    76  H    0.169870
    77  O   -0.616303
    78  H    0.392757
    79  N   -0.601692
    80  H    0.364599
    81  C   -0.073366
    82  H    0.182877
    83  C    0.630320
    84  C   -0.267413
    85  H    0.176073
    86  H    0.153953
    87  O   -0.550017
    88  C   -0.343908
    89  H    0.173429
    90  H    0.148336
    91  C    0.554534
    92  N   -0.767619
    93  H    0.382153
    94  H    0.332316
    95  O   -0.505915
    96  N   -0.601721
    97  H    0.358959
    98  C   -0.077372
    99  H    0.178343
   100  C    0.640098
   101  C    0.115886
   102  H    0.142513
   103  O   -0.554739
   104  C   -0.449668
   105  H    0.147148
   106  H    0.149345
   107  H    0.171843
   108  O   -0.650196
   109  H    0.423443
   110  N   -0.616473
   111  H    0.375510
   112  C   -0.041951
   113  H    0.181214
   114  C    0.610118
   115  C   -0.454633
   116  H    0.161586
   117  H    0.187078
   118  H    0.156086
   119  O   -0.531453
   120  N   -0.599664
   121  H    0.353682
   122  C   -0.081148
   123  H    0.178787
   124  C    0.623775
   125  C   -0.252099
   126  H    0.146487
   127  H    0.132661
   128  O   -0.535636
   129  C   -0.065757
   130  H    0.138984
   131  C   -0.444841
   132  H    0.139555
   133  H    0.143945
   134  H    0.147224
   135  C   -0.465559
   136  H    0.126353
   137  H    0.145306
   138  H    0.177217
   139  N   -0.613640
   140  H    0.351518
   141  C   -0.043159
   142  H    0.213990
   143  C    0.589703
   144  C   -0.446142
   145  H    0.182619
   146  H    0.181166
   147  H    0.150277
   148  O   -0.448628
   149  O   -0.583220
   150  H    0.421905
 Sum of Mulliken charges =   1.00000

 Dipole moment (field-independent basis, Debye):
    X=            -38.0667    Y=             -8.0169    Z=            -23.2819  Tot=             45.3364
 Quadrupole moment (field-independent basis, Debye-Ang):
   XX=           -158.7056   YY=           -333.5933   ZZ=           -137.5002
   XY=            104.7204   XZ=            289.8983   YZ=            118.0303

 Normal termination of Gaussian 16 at Tue Jul 12 00:10:29 2022.
