 Gaussian 16, Revision C.01,
 Gaussian 16:  ES64L-G16RevC.01  3-Jul-2019

 -------------------------------------------------------------------
 # B3LYP/6-31G* guess=read geom=check nosymm integral(ultrafinegrid)
 -------------------------------------------------------------------

 ------------------------------------------------------
 Candidate Structure: Conf:304 Charge calc in gas phase
 ------------------------------------------------------
 Structure from the checkpoint file:  "conf-304.chk"
 Charge =  1 Multiplicity = 1

                          Input orientation:
 ---------------------------------------------------------------------
 Center     Atomic      Atomic             Coordinates (Angstroms)
 Number     Number       Type             X           Y           Z
 ---------------------------------------------------------------------
      1          7           0      -10.524635   -4.512357   -9.476866
      2          1           0      -11.037851   -4.167601  -10.292348
      3          1           0      -11.031249   -5.313512   -9.090163
      4          1           0       -9.531130   -4.780215   -9.772186
      5          6           0      -10.241265   -3.438922   -8.442435
      6          1           0      -10.820358   -2.552768   -8.709589
      7          6           0       -8.717208   -3.189191   -8.636515
      8          6           0      -10.583795   -3.931019   -7.027867
      9          1           0      -10.232563   -3.165502   -6.324875
     10          1           0       -9.980915   -4.826512   -6.820058
     11          8           0       -8.098732   -3.985761   -9.362056
     12          6           0      -12.076879   -4.218561   -6.752688
     13          1           0      -12.432490   -4.980914   -7.468617
     14          6           0      -12.225563   -4.820300   -5.346254
     15          1           0      -11.900345   -4.105976   -4.580613
     16          1           0      -11.629642   -5.732579   -5.231038
     17          1           0      -13.270741   -5.073514   -5.143559
     18          6           0      -12.956209   -2.969492   -6.913559
     19          1           0      -12.639365   -2.177859   -6.223756
     20          1           0      -12.935646   -2.557178   -7.930178
     21          1           0      -14.000461   -3.205969   -6.687042
     22          7           0       -8.209543   -2.145425   -7.997135
     23          1           0       -8.763014   -1.617174   -7.318888
     24          6           0       -6.778982   -1.841703   -7.850042
     25          1           0       -6.212195   -2.748740   -8.082389
     26          6           0       -6.660136   -1.462150   -6.353183
     27          6           0       -6.331980   -0.685628   -8.793479
     28          1           0       -6.886661    0.209492   -8.478252
     29          8           0       -7.641289   -0.964325   -5.788348
     30          6           0       -4.826567   -0.398951   -8.665650
     31          1           0       -4.231789   -1.287734   -8.913899
     32          1           0       -4.530872   -0.059927   -7.669648
     33          1           0       -4.542111    0.386773   -9.372834
     34          6           0       -6.692300   -0.993021  -10.254820
     35          1           0       -6.193562   -1.904479  -10.604227
     36          1           0       -6.371738   -0.166940  -10.897889
     37          1           0       -7.770479   -1.119560  -10.396220
     38          7           0       -5.486225   -1.723870   -5.758708
     39          1           0       -4.684433   -2.023762   -6.307974
     40          6           0       -5.115966   -1.245530   -4.423811
     41          1           0       -5.856332   -0.497082   -4.124818
     42          6           0       -3.721241   -0.619076   -4.620086
     43          6           0       -5.088617   -2.398825   -3.380057
     44          1           0       -4.327025   -3.113137   -3.723125
     45          8           0       -2.932938   -1.138929   -5.410217
     46          6           0       -4.688398   -1.894836   -1.984093
     47          1           0       -5.382774   -1.120128   -1.630729
     48          1           0       -3.672977   -1.491206   -1.941470
     49          1           0       -4.733186   -2.718813   -1.264449
     50          6           0       -6.443570   -3.119134   -3.324272
     51          1           0       -7.241251   -2.435989   -3.008790
     52          1           0       -6.721676   -3.538170   -4.296525
     53          1           0       -6.400043   -3.943183   -2.603902
     54          7           0       -3.457840    0.495851   -3.903838
     55          1           0       -4.108590    0.814136   -3.195405
     56          6           0       -2.156565    1.151029   -3.900279
     57          1           0       -1.484625    0.525161   -4.492020
     58          6           0       -1.719607    1.262556   -2.434186
     59          6           0       -2.230129    2.548910   -4.528046
     60          1           0       -1.232975    3.012808   -4.460316
     61          1           0       -2.928551    3.163913   -3.941159
     62          8           0       -2.515088    1.717609   -1.600902
     63          8           0       -2.651677    2.398534   -5.872974
     64          1           0       -2.716725    3.283039   -6.263652
     65          7           0       -0.474409    0.852716   -2.142788
     66          1           0        0.133508    0.435216   -2.840929
     67          6           0        0.077567    0.874171   -0.796128
     68          1           0       -0.249591    1.799916   -0.308435
     69          6           0        1.605707    0.850135   -0.970991
     70          6           0       -0.419536   -0.344133    0.055315
     71          1           0        0.091915   -1.240919   -0.315529
     72          8           0        2.099787    0.292284   -1.955573
     73          6           0       -0.131296   -0.165310    1.547782
     74          1           0        0.938710   -0.099022    1.768644
     75          1           0       -0.621115    0.739300    1.931014
     76          1           0       -0.538902   -1.021881    2.091836
     77          8           0       -1.801874   -0.585452   -0.165975
     78          1           0       -2.261103    0.274360   -0.196809
     79          7           0        2.325341    1.449178   -0.003595
     80          1           0        1.880125    1.814447    0.835418
     81          6           0        3.770513    1.302337    0.126026
     82          1           0        4.035756    0.268959   -0.118291
     83          6           0        4.080147    1.515037    1.620903
     84          6           0        4.575693    2.258318   -0.804741
     85          1           0        5.388753    2.726183   -0.241749
     86          1           0        3.904971    3.061142   -1.126515
     87          8           0        3.187537    1.876553    2.405319
     88          6           0        5.158350    1.557000   -2.035937
     89          1           0        5.552454    2.299468   -2.742042
     90          1           0        4.365005    1.005024   -2.555257
     91          6           0        6.275159    0.582870   -1.667017
     92          7           0        6.953595    0.045442   -2.713539
     93          1           0        6.707124    0.234720   -3.673286
     94          1           0        7.670212   -0.641369   -2.522702
     95          8           0        6.552952    0.289407   -0.504081
     96          7           0        5.351196    1.287237    1.987316
     97          1           0        6.018892    0.925525    1.300511
     98          6           0        5.776378    1.431118    3.371704
     99          1           0        5.201708    2.258971    3.804425
    100          6           0        7.272206    1.768541    3.354257
    101          6           0        5.474314    0.149260    4.210987
    102          1           0        6.133874   -0.650201    3.851524
    103          8           0        8.025049    1.250332    2.526128
    104          6           0        5.707497    0.370903    5.707906
    105          1           0        6.755871    0.588159    5.939601
    106          1           0        5.086121    1.195699    6.082109
    107          1           0        5.418881   -0.533537    6.250380
    108          8           0        4.154995   -0.307619    3.963454
    109          1           0        3.571560    0.467724    3.874746
    110          7           0        7.702898    2.653659    4.285082
    111          1           0        7.048828    3.019946    4.963966
    112          6           0        9.092297    3.127824    4.348378
    113          1           0        9.433932    3.201986    3.310160
    114          6           0       10.006819    2.111719    5.079682
    115          6           0        9.144529    4.495098    5.022115
    116          1           0       10.166587    4.881633    5.008359
    117          1           0        8.495723    5.203803    4.497605
    118          1           0        8.841425    4.423491    6.071014
    119          8           0       10.415118    2.322618    6.225159
    120          7           0       10.324352    1.014093    4.356625
    121          1           0        9.889278    0.909524    3.442872
    122          6           0       11.137557   -0.089151    4.888568
    123          1           0       10.902911   -0.165588    5.955913
    124          6           0       12.648989    0.248782    4.770247
    125          6           0       10.823718   -1.403103    4.167135
    126          1           0       11.086828   -1.285811    3.108432
    127          1           0       11.516817   -2.159564    4.554309
    128          8           0       13.395195   -0.336788    3.994084
    129          6           0        9.377470   -1.919262    4.295613
    130          1           0        8.699362   -1.151168    3.896756
    131          6           0        9.201993   -3.178681    3.433026
    132          1           0        9.856320   -3.987885    3.782176
    133          1           0        9.447615   -2.980404    2.383253
    134          1           0        8.169327   -3.544550    3.473646
    135          6           0        8.979246   -2.202488    5.752261
    136          1           0        9.651454   -2.943456    6.204388
    137          1           0        7.960814   -2.605077    5.806560
    138          1           0        9.009501   -1.301778    6.376083
    139          7           0       13.051705    1.246606    5.605608
    140          1           0       12.345651    1.693280    6.186700
    141          6           0       14.422267    1.717614    5.642087
    142          1           0       14.964949    1.077654    4.934814
    143          6           0       15.090131    1.495813    7.001763
    144          6           0       14.556454    3.182593    5.207398
    145          1           0       15.598663    3.502958    5.272275
    146          1           0       14.207232    3.294430    4.176918
    147          1           0       13.958994    3.838393    5.851049
    148          8           0       16.058507    2.110603    7.391036
    149          8           0       14.512763    0.508309    7.723338
    150          1           0       15.045326    0.433446    8.538082
 ---------------------------------------------------------------------

 SCF Done:  E(RB3LYP) =  -3455.48938402     A.U. after    3 cycles

 Alpha  occ. eigenvalues --  -19.26804 -19.22047 -19.21256 -19.21247 -19.18804
 Alpha  occ. eigenvalues --  -19.18733 -19.18628 -19.18169 -19.17955 -19.17916
 Alpha  occ. eigenvalues --  -19.17547 -19.17325 -19.16168 -19.16103 -19.13659
 Alpha  occ. eigenvalues --  -14.59778 -14.49157 -14.44976 -14.43469 -14.43014
 Alpha  occ. eigenvalues --  -14.42713 -14.41906 -14.41271 -14.40986 -14.39941
 Alpha  occ. eigenvalues --  -14.37659 -10.43429 -10.40617 -10.38382 -10.36089
 Alpha  occ. eigenvalues --  -10.35884 -10.35283 -10.35066 -10.34765 -10.34734
 Alpha  occ. eigenvalues --  -10.34272 -10.33894 -10.33486 -10.33002 -10.32291
 Alpha  occ. eigenvalues --  -10.30882 -10.30773 -10.30430 -10.30195 -10.29656
 Alpha  occ. eigenvalues --  -10.29529 -10.29108 -10.29031 -10.28953 -10.28857
 Alpha  occ. eigenvalues --  -10.28783 -10.28566 -10.28198 -10.26567 -10.26219
 Alpha  occ. eigenvalues --  -10.26150 -10.26093 -10.25403 -10.24860 -10.24833
 Alpha  occ. eigenvalues --  -10.24202 -10.23423 -10.23043 -10.22405 -10.22025
 Alpha  occ. eigenvalues --  -10.21782 -10.21039 -10.20586 -10.20198 -10.19893
 Alpha  occ. eigenvalues --   -1.19167  -1.13746  -1.13110  -1.12912  -1.11228
 Alpha  occ. eigenvalues --   -1.10591  -1.10223  -1.09816  -1.09219  -1.08881
 Alpha  occ. eigenvalues --   -1.08591  -1.07703  -1.06309  -1.05822  -1.05430
 Alpha  occ. eigenvalues --   -1.05325  -1.03751  -1.01413  -0.99683  -0.99185
 Alpha  occ. eigenvalues --   -0.98677  -0.98509  -0.97688  -0.96235  -0.95955
 Alpha  occ. eigenvalues --   -0.95063  -0.94497  -0.90831  -0.88499  -0.87511
 Alpha  occ. eigenvalues --   -0.85973  -0.84435  -0.84153  -0.83298  -0.82419
 Alpha  occ. eigenvalues --   -0.82120  -0.81119  -0.80257  -0.80100  -0.79240
 Alpha  occ. eigenvalues --   -0.78565  -0.77903  -0.77093  -0.76638  -0.76478
 Alpha  occ. eigenvalues --   -0.74843  -0.74708  -0.73871  -0.72880  -0.71628
 Alpha  occ. eigenvalues --   -0.70971  -0.70887  -0.70399  -0.70009  -0.69832
 Alpha  occ. eigenvalues --   -0.69314  -0.67993  -0.67495  -0.67270  -0.66935
 Alpha  occ. eigenvalues --   -0.66298  -0.66125  -0.65730  -0.65605  -0.65087
 Alpha  occ. eigenvalues --   -0.64510  -0.64112  -0.63435  -0.63204  -0.63036
 Alpha  occ. eigenvalues --   -0.62883  -0.62300  -0.61703  -0.60620  -0.60213
 Alpha  occ. eigenvalues --   -0.59495  -0.59341  -0.59137  -0.58812  -0.58482
 Alpha  occ. eigenvalues --   -0.57486  -0.57384  -0.56616  -0.56267  -0.55990
 Alpha  occ. eigenvalues --   -0.55742  -0.55579  -0.55429  -0.55065  -0.54935
 Alpha  occ. eigenvalues --   -0.54741  -0.54411  -0.54042  -0.53860  -0.53418
 Alpha  occ. eigenvalues --   -0.53188  -0.52959  -0.52479  -0.52124  -0.52039
 Alpha  occ. eigenvalues --   -0.51939  -0.51687  -0.51428  -0.51379  -0.51168
 Alpha  occ. eigenvalues --   -0.50907  -0.50411  -0.50130  -0.50062  -0.49674
 Alpha  occ. eigenvalues --   -0.49465  -0.49355  -0.49173  -0.49088  -0.48540
 Alpha  occ. eigenvalues --   -0.48481  -0.48387  -0.47962  -0.47725  -0.47372
 Alpha  occ. eigenvalues --   -0.47257  -0.47187  -0.46956  -0.46819  -0.46501
 Alpha  occ. eigenvalues --   -0.46385  -0.46280  -0.45850  -0.45804  -0.45692
 Alpha  occ. eigenvalues --   -0.45650  -0.45402  -0.45361  -0.45287  -0.45145
 Alpha  occ. eigenvalues --   -0.45085  -0.44997  -0.44807  -0.44453  -0.44311
 Alpha  occ. eigenvalues --   -0.44219  -0.44005  -0.43700  -0.43502  -0.43439
 Alpha  occ. eigenvalues --   -0.43221  -0.43156  -0.43082  -0.42749  -0.42530
 Alpha  occ. eigenvalues --   -0.42433  -0.42202  -0.42162  -0.41793  -0.41716
 Alpha  occ. eigenvalues --   -0.41664  -0.41299  -0.41179  -0.41082  -0.41035
 Alpha  occ. eigenvalues --   -0.40856  -0.40733  -0.40442  -0.40414  -0.40245
 Alpha  occ. eigenvalues --   -0.40032  -0.39964  -0.39872  -0.39120  -0.38623
 Alpha  occ. eigenvalues --   -0.38538  -0.38371  -0.38318  -0.37376  -0.35434
 Alpha  occ. eigenvalues --   -0.35398  -0.35222  -0.34984  -0.34697  -0.34115
 Alpha  occ. eigenvalues --   -0.34024  -0.33889  -0.33408  -0.33024  -0.32726
 Alpha  occ. eigenvalues --   -0.32481  -0.32392  -0.32229  -0.31836  -0.31647
 Alpha  occ. eigenvalues --   -0.31430  -0.31190  -0.30953  -0.30860  -0.30843
 Alpha  occ. eigenvalues --   -0.30595  -0.29795  -0.28851  -0.26795  -0.26550
 Alpha virt. eigenvalues --   -0.11961  -0.11366  -0.07319  -0.06685  -0.05796
 Alpha virt. eigenvalues --   -0.04776  -0.04582  -0.04088  -0.03817  -0.03238
 Alpha virt. eigenvalues --   -0.02704  -0.02437  -0.02194  -0.01467  -0.01217

 Mulliken charges:
               1
     1  N   -0.759418
     2  H    0.414919
     3  H    0.411836
     4  H    0.434530
     5  C   -0.116937
     6  H    0.215898
     7  C    0.653027
     8  C   -0.299189
     9  H    0.199081
    10  H    0.172440
    11  O   -0.543701
    12  C   -0.096611
    13  H    0.111904
    14  C   -0.448401
    15  H    0.168400
    16  H    0.158287
    17  H    0.174713
    18  C   -0.455249
    19  H    0.170636
    20  H    0.132693
    21  H    0.183112
    22  N   -0.595433
    23  H    0.370994
    24  C   -0.074382
    25  H    0.184243
    26  C    0.629024
    27  C   -0.075513
    28  H    0.148076
    29  O   -0.554560
    30  C   -0.477234
    31  H    0.153446
    32  H    0.185115
    33  H    0.166247
    34  C   -0.445928
    35  H    0.162730
    36  H    0.166722
    37  H    0.128662
    38  N   -0.602491
    39  H    0.362863
    40  C   -0.063406
    41  H    0.174023
    42  C    0.638053
    43  C   -0.072099
    44  H    0.146840
    45  O   -0.542817
    46  C   -0.478453
    47  H    0.139284
    48  H    0.184787
    49  H    0.163446
    50  C   -0.444511
    51  H    0.153079
    52  H    0.131809
    53  H    0.155566
    54  N   -0.587714
    55  H    0.350306
    56  C   -0.077261
    57  H    0.195765
    58  C    0.641484
    59  C   -0.022863
    60  H    0.138516
    61  H    0.145885
    62  O   -0.574442
    63  O   -0.614288
    64  H    0.402397
    65  N   -0.598900
    66  H    0.360044
    67  C   -0.096201
    68  H    0.171416
    69  C    0.615603
    70  C    0.165030
    71  H    0.149287
    72  O   -0.545458
    73  C   -0.474567
    74  H    0.159758
    75  H    0.145021
    76  H    0.174494
    77  O   -0.640586
    78  H    0.413565
    79  N   -0.622954
    80  H    0.364432
    81  C   -0.029856
    82  H    0.202946
    83  C    0.604411
    84  C   -0.270702
    85  H    0.169158
    86  H    0.157560
    87  O   -0.580086
    88  C   -0.394072
    89  H    0.162211
    90  H    0.212132
    91  C    0.614644
    92  N   -0.743417
    93  H    0.345697
    94  H    0.353902
    95  O   -0.518927
    96  N   -0.621357
    97  H    0.417581
    98  C   -0.094788
    99  H    0.161158
   100  C    0.626980
   101  C    0.166007
   102  H    0.157238
   103  O   -0.539959
   104  C   -0.475588
   105  H    0.153328
   106  H    0.136722
   107  H    0.177921
   108  O   -0.639960
   109  H    0.411275
   110  N   -0.598125
   111  H    0.341505
   112  C   -0.055223
   113  H    0.183233
   114  C    0.628479
   115  C   -0.468747
   116  H    0.178794
   117  H    0.153050
   118  H    0.175686
   119  O   -0.544807
   120  N   -0.613951
   121  H    0.375489
   122  C   -0.073205
   123  H    0.178656
   124  C    0.624998
   125  C   -0.278895
   126  H    0.155482
   127  H    0.158827
   128  O   -0.521857
   129  C   -0.087900
   130  H    0.131954
   131  C   -0.442253
   132  H    0.143865
   133  H    0.144798
   134  H    0.141025
   135  C   -0.454954
   136  H    0.145764
   137  H    0.143532
   138  H    0.146362
   139  N   -0.615460
   140  H    0.367753
   141  C   -0.058026
   142  H    0.215870
   143  C    0.588098
   144  C   -0.443763
   145  H    0.181089
   146  H    0.153846
   147  H    0.150755
   148  O   -0.464134
   149  O   -0.559311
   150  H    0.411613
 Sum of Mulliken charges =   1.00000

 Dipole moment (field-independent basis, Debye):
    X=            -40.2690    Y=             -9.0206    Z=            -36.7200  Tot=             55.2388
 Quadrupole moment (field-independent basis, Debye-Ang):
   XX=            -22.6573   YY=           -328.3483   ZZ=            -87.7195
   XY=            182.1811   XZ=            334.5158   YZ=            118.8674

 Normal termination of Gaussian 16 at Tue Jul 12 00:11:29 2022.
