 Gaussian 16, Revision C.01,
 Gaussian 16:  ES64L-G16RevC.01  3-Jul-2019

 -------------------------------------------------------------------
 # B3LYP/6-31G* guess=read geom=check nosymm integral(ultrafinegrid)
 -------------------------------------------------------------------

 ------------------------------------------------------
 Candidate Structure: Conf:584 Charge calc in gas phase
 ------------------------------------------------------
 Structure from the checkpoint file:  "conf-584.chk"
 Charge =  1 Multiplicity = 1

                          Input orientation:
 ---------------------------------------------------------------------
 Center     Atomic      Atomic             Coordinates (Angstroms)
 Number     Number       Type             X           Y           Z
 ---------------------------------------------------------------------
      1          7           0       -9.945806   -5.401400   -7.472072
      2          1           0       -9.881335   -5.395934   -8.493506
      3          1           0      -10.935607   -5.412724   -7.210459
      4          1           0       -9.429219   -6.256993   -7.091961
      5          6           0       -9.174306   -4.273391   -6.812012
      6          1           0       -8.865580   -3.575765   -7.593103
      7          6           0       -7.945407   -5.019287   -6.215342
      8          6           0      -10.024900   -3.576973   -5.738726
      9          1           0       -9.370521   -2.867241   -5.217505
     10          1           0      -10.312251   -4.326470   -4.987585
     11          8           0       -7.973851   -6.260837   -6.224209
     12          6           0      -11.275836   -2.825342   -6.246870
     13          1           0      -11.929062   -3.538050   -6.781108
     14          6           0      -12.074800   -2.300905   -5.043187
     15          1           0      -11.486301   -1.572897   -4.472257
     16          1           0      -12.361168   -3.110969   -4.363142
     17          1           0      -12.990170   -1.801948   -5.375808
     18          6           0      -10.925068   -1.685465   -7.214803
     19          1           0      -10.270796   -0.950015   -6.731090
     20          1           0      -10.422823   -2.034128   -8.125838
     21          1           0      -11.831952   -1.161634   -7.532249
     22          7           0       -6.970971   -4.256526   -5.739491
     23          1           0       -7.079196   -3.243901   -5.657236
     24          6           0       -5.814111   -4.730517   -4.967281
     25          1           0       -6.050655   -5.725700   -4.578137
     26          6           0       -5.704272   -3.684681   -3.829773
     27          6           0       -4.521141   -4.799267   -5.836041
     28          1           0       -4.263581   -3.764195   -6.101649
     29          8           0       -6.106434   -2.535502   -4.040250
     30          6           0       -3.349317   -5.413044   -5.052537
     31          1           0       -3.575455   -6.444110   -4.750903
     32          1           0       -3.083054   -4.849392   -4.154853
     33          1           0       -2.460270   -5.450542   -5.690048
     34          6           0       -4.758619   -5.588319   -7.132635
     35          1           0       -5.071570   -6.617189   -6.921153
     36          1           0       -3.832014   -5.631366   -7.714080
     37          1           0       -5.520509   -5.122019   -7.765444
     38          7           0       -5.190279   -4.109141   -2.661303
     39          1           0       -4.721310   -5.010566   -2.610618
     40          6           0       -4.814482   -3.206634   -1.574949
     41          1           0       -4.745600   -2.196928   -1.993027
     42          6           0       -3.423684   -3.676202   -1.100451
     43          6           0       -5.844217   -3.190920   -0.406477
     44          1           0       -5.425654   -2.512697    0.350586
     45          8           0       -2.990476   -4.786506   -1.417983
     46          6           0       -7.190398   -2.609791   -0.859427
     47          1           0       -7.670793   -3.260872   -1.598666
     48          1           0       -7.073766   -1.619593   -1.311759
     49          1           0       -7.868352   -2.519333   -0.003745
     50          6           0       -6.020230   -4.573478    0.237766
     51          1           0       -6.446800   -5.288003   -0.476208
     52          1           0       -5.073518   -4.986982    0.600936
     53          1           0       -6.705332   -4.508659    1.089398
     54          7           0       -2.748751   -2.810433   -0.315795
     55          1           0       -3.155087   -1.928536   -0.015106
     56          6           0       -1.494246   -3.140717    0.334927
     57          1           0       -1.516557   -4.183189    0.670485
     58          6           0       -1.344617   -2.189058    1.524585
     59          6           0       -0.287512   -2.985841   -0.641691
     60          1           0       -0.285816   -1.964233   -1.044733
     61          1           0       -0.450088   -3.683962   -1.466969
     62          8           0       -2.053673   -1.195267    1.648417
     63          8           0        0.945282   -3.315071   -0.026168
     64          1           0        1.346290   -2.496037    0.326832
     65          7           0       -0.336820   -2.521764    2.391266
     66          1           0        0.329013   -3.190201    2.005328
     67          6           0        0.231785   -1.504002    3.271535
     68          1           0       -0.600403   -0.930720    3.687483
     69          6           0        1.146799   -0.580751    2.452033
     70          6           0        0.953683   -2.220940    4.449968
     71          1           0        1.720341   -2.888794    4.022974
     72          8           0        1.827716   -1.022929    1.500658
     73          6           0        1.630182   -1.271928    5.428428
     74          1           0        2.499589   -0.790781    4.974001
     75          1           0        0.929376   -0.512937    5.796065
     76          1           0        1.974990   -1.850477    6.289509
     77          8           0       -0.010631   -2.960484    5.178471
     78          1           0       -0.478447   -3.534290    4.549294
     79          7           0        1.177577    0.711043    2.815501
     80          1           0        0.615176    1.002427    3.605717
     81          6           0        1.998529    1.748583    2.164011
     82          1           0        1.999792    1.518012    1.092605
     83          6           0        3.446688    1.642035    2.702684
     84          6           0        1.371872    3.119388    2.412544
     85          1           0        1.406287    3.336764    3.486758
     86          1           0        0.320925    3.095512    2.108136
     87          8           0        3.888699    2.408130    3.560062
     88          6           0        2.064352    4.252399    1.649600
     89          1           0        2.201110    3.970822    0.595192
     90          1           0        3.059250    4.444857    2.063384
     91          6           0        1.198652    5.517397    1.660944
     92          7           0        1.889113    6.692261    1.617380
     93          1           0        2.890052    6.737742    1.733031
     94          1           0        1.363239    7.555168    1.644143
     95          8           0       -0.023512    5.469316    1.663519
     96          7           0        4.152809    0.613183    2.177433
     97          1           0        3.659014    0.012417    1.525794
     98          6           0        5.373365    0.096159    2.806704
     99          1           0        5.304468    0.337216    3.874147
    100          6           0        6.605240    0.818174    2.219926
    101          6           0        5.438426   -1.440805    2.650267
    102          1           0        5.621916   -1.673272    1.592180
    103          8           0        7.404692    0.258085    1.464063
    104          6           0        6.548090   -2.049886    3.496807
    105          1           0        7.523706   -1.662850    3.194458
    106          1           0        6.382362   -1.830979    4.557888
    107          1           0        6.545687   -3.136068    3.370643
    108          8           0        4.207225   -2.027940    3.084732
    109          1           0        3.542730   -1.934271    2.382791
    110          7           0        6.714001    2.113241    2.596870
    111          1           0        5.975820    2.498885    3.182868
    112          6           0        7.702870    3.027651    2.013000
    113          1           0        7.853934    2.704790    0.975668
    114          6           0        9.068349    2.912321    2.736217
    115          6           0        7.180131    4.459979    2.050588
    116          1           0        7.898283    5.135580    1.580068
    117          1           0        6.227167    4.527905    1.515125
    118          1           0        7.043869    4.797705    3.082225
    119          8           0        9.532737    3.846200    3.396384
    120          7           0        9.694017    1.725663    2.568258
    121          1           0        9.226434    1.015666    2.006953
    122          6           0       10.938619    1.377792    3.267006
    123          1           0       10.901044    1.889985    4.234145
    124          6           0       12.156468    1.930140    2.480733
    125          6           0       11.022572   -0.140447    3.455423
    126          1           0       10.056888   -0.486151    3.851726
    127          1           0       11.157056   -0.596852    2.467560
    128          8           0       12.921641    1.206012    1.852218
    129          6           0       12.152054   -0.629892    4.385104
    130          1           0       13.095234   -0.223865    4.000333
    131          6           0       11.970029   -0.159294    5.836496
    132          1           0       11.022872   -0.526678    6.254351
    133          1           0       11.974586    0.932789    5.927513
    134          1           0       12.779662   -0.539615    6.470004
    135          6           0       12.243164   -2.162037    4.323691
    136          1           0       11.314091   -2.628564    4.678442
    137          1           0       13.060539   -2.532762    4.952884
    138          1           0       12.423983   -2.508932    3.299838
    139          7           0       12.278053    3.284481    2.552361
    140          1           0       11.542728    3.798494    3.033857
    141          6           0       13.321692    4.004854    1.849171
    142          1           0       13.957037    3.227624    1.405418
    143          6           0       14.227855    4.798143    2.794015
    144          6           0       12.772936    4.907833    0.737790
    145          1           0       13.587830    5.446775    0.249314
    146          1           0       12.246187    4.299641   -0.003171
    147          1           0       12.073119    5.647034    1.143941
    148          8           0       14.868721    5.772146    2.465244
    149          8           0       14.278976    4.276741    4.040833
    150          1           0       14.914149    4.832407    4.531503
 ---------------------------------------------------------------------

 SCF Done:  E(RB3LYP) =  -3455.49323278     A.U. after    3 cycles

 Alpha  occ. eigenvalues --  -19.27295 -19.22445 -19.22169 -19.22079 -19.21641
 Alpha  occ. eigenvalues --  -19.20885 -19.20679 -19.20495 -19.19934 -19.19453
 Alpha  occ. eigenvalues --  -19.17601 -19.16261 -19.16214 -19.15864 -19.13756
 Alpha  occ. eigenvalues --  -14.60242 -14.49738 -14.46350 -14.45782 -14.44559
 Alpha  occ. eigenvalues --  -14.44231 -14.43111 -14.41341 -14.40907 -14.39513
 Alpha  occ. eigenvalues --  -14.37725 -10.43952 -10.41094 -10.39262 -10.38862
 Alpha  occ. eigenvalues --  -10.37548 -10.37463 -10.36195 -10.34576 -10.34473
 Alpha  occ. eigenvalues --  -10.34341 -10.34186 -10.33960 -10.32702 -10.32683
 Alpha  occ. eigenvalues --  -10.32051 -10.31724 -10.31462 -10.31312 -10.31283
 Alpha  occ. eigenvalues --  -10.31040 -10.30778 -10.29620 -10.29596 -10.29410
 Alpha  occ. eigenvalues --  -10.29165 -10.28594 -10.28355 -10.28006 -10.26635
 Alpha  occ. eigenvalues --  -10.26208 -10.26080 -10.26054 -10.25778 -10.25674
 Alpha  occ. eigenvalues --  -10.25158 -10.25041 -10.23659 -10.22996 -10.21967
 Alpha  occ. eigenvalues --  -10.21091 -10.20989 -10.20623 -10.19598 -10.19367
 Alpha  occ. eigenvalues --   -1.19664  -1.14392  -1.13887  -1.13819  -1.12970
 Alpha  occ. eigenvalues --   -1.12789  -1.12024  -1.11064  -1.09225  -1.09014
 Alpha  occ. eigenvalues --   -1.08613  -1.08126  -1.07447  -1.07266  -1.06399
 Alpha  occ. eigenvalues --   -1.05455  -1.03818  -1.02310  -1.02282  -1.01068
 Alpha  occ. eigenvalues --   -1.00725  -0.99430  -0.97723  -0.95916  -0.95520
 Alpha  occ. eigenvalues --   -0.95477  -0.94533  -0.91432  -0.89170  -0.88553
 Alpha  occ. eigenvalues --   -0.87830  -0.85515  -0.84286  -0.83468  -0.83394
 Alpha  occ. eigenvalues --   -0.82881  -0.81580  -0.80734  -0.80090  -0.79965
 Alpha  occ. eigenvalues --   -0.79726  -0.78724  -0.77502  -0.77231  -0.76812
 Alpha  occ. eigenvalues --   -0.76115  -0.75815  -0.74334  -0.73407  -0.72817
 Alpha  occ. eigenvalues --   -0.71876  -0.70721  -0.70403  -0.70097  -0.69898
 Alpha  occ. eigenvalues --   -0.69749  -0.69512  -0.68979  -0.67893  -0.67597
 Alpha  occ. eigenvalues --   -0.67269  -0.66802  -0.66395  -0.66344  -0.65430
 Alpha  occ. eigenvalues --   -0.64848  -0.64560  -0.63848  -0.63690  -0.63304
 Alpha  occ. eigenvalues --   -0.62670  -0.62565  -0.61603  -0.61222  -0.60488
 Alpha  occ. eigenvalues --   -0.59985  -0.59897  -0.59831  -0.59084  -0.59037
 Alpha  occ. eigenvalues --   -0.58702  -0.58566  -0.58231  -0.57937  -0.57823
 Alpha  occ. eigenvalues --   -0.57146  -0.56882  -0.56712  -0.56041  -0.55807
 Alpha  occ. eigenvalues --   -0.55652  -0.55349  -0.55155  -0.54752  -0.54595
 Alpha  occ. eigenvalues --   -0.54422  -0.53824  -0.53548  -0.53074  -0.52909
 Alpha  occ. eigenvalues --   -0.52713  -0.52219  -0.52043  -0.52008  -0.51847
 Alpha  occ. eigenvalues --   -0.51512  -0.51455  -0.51316  -0.50845  -0.50582
 Alpha  occ. eigenvalues --   -0.50432  -0.50101  -0.50024  -0.49838  -0.49551
 Alpha  occ. eigenvalues --   -0.49298  -0.48938  -0.48750  -0.48606  -0.48125
 Alpha  occ. eigenvalues --   -0.48015  -0.47902  -0.47655  -0.47191  -0.47165
 Alpha  occ. eigenvalues --   -0.46922  -0.46786  -0.46611  -0.46237  -0.46156
 Alpha  occ. eigenvalues --   -0.46071  -0.45884  -0.45659  -0.45508  -0.45476
 Alpha  occ. eigenvalues --   -0.45406  -0.45380  -0.45342  -0.44828  -0.44812
 Alpha  occ. eigenvalues --   -0.44712  -0.44423  -0.44354  -0.43945  -0.43930
 Alpha  occ. eigenvalues --   -0.43612  -0.43495  -0.43235  -0.43170  -0.43124
 Alpha  occ. eigenvalues --   -0.43066  -0.42825  -0.42712  -0.42550  -0.42359
 Alpha  occ. eigenvalues --   -0.42320  -0.42115  -0.41742  -0.41707  -0.41558
 Alpha  occ. eigenvalues --   -0.41383  -0.41262  -0.40689  -0.40635  -0.40543
 Alpha  occ. eigenvalues --   -0.40390  -0.40141  -0.39753  -0.39470  -0.39091
 Alpha  occ. eigenvalues --   -0.39076  -0.38374  -0.38212  -0.38168  -0.37246
 Alpha  occ. eigenvalues --   -0.36989  -0.36461  -0.36303  -0.35670  -0.35279
 Alpha  occ. eigenvalues --   -0.35038  -0.34724  -0.34486  -0.34401  -0.34254
 Alpha  occ. eigenvalues --   -0.34103  -0.33835  -0.33232  -0.32997  -0.32685
 Alpha  occ. eigenvalues --   -0.32649  -0.32264  -0.31861  -0.30882  -0.30675
 Alpha  occ. eigenvalues --   -0.30219  -0.30114  -0.28573  -0.26894  -0.26549
 Alpha virt. eigenvalues --   -0.12474  -0.11782  -0.08675  -0.08140  -0.07163
 Alpha virt. eigenvalues --   -0.07106  -0.06133  -0.05675  -0.04581  -0.04093
 Alpha virt. eigenvalues --   -0.02673  -0.02413  -0.02135  -0.01677  -0.01548

 Mulliken charges:
               1
     1  N   -0.759097
     2  H    0.415936
     3  H    0.412480
     4  H    0.434874
     5  C   -0.116962
     6  H    0.216720
     7  C    0.653835
     8  C   -0.298782
     9  H    0.197267
    10  H    0.172433
    11  O   -0.542694
    12  C   -0.097015
    13  H    0.112842
    14  C   -0.448511
    15  H    0.167821
    16  H    0.158292
    17  H    0.175890
    18  C   -0.455443
    19  H    0.170328
    20  H    0.133108
    21  H    0.184261
    22  N   -0.597264
    23  H    0.371266
    24  C   -0.070422
    25  H    0.185833
    26  C    0.625168
    27  C   -0.077957
    28  H    0.149563
    29  O   -0.550134
    30  C   -0.478047
    31  H    0.155230
    32  H    0.174248
    33  H    0.169987
    34  C   -0.447342
    35  H    0.164363
    36  H    0.169616
    37  H    0.128284
    38  N   -0.599543
    39  H    0.366036
    40  C   -0.073988
    41  H    0.186249
    42  C    0.633653
    43  C   -0.079241
    44  H    0.145359
    45  O   -0.546164
    46  C   -0.442801
    47  H    0.136189
    48  H    0.159256
    49  H    0.156985
    50  C   -0.462558
    51  H    0.145019
    52  H    0.164759
    53  H    0.162356
    54  N   -0.623844
    55  H    0.362141
    56  C   -0.060794
    57  H    0.193919
    58  C    0.595266
    59  C   -0.045995
    60  H    0.144248
    61  H    0.183263
    62  O   -0.520129
    63  O   -0.642447
    64  H    0.435129
    65  N   -0.629701
    66  H    0.351938
    67  C   -0.095703
    68  H    0.190766
    69  C    0.661444
    70  C    0.138205
    71  H    0.145533
    72  O   -0.603158
    73  C   -0.473927
    74  H    0.170060
    75  H    0.144334
    76  H    0.188211
    77  O   -0.613200
    78  H    0.401847
    79  N   -0.586321
    80  H    0.359491
    81  C   -0.063658
    82  H    0.179040
    83  C    0.635675
    84  C   -0.289194
    85  H    0.170736
    86  H    0.188829
    87  O   -0.536990
    88  C   -0.383353
    89  H    0.171422
    90  H    0.170792
    91  C    0.605759
    92  N   -0.746931
    93  H    0.341128
    94  H    0.349391
    95  O   -0.504881
    96  N   -0.615654
    97  H    0.356038
    98  C   -0.061803
    99  H    0.182695
   100  C    0.640473
   101  C    0.100366
   102  H    0.149271
   103  O   -0.548196
   104  C   -0.465310
   105  H    0.178810
   106  H    0.153473
   107  H    0.167453
   108  O   -0.650149
   109  H    0.406836
   110  N   -0.612271
   111  H    0.371675
   112  C   -0.056851
   113  H    0.180016
   114  C    0.630636
   115  C   -0.463483
   116  H    0.176465
   117  H    0.138260
   118  H    0.175774
   119  O   -0.545975
   120  N   -0.625243
   121  H    0.375575
   122  C   -0.060621
   123  H    0.175544
   124  C    0.628703
   125  C   -0.279199
   126  H    0.128107
   127  H    0.158565
   128  O   -0.526376
   129  C   -0.079129
   130  H    0.159821
   131  C   -0.451137
   132  H    0.133541
   133  H    0.147084
   134  H    0.147039
   135  C   -0.445610
   136  H    0.131533
   137  H    0.143893
   138  H    0.149199
   139  N   -0.611538
   140  H    0.367607
   141  C   -0.058365
   142  H    0.215412
   143  C    0.587247
   144  C   -0.442860
   145  H    0.179560
   146  H    0.154327
   147  H    0.150694
   148  O   -0.464795
   149  O   -0.558461
   150  H    0.411455
 Sum of Mulliken charges =   1.00000

 Dipole moment (field-independent basis, Debye):
    X=            -41.8992    Y=            -16.6186    Z=            -25.6687  Tot=             51.8710
 Quadrupole moment (field-independent basis, Debye-Ang):
   XX=           -106.9863   YY=           -325.5218   ZZ=           -203.5538
   XY=            180.5448   XZ=            285.7204   YZ=            130.5135

 Normal termination of Gaussian 16 at Tue Jul 12 00:11:31 2022.
