 Gaussian 16, Revision C.01,
 Gaussian 16:  ES64L-G16RevC.01  3-Jul-2019

 -------------------------------------------------------------------
 # B3LYP/6-31G* guess=read geom=check nosymm integral(ultrafinegrid)
 -------------------------------------------------------------------

 ------------------------------------------------------
 Candidate Structure: Conf:727 Charge calc in gas phase
 ------------------------------------------------------
 Structure from the checkpoint file:  "conf-727.chk"
 Charge =  1 Multiplicity = 1

                          Input orientation:
 ---------------------------------------------------------------------
 Center     Atomic      Atomic             Coordinates (Angstroms)
 Number     Number       Type             X           Y           Z
 ---------------------------------------------------------------------
      1          7           0       -9.616659   -6.735360   -5.966826
      2          1           0       -9.859600   -7.091490   -6.895216
      3          1           0      -10.390470   -6.941848   -5.328828
      4          1           0       -8.708498   -7.194303   -5.642703
      5          6           0       -9.227878   -5.268205   -5.965738
      6          1           0       -9.485209   -4.852014   -6.941771
      7          6           0       -7.684634   -5.334729   -5.777579
      8          6           0       -9.931688   -4.512328   -4.828029
      9          1           0       -9.511898   -3.498971   -4.804951
     10          1           0       -9.642836   -4.978058   -3.875066
     11          8           0       -7.193242   -6.435419   -5.480821
     12          6           0      -11.470742   -4.415218   -4.928645
     13          1           0      -11.892336   -5.435652   -4.962012
     14          6           0      -12.019449   -3.745573   -3.658683
     15          1           0      -11.649570   -2.717210   -3.569551
     16          1           0      -11.725203   -4.289787   -2.754305
     17          1           0      -13.112637   -3.705195   -3.685879
     18          6           0      -11.932667   -3.669092   -6.189262
     19          1           0      -11.534995   -2.647074   -6.205791
     20          1           0      -11.625839   -4.164215   -7.119098
     21          1           0      -13.024463   -3.598303   -6.212137
     22          7           0       -7.023512   -4.196679   -5.944662
     23          1           0       -7.514600   -3.309028   -6.064459
     24          6           0       -5.603868   -3.982987   -5.632901
     25          1           0       -5.281630   -4.782111   -4.957806
     26          6           0       -5.606209   -2.605796   -4.924094
     27          6           0       -4.715854   -3.990139   -6.914595
     28          1           0       -5.001846   -3.106729   -7.502757
     29          8           0       -6.493199   -1.793065   -5.204320
     30          6           0       -3.222477   -3.885547   -6.563941
     31          1           0       -2.900585   -4.739084   -5.953143
     32          1           0       -2.967627   -2.968226   -6.026890
     33          1           0       -2.626414   -3.902030   -7.481810
     34          6           0       -4.970680   -5.243469   -7.765454
     35          1           0       -4.749293   -6.158282   -7.203985
     36          1           0       -4.326187   -5.227220   -8.650236
     37          1           0       -6.006066   -5.299191   -8.116079
     38          7           0       -4.636382   -2.387700   -4.017971
     39          1           0       -3.868131   -3.044395   -3.916011
     40          6           0       -4.393966   -1.091195   -3.383817
     41          1           0       -4.973360   -0.343422   -3.934164
     42          6           0       -2.881798   -0.847700   -3.533665
     43          6           0       -4.831241   -1.086365   -1.887378
     44          1           0       -4.218803   -1.844422   -1.378766
     45          8           0       -2.096094   -1.797416   -3.518304
     46          6           0       -4.574769    0.273916   -1.218042
     47          1           0       -5.118747    1.076848   -1.734167
     48          1           0       -3.514972    0.542488   -1.182620
     49          1           0       -4.938400    0.253191   -0.185588
     50          6           0       -6.308692   -1.480923   -1.749191
     51          1           0       -6.958456   -0.765857   -2.267357
     52          1           0       -6.503700   -2.476324   -2.159728
     53          1           0       -6.594419   -1.493173   -0.691978
     54          7           0       -2.479434    0.435020   -3.693229
     55          1           0       -3.132616    1.201064   -3.575025
     56          6           0       -1.067684    0.798690   -3.693499
     57          1           0       -0.534861    0.127806   -4.373903
     58          6           0       -0.486443    0.706892   -2.271645
     59          6           0       -0.939377    2.255812   -4.176653
     60          1           0       -1.281391    2.335145   -5.212710
     61          1           0        0.118223    2.552689   -4.139372
     62          8           0       -0.909260    1.478050   -1.385644
     63          8           0       -1.758019    3.122530   -3.398960
     64          1           0       -1.599075    2.864930   -2.462546
     65          7           0        0.490370   -0.180240   -2.060735
     66          1           0        0.816066   -0.798743   -2.797684
     67          6           0        1.164023   -0.352424   -0.772241
     68          1           0        0.428528   -0.178453    0.019984
     69          6           0        2.308361    0.683744   -0.650937
     70          6           0        1.719102   -1.792431   -0.709325
     71          1           0        2.355354   -1.859365    0.183466
     72          8           0        3.491996    0.356439   -0.815149
     73          6           0        0.621863   -2.846754   -0.634568
     74          1           0        0.045543   -2.739777    0.291079
     75          1           0       -0.066265   -2.770827   -1.483532
     76          1           0        1.076419   -3.841282   -0.648370
     77          8           0        2.488133   -2.033184   -1.884169
     78          1           0        3.256733   -1.434012   -1.803836
     79          7           0        1.902527    1.942979   -0.398263
     80          1           0        0.910360    2.097768   -0.249508
     81          6           0        2.813694    3.094017   -0.292877
     82          1           0        3.569710    2.972571   -1.076519
     83          6           0        3.478794    3.034029    1.102546
     84          6           0        2.047116    4.404178   -0.489211
     85          1           0        2.745092    5.240763   -0.389650
     86          1           0        1.325795    4.514730    0.328815
     87          8           0        2.862955    3.344339    2.116496
     88          6           0        1.353733    4.508022   -1.852294
     89          1           0        0.578686    3.742517   -1.962065
     90          1           0        2.086791    4.332992   -2.653519
     91          6           0        0.758019    5.900293   -2.086217
     92          7           0       -0.391485    5.916938   -2.820806
     93          1           0       -0.885449    5.078019   -3.105299
     94          1           0       -0.813155    6.816780   -3.005423
     95          8           0        1.299944    6.915127   -1.671751
     96          7           0        4.736827    2.531626    1.084942
     97          1           0        5.234838    2.410713    0.208839
     98          6           0        5.543712    2.266614    2.259375
     99          1           0        5.252485    2.958753    3.057068
    100          6           0        7.006574    2.503897    1.838769
    101          6           0        5.348493    0.793643    2.743309
    102          1           0        6.130597    0.578599    3.481408
    103          8           0        7.325892    2.598365    0.654728
    104          6           0        3.984146    0.550470    3.391757
    105          1           0        3.826717    1.203226    4.257001
    106          1           0        3.168469    0.741239    2.687488
    107          1           0        3.926687   -0.492478    3.719744
    108          8           0        5.595735   -0.108378    1.676648
    109          1           0        4.957401    0.089117    0.966232
    110          7           0        7.897338    2.582545    2.854259
    111          1           0        7.624986    2.459794    3.824014
    112          6           0        9.329377    2.671734    2.627572
    113          1           0        9.585270    2.012223    1.789792
    114          6           0       10.008625    2.173154    3.912300
    115          6           0        9.772564    4.107311    2.282891
    116          1           0       10.848417    4.155536    2.081318
    117          1           0        9.238544    4.437368    1.388602
    118          1           0        9.543113    4.788610    3.108511
    119          8           0        9.380399    2.092525    4.975044
    120          7           0       11.317658    1.857488    3.806108
    121          1           0       11.787057    1.985895    2.918903
    122          6           0       12.121365    1.362486    4.935036
    123          1           0       11.437837    0.769497    5.549652
    124          6           0       12.631418    2.560016    5.778131
    125          6           0       13.272158    0.499368    4.409274
    126          1           0       12.855519   -0.217644    3.687738
    127          1           0       13.966151    1.154061    3.867605
    128          8           0       13.794278    2.946224    5.732802
    129          6           0       14.064089   -0.271123    5.486074
    130          1           0       14.434332    0.462771    6.212040
    131          6           0       13.202561   -1.304962    6.227771
    132          1           0       12.783807   -2.043150    5.530734
    133          1           0       12.368758   -0.845463    6.770799
    134          1           0       13.804666   -1.850109    6.963580
    135          6           0       15.283053   -0.947874    4.841260
    136          1           0       14.974495   -1.685714    4.088615
    137          1           0       15.882771   -1.473063    5.593237
    138          1           0       15.931501   -0.214662    4.348057
    139          7           0       11.665430    3.138439    6.543349
    140          1           0       10.715100    2.789869    6.450362
    141          6           0       11.926467    4.295918    7.378662
    142          1           0       13.001544    4.488754    7.273607
    143          6           0       11.695753    4.013932    8.866017
    144          6           0       11.141305    5.535650    6.933483
    145          1           0       11.349295    6.374348    7.601408
    146          1           0       11.427217    5.807305    5.913298
    147          1           0       10.062123    5.345477    6.954626
    148          8           0       11.474105    4.870562    9.692538
    149          8           0       11.803314    2.702864    9.180495
    150          1           0       11.685493    2.654395   10.148444
 ---------------------------------------------------------------------

 SCF Done:  E(RB3LYP) =  -3455.49704335     A.U. after    2 cycles

 Alpha  occ. eigenvalues --  -19.27712 -19.23457 -19.22752 -19.22695 -19.21697
 Alpha  occ. eigenvalues --  -19.21673 -19.20243 -19.19477 -19.17607 -19.17194
 Alpha  occ. eigenvalues --  -19.16827 -19.15812 -19.15434 -19.14719 -19.14425
 Alpha  occ. eigenvalues --  -14.60640 -14.50207 -14.46687 -14.46062 -14.45653
 Alpha  occ. eigenvalues --  -14.43140 -14.41880 -14.40081 -14.39967 -14.38874
 Alpha  occ. eigenvalues --  -14.38826 -10.44389 -10.41477 -10.39931 -10.38640
 Alpha  occ. eigenvalues --  -10.38403 -10.36260 -10.35174 -10.34941 -10.34423
 Alpha  occ. eigenvalues --  -10.34306 -10.33119 -10.33007 -10.32963 -10.32951
 Alpha  occ. eigenvalues --  -10.32875 -10.32790 -10.32455 -10.31812 -10.30887
 Alpha  occ. eigenvalues --  -10.30652 -10.30197 -10.29690 -10.28884 -10.28869
 Alpha  occ. eigenvalues --  -10.28604 -10.28386 -10.27803 -10.27333 -10.27177
 Alpha  occ. eigenvalues --  -10.27135 -10.26940 -10.26863 -10.25837 -10.25600
 Alpha  occ. eigenvalues --  -10.24346 -10.23777 -10.23720 -10.22659 -10.22044
 Alpha  occ. eigenvalues --  -10.21672 -10.21219 -10.21009 -10.20117 -10.19810
 Alpha  occ. eigenvalues --   -1.20080  -1.14974  -1.14392  -1.13950  -1.13563
 Alpha  occ. eigenvalues --   -1.13044  -1.11120  -1.10349  -1.09441  -1.08104
 Alpha  occ. eigenvalues --   -1.07827  -1.07103  -1.06871  -1.06490  -1.06320
 Alpha  occ. eigenvalues --   -1.04889  -1.04422  -1.03130  -1.02206  -1.01575
 Alpha  occ. eigenvalues --   -0.99247  -0.97966  -0.96837  -0.96255  -0.95873
 Alpha  occ. eigenvalues --   -0.95574  -0.93557  -0.91963  -0.89714  -0.89127
 Alpha  occ. eigenvalues --   -0.86763  -0.85057  -0.84669  -0.83743  -0.83427
 Alpha  occ. eigenvalues --   -0.82638  -0.81178  -0.81041  -0.80203  -0.80124
 Alpha  occ. eigenvalues --   -0.79341  -0.78910  -0.77898  -0.77337  -0.76915
 Alpha  occ. eigenvalues --   -0.76635  -0.74718  -0.74558  -0.73814  -0.73459
 Alpha  occ. eigenvalues --   -0.72479  -0.71024  -0.70693  -0.70526  -0.70406
 Alpha  occ. eigenvalues --   -0.70034  -0.69099  -0.68525  -0.68450  -0.68285
 Alpha  occ. eigenvalues --   -0.67638  -0.67230  -0.66832  -0.65878  -0.65300
 Alpha  occ. eigenvalues --   -0.65212  -0.64415  -0.64093  -0.63198  -0.62744
 Alpha  occ. eigenvalues --   -0.62577  -0.61967  -0.61755  -0.61673  -0.60876
 Alpha  occ. eigenvalues --   -0.60360  -0.60019  -0.59708  -0.59580  -0.59162
 Alpha  occ. eigenvalues --   -0.58571  -0.58378  -0.57907  -0.57731  -0.57585
 Alpha  occ. eigenvalues --   -0.56839  -0.56495  -0.56401  -0.55777  -0.55549
 Alpha  occ. eigenvalues --   -0.55246  -0.54931  -0.54663  -0.54052  -0.53856
 Alpha  occ. eigenvalues --   -0.53743  -0.53627  -0.53344  -0.52553  -0.52373
 Alpha  occ. eigenvalues --   -0.52306  -0.52185  -0.52045  -0.51984  -0.51590
 Alpha  occ. eigenvalues --   -0.51340  -0.51091  -0.51026  -0.50633  -0.50599
 Alpha  occ. eigenvalues --   -0.50443  -0.50379  -0.50087  -0.49577  -0.49365
 Alpha  occ. eigenvalues --   -0.49246  -0.49204  -0.49117  -0.48876  -0.48659
 Alpha  occ. eigenvalues --   -0.48443  -0.48339  -0.47861  -0.47640  -0.47538
 Alpha  occ. eigenvalues --   -0.47472  -0.47236  -0.46907  -0.46505  -0.46388
 Alpha  occ. eigenvalues --   -0.46360  -0.46292  -0.45948  -0.45795  -0.45731
 Alpha  occ. eigenvalues --   -0.45699  -0.45270  -0.45078  -0.44797  -0.44712
 Alpha  occ. eigenvalues --   -0.44674  -0.44451  -0.44230  -0.44112  -0.43900
 Alpha  occ. eigenvalues --   -0.43753  -0.43742  -0.43488  -0.43301  -0.43163
 Alpha  occ. eigenvalues --   -0.43043  -0.42933  -0.42771  -0.42259  -0.42061
 Alpha  occ. eigenvalues --   -0.42045  -0.41959  -0.41860  -0.41650  -0.41340
 Alpha  occ. eigenvalues --   -0.41096  -0.40799  -0.40701  -0.40584  -0.40393
 Alpha  occ. eigenvalues --   -0.39876  -0.39683  -0.39607  -0.39499  -0.39344
 Alpha  occ. eigenvalues --   -0.39045  -0.38958  -0.38862  -0.37810  -0.37063
 Alpha  occ. eigenvalues --   -0.36628  -0.36332  -0.36054  -0.36028  -0.35725
 Alpha  occ. eigenvalues --   -0.35404  -0.35104  -0.34892  -0.34678  -0.34137
 Alpha  occ. eigenvalues --   -0.33807  -0.33692  -0.32522  -0.31932  -0.31624
 Alpha  occ. eigenvalues --   -0.31464  -0.31007  -0.30192  -0.30037  -0.29770
 Alpha  occ. eigenvalues --   -0.28778  -0.28311  -0.28239  -0.27753  -0.27620
 Alpha virt. eigenvalues --   -0.12909  -0.12121  -0.08886  -0.08322  -0.07510
 Alpha virt. eigenvalues --   -0.07239  -0.05372  -0.04974  -0.03569  -0.03043
 Alpha virt. eigenvalues --   -0.02400  -0.02169  -0.02067  -0.01771  -0.01539

 Mulliken charges:
               1
     1  N   -0.758566
     2  H    0.416687
     3  H    0.413189
     4  H    0.434880
     5  C   -0.117288
     6  H    0.217174
     7  C    0.653423
     8  C   -0.298704
     9  H    0.196779
    10  H    0.172780
    11  O   -0.541465
    12  C   -0.097608
    13  H    0.113420
    14  C   -0.448525
    15  H    0.167593
    16  H    0.158581
    17  H    0.176777
    18  C   -0.455549
    19  H    0.170234
    20  H    0.133180
    21  H    0.185197
    22  N   -0.597532
    23  H    0.371683
    24  C   -0.071222
    25  H    0.185722
    26  C    0.627592
    27  C   -0.077471
    28  H    0.150644
    29  O   -0.548198
    30  C   -0.476598
    31  H    0.156341
    32  H    0.167642
    33  H    0.172330
    34  C   -0.447615
    35  H    0.165140
    36  H    0.170508
    37  H    0.130001
    38  N   -0.603191
    39  H    0.362413
    40  C   -0.065967
    41  H    0.182233
    42  C    0.635968
    43  C   -0.072682
    44  H    0.146417
    45  O   -0.545171
    46  C   -0.486069
    47  H    0.146390
    48  H    0.175704
    49  H    0.168468
    50  C   -0.445476
    51  H    0.157190
    52  H    0.135831
    53  H    0.159983
    54  N   -0.592998
    55  H    0.356270
    56  C   -0.089836
    57  H    0.179078
    58  C    0.667843
    59  C   -0.058214
    60  H    0.175341
    61  H    0.162073
    62  O   -0.584883
    63  O   -0.646703
    64  H    0.438539
    65  N   -0.580514
    66  H    0.367014
    67  C   -0.086292
    68  H    0.185734
    69  C    0.641682
    70  C    0.107248
    71  H    0.157181
    72  O   -0.555550
    73  C   -0.463682
    74  H    0.146805
    75  H    0.163850
    76  H    0.174929
    77  O   -0.647699
    78  H    0.423394
    79  N   -0.605558
    80  H    0.370155
    81  C   -0.053022
    82  H    0.162950
    83  C    0.633308
    84  C   -0.296716
    85  H    0.196581
    86  H    0.176417
    87  O   -0.533429
    88  C   -0.379512
    89  H    0.125608
    90  H    0.167629
    91  C    0.605992
    92  N   -0.785069
    93  H    0.362480
    94  H    0.338799
    95  O   -0.504322
    96  N   -0.616361
    97  H    0.360536
    98  C   -0.075635
    99  H    0.178947
   100  C    0.640328
   101  C    0.136862
   102  H    0.142118
   103  O   -0.540058
   104  C   -0.454103
   105  H    0.154058
   106  H    0.146505
   107  H    0.152992
   108  O   -0.642835
   109  H    0.410383
   110  N   -0.622488
   111  H    0.354962
   112  C   -0.035353
   113  H    0.182335
   114  C    0.628081
   115  C   -0.448392
   116  H    0.147186
   117  H    0.193995
   118  H    0.163769
   119  O   -0.557689
   120  N   -0.611040
   121  H    0.341458
   122  C   -0.063304
   123  H    0.182477
   124  C    0.628684
   125  C   -0.278288
   126  H    0.132727
   127  H    0.154854
   128  O   -0.521928
   129  C   -0.080487
   130  H    0.160081
   131  C   -0.452500
   132  H    0.138558
   133  H    0.145803
   134  H    0.149529
   135  C   -0.446680
   136  H    0.136210
   137  H    0.146733
   138  H    0.149848
   139  N   -0.608515
   140  H    0.364244
   141  C   -0.061126
   142  H    0.218551
   143  C    0.588705
   144  C   -0.445072
   145  H    0.184468
   146  H    0.156267
   147  H    0.151747
   148  O   -0.461026
   149  O   -0.560139
   150  H    0.412917
 Sum of Mulliken charges =   1.00000

 Dipole moment (field-independent basis, Debye):
    X=            -40.4147    Y=            -26.4767    Z=            -27.5656  Tot=             55.6258
 Quadrupole moment (field-independent basis, Debye-Ang):
   XX=             -8.7313   YY=           -321.6975   ZZ=           -254.8340
   XY=            205.8568   XZ=            231.5669   YZ=            114.5231

 Normal termination of Gaussian 16 at Tue Jul 12 00:11:02 2022.
