 Gaussian 16, Revision C.01,
 Gaussian 16:  ES64L-G16RevC.01  3-Jul-2019

 -------------------------------------------------------------------
 # B3LYP/6-31G* guess=read geom=check nosymm integral(ultrafinegrid)
 -------------------------------------------------------------------

 ------------------------------------------------------
 Candidate Structure: Conf:112 Charge calc in gas phase
 ------------------------------------------------------
 Structure from the checkpoint file:  "conf-112.chk"
 Charge =  1 Multiplicity = 1

                          Input orientation:
 ---------------------------------------------------------------------
 Center     Atomic      Atomic             Coordinates (Angstroms)
 Number     Number       Type             X           Y           Z
 ---------------------------------------------------------------------
      1          7           0       -9.392543   -1.021683   -9.205716
      2          1           0       -9.249884   -1.220895  -10.200075
      3          1           0      -10.275610   -0.515815   -9.094834
      4          1           0       -9.398375   -1.943908   -8.668464
      5          6           0       -8.214265   -0.311006   -8.559334
      6          1           0       -7.609714    0.131197   -9.353124
      7          6           0       -7.479751   -1.492176   -7.861416
      8          6           0       -8.744394    0.762358   -7.588240
      9          1           0       -9.318415    0.257111   -6.799643
     10          1           0       -9.447865    1.397397   -8.147996
     11          8           0       -8.131008   -2.537592   -7.694312
     12          6           0       -7.684274    1.685046   -6.942855
     13          1           0       -6.984973    1.071431   -6.362023
     14          6           0       -6.882641    2.478349   -7.986735
     15          1           0       -7.542340    3.098928   -8.606773
     16          1           0       -6.293930    1.839271   -8.657501
     17          1           0       -6.171976    3.144380   -7.488575
     18          6           0       -8.388708    2.634678   -5.960813
     19          1           0       -9.096533    3.292175   -6.481049
     20          1           0       -8.940170    2.083025   -5.191128
     21          1           0       -7.655362    3.269740   -5.454580
     22          7           0       -6.218645   -1.290804   -7.505326
     23          1           0       -5.791901   -0.364050   -7.560482
     24          6           0       -5.420052   -2.195487   -6.666415
     25          1           0       -6.106946   -2.875447   -6.153192
     26          6           0       -4.726996   -1.229474   -5.671932
     27          6           0       -4.398217   -3.019670   -7.507908
     28          1           0       -3.656704   -2.306512   -7.894946
     29          8           0       -4.523561   -0.060739   -6.025273
     30          6           0       -3.672447   -4.064711   -6.644477
     31          1           0       -4.383364   -4.786676   -6.221871
     32          1           0       -3.103286   -3.628192   -5.819995
     33          1           0       -2.968059   -4.628710   -7.264260
     34          6           0       -5.079777   -3.706127   -8.701529
     35          1           0       -5.868838   -4.390580   -8.369407
     36          1           0       -4.343025   -4.289164   -9.263565
     37          1           0       -5.522510   -2.983055   -9.394168
     38          7           0       -4.407537   -1.728192   -4.469079
     39          1           0       -4.483806   -2.725439   -4.283477
     40          6           0       -3.585854   -1.026498   -3.479255
     41          1           0       -3.111406   -0.179050   -3.983679
     42          6           0       -2.538443   -2.070931   -3.039631
     43          6           0       -4.436388   -0.505899   -2.282720
     44          1           0       -4.853398   -1.391586   -1.782680
     45          8           0       -2.829810   -3.269981   -3.048961
     46          6           0       -3.575728    0.263016   -1.267485
     47          1           0       -3.085801    1.125014   -1.741490
     48          1           0       -2.811427   -0.365750   -0.802943
     49          1           0       -4.211966    0.655400   -0.466712
     50          6           0       -5.599824    0.367397   -2.774887
     51          1           0       -5.230823    1.248883   -3.312651
     52          1           0       -6.269392   -0.183499   -3.443345
     53          1           0       -6.191705    0.715202   -1.921227
     54          7           0       -1.319160   -1.605887   -2.700188
     55          1           0       -1.158875   -0.613661   -2.565284
     56          6           0       -0.301716   -2.465389   -2.127736
     57          1           0       -0.274576   -3.399081   -2.698950
     58          6           0       -0.614194   -2.787486   -0.651206
     59          6           0        1.054571   -1.736805   -2.261574
     60          1           0        1.355154   -1.767477   -3.321079
     61          1           0        1.818501   -2.273662   -1.682453
     62          8           0       -1.309057   -2.053979    0.053911
     63          8           0        0.880779   -0.411959   -1.814737
     64          1           0        1.751134   -0.043167   -1.518431
     65          7           0       -0.015338   -3.907812   -0.175690
     66          1           0        0.607899   -4.462741   -0.753866
     67          6           0        0.035734   -4.245699    1.249097
     68          1           0       -0.929873   -3.991692    1.696510
     69          6           0        1.158627   -3.383674    1.862564
     70          6           0        0.343561   -5.750661    1.395688
     71          1           0        0.544238   -5.939374    2.460752
     72          8           0        2.305454   -3.823192    2.022026
     73          6           0       -0.801529   -6.640841    0.932406
     74          1           0       -1.695794   -6.474882    1.542815
     75          1           0       -1.055027   -6.444118   -0.114152
     76          1           0       -0.505905   -7.689935    1.022721
     77          8           0        1.493928   -6.065938    0.615135
     78          1           0        2.216375   -5.545416    1.021144
     79          7           0        0.831692   -2.089342    2.089173
     80          1           0       -0.092945   -1.796065    1.780519
     81          6           0        1.888754   -1.073351    2.085462
     82          1           0        2.676807   -1.453338    1.425954
     83          6           0        2.522498   -0.835904    3.472003
     84          6           0        1.347317    0.247864    1.526267
     85          1           0        0.637518    0.671743    2.243869
     86          1           0        0.819585    0.039405    0.591133
     87          8           0        2.060331   -0.037545    4.282070
     88          6           0        2.468906    1.272632    1.273161
     89          1           0        2.904470    1.600936    2.220960
     90          1           0        2.039568    2.153624    0.782475
     91          6           0        3.545102    0.715630    0.348566
     92          7           0        4.784538    0.636337    0.871237
     93          1           0        4.968870    0.773409    1.866536
     94          1           0        5.507486    0.221617    0.297328
     95          8           0        3.297883    0.346359   -0.811781
     96          7           0        3.702119   -1.482482    3.659643
     97          1           0        3.920861   -2.310979    3.113716
     98          6           0        4.545504   -1.195355    4.797194
     99          1           0        4.046533   -1.484844    5.735489
    100          6           0        4.868615    0.311926    4.831143
    101          6           0        5.870662   -1.998992    4.640098
    102          1           0        6.430512   -1.536591    3.820762
    103          8           0        5.199118    0.933113    3.815656
    104          6           0        6.715555   -2.003465    5.909575
    105          1           0        7.012271   -0.991272    6.203998
    106          1           0        6.162924   -2.460995    6.742843
    107          1           0        7.620986   -2.593906    5.740631
    108          8           0        5.591656   -3.318800    4.174977
    109          1           0        5.225614   -3.829767    4.916082
    110          7           0        4.835078    0.896649    6.047108
    111          1           0        4.620856    0.332842    6.857531
    112          6           0        5.313111    2.252964    6.257584
    113          1           0        4.838975    2.891139    5.504537
    114          6           0        6.847822    2.304964    6.073924
    115          6           0        4.933938    2.726388    7.665674
    116          1           0        5.259167    3.759086    7.821528
    117          1           0        3.849338    2.681635    7.807592
    118          1           0        5.420594    2.101987    8.423752
    119          8           0        7.565600    1.364250    6.406547
    120          7           0        7.310934    3.469364    5.562039
    121          1           0        6.685252    4.255589    5.419354
    122          6           0        8.721719    3.806726    5.462178
    123          1           0        9.270693    3.134887    6.128323
    124          6           0        8.858314    5.265484    5.932175
    125          6           0        9.255871    3.682326    4.012945
    126          1           0        8.682578    4.383653    3.391502
    127          1           0       10.298086    4.033114    3.997213
    128          8           0        7.908193    6.045736    5.864590
    129          6           0        9.188498    2.273479    3.391545
    130          1           0        8.153243    1.916115    3.477684
    131          6           0        9.537260    2.356659    1.896971
    132          1           0       10.563082    2.719029    1.749272
    133          1           0        8.862915    3.036643    1.362497
    134          1           0        9.465744    1.370577    1.423237
    135          6           0       10.103458    1.271718    4.111874
    136          1           0       11.146811    1.615704    4.106409
    137          1           0       10.077745    0.297946    3.608407
    138          1           0        9.789264    1.111655    5.147298
    139          7           0       10.083851    5.628127    6.379413
    140          1           0       10.862167    4.978739    6.363116
    141          6           0       10.410767    7.005227    6.716604
    142          1           0        9.961758    7.667847    5.967311
    143          6           0       11.924385    7.138274    6.631693
    144          6           0        9.887596    7.418579    8.105680
    145          1           0       10.137044    8.462688    8.313444
    146          1           0        8.801443    7.303067    8.117990
    147          1           0       10.321879    6.786175    8.886902
    148          8           0       12.690780    6.210424    6.477873
    149          8           0       12.322833    8.416222    6.769311
    150          1           0       13.298235    8.414362    6.727509
 ---------------------------------------------------------------------

 SCF Done:  E(RB3LYP) =  -3455.51513664     A.U. after    1 cycles

 Alpha  occ. eigenvalues --  -19.26448 -19.25187 -19.21087 -19.20035 -19.19723
 Alpha  occ. eigenvalues --  -19.18651 -19.18580 -19.18441 -19.18400 -19.18152
 Alpha  occ. eigenvalues --  -19.17310 -19.16530 -19.16365 -19.15845 -19.15768
 Alpha  occ. eigenvalues --  -14.59736 -14.48980 -14.44733 -14.42557 -14.42468
 Alpha  occ. eigenvalues --  -14.41515 -14.41399 -14.40813 -14.40105 -14.39906
 Alpha  occ. eigenvalues --  -14.39538 -10.43190 -10.40422 -10.38228 -10.37624
 Alpha  occ. eigenvalues --  -10.35666 -10.35088 -10.34679 -10.34221 -10.33732
 Alpha  occ. eigenvalues --  -10.33728 -10.33418 -10.33196 -10.32932 -10.32681
 Alpha  occ. eigenvalues --  -10.30551 -10.30546 -10.29649 -10.29468 -10.29263
 Alpha  occ. eigenvalues --  -10.29112 -10.29017 -10.29007 -10.28906 -10.28504
 Alpha  occ. eigenvalues --  -10.28303 -10.27903 -10.27901 -10.27533 -10.27123
 Alpha  occ. eigenvalues --  -10.26237 -10.26066 -10.25420 -10.23955 -10.23833
 Alpha  occ. eigenvalues --  -10.23698 -10.23511 -10.22757 -10.22680 -10.22625
 Alpha  occ. eigenvalues --  -10.22245 -10.22064 -10.21922 -10.20536 -10.19804
 Alpha  occ. eigenvalues --   -1.18900  -1.16235  -1.13601  -1.12905  -1.10830
 Alpha  occ. eigenvalues --   -1.10249  -1.09392  -1.09269  -1.08490  -1.07824
 Alpha  occ. eigenvalues --   -1.07715  -1.07320  -1.07203  -1.07116  -1.06194
 Alpha  occ. eigenvalues --   -1.06063  -1.05547  -1.01160  -0.98933  -0.98782
 Alpha  occ. eigenvalues --   -0.97874  -0.97710  -0.97462  -0.96657  -0.96468
 Alpha  occ. eigenvalues --   -0.94502  -0.94395  -0.90309  -0.87826  -0.87145
 Alpha  occ. eigenvalues --   -0.85191  -0.84909  -0.83673  -0.83290  -0.82706
 Alpha  occ. eigenvalues --   -0.82299  -0.81344  -0.81266  -0.79686  -0.78353
 Alpha  occ. eigenvalues --   -0.78031  -0.77955  -0.77376  -0.76597  -0.75780
 Alpha  occ. eigenvalues --   -0.74298  -0.74158  -0.73648  -0.72805  -0.72033
 Alpha  occ. eigenvalues --   -0.71372  -0.71103  -0.70899  -0.69893  -0.69366
 Alpha  occ. eigenvalues --   -0.68367  -0.68084  -0.67701  -0.67452  -0.66734
 Alpha  occ. eigenvalues --   -0.66572  -0.65815  -0.65369  -0.65341  -0.64621
 Alpha  occ. eigenvalues --   -0.63958  -0.63697  -0.63490  -0.63138  -0.62807
 Alpha  occ. eigenvalues --   -0.62445  -0.62236  -0.61666  -0.60758  -0.60099
 Alpha  occ. eigenvalues --   -0.59346  -0.58851  -0.58295  -0.58160  -0.57933
 Alpha  occ. eigenvalues --   -0.57707  -0.56680  -0.56502  -0.56304  -0.56133
 Alpha  occ. eigenvalues --   -0.55759  -0.55444  -0.55161  -0.55070  -0.54748
 Alpha  occ. eigenvalues --   -0.54623  -0.54348  -0.54084  -0.53955  -0.53715
 Alpha  occ. eigenvalues --   -0.53582  -0.52719  -0.52536  -0.52495  -0.51977
 Alpha  occ. eigenvalues --   -0.51862  -0.51565  -0.51367  -0.50935  -0.50843
 Alpha  occ. eigenvalues --   -0.50796  -0.50319  -0.50060  -0.49934  -0.49820
 Alpha  occ. eigenvalues --   -0.49203  -0.49088  -0.48993  -0.48754  -0.48628
 Alpha  occ. eigenvalues --   -0.48142  -0.48071  -0.47764  -0.47727  -0.47639
 Alpha  occ. eigenvalues --   -0.47482  -0.47377  -0.47051  -0.46970  -0.46742
 Alpha  occ. eigenvalues --   -0.46563  -0.46304  -0.46217  -0.46043  -0.45740
 Alpha  occ. eigenvalues --   -0.45710  -0.45565  -0.45269  -0.45031  -0.44971
 Alpha  occ. eigenvalues --   -0.44897  -0.44836  -0.44433  -0.44333  -0.44129
 Alpha  occ. eigenvalues --   -0.43946  -0.43846  -0.43792  -0.43604  -0.43592
 Alpha  occ. eigenvalues --   -0.43522  -0.43128  -0.42774  -0.42619  -0.42551
 Alpha  occ. eigenvalues --   -0.42406  -0.42313  -0.42138  -0.42009  -0.41852
 Alpha  occ. eigenvalues --   -0.41731  -0.41470  -0.41316  -0.41058  -0.41019
 Alpha  occ. eigenvalues --   -0.40936  -0.40642  -0.40566  -0.40263  -0.40242
 Alpha  occ. eigenvalues --   -0.39970  -0.39722  -0.39536  -0.39083  -0.38960
 Alpha  occ. eigenvalues --   -0.38313  -0.38252  -0.38042  -0.37340  -0.37275
 Alpha  occ. eigenvalues --   -0.36143  -0.35614  -0.35519  -0.35239  -0.34474
 Alpha  occ. eigenvalues --   -0.34208  -0.33480  -0.33349  -0.33305  -0.32745
 Alpha  occ. eigenvalues --   -0.32530  -0.32201  -0.31981  -0.31808  -0.31578
 Alpha  occ. eigenvalues --   -0.30963  -0.30771  -0.30678  -0.30371  -0.30291
 Alpha  occ. eigenvalues --   -0.30061  -0.29503  -0.29280  -0.28918  -0.28559
 Alpha virt. eigenvalues --   -0.12012  -0.10852  -0.07099  -0.06298  -0.05423
 Alpha virt. eigenvalues --   -0.04778  -0.04513  -0.04502  -0.03807  -0.03183
 Alpha virt. eigenvalues --   -0.02632  -0.02313  -0.02182  -0.01762  -0.01504

 Mulliken charges:
               1
     1  N   -0.756952
     2  H    0.415366
     3  H    0.411411
     4  H    0.433563
     5  C   -0.117290
     6  H    0.213083
     7  C    0.649954
     8  C   -0.286557
     9  H    0.175225
    10  H    0.158741
    11  O   -0.543796
    12  C   -0.109772
    13  H    0.170548
    14  C   -0.460116
    15  H    0.153861
    16  H    0.136255
    17  H    0.188743
    18  C   -0.451743
    19  H    0.153331
    20  H    0.157539
    21  H    0.176444
    22  N   -0.598856
    23  H    0.381528
    24  C   -0.074218
    25  H    0.186333
    26  C    0.631538
    27  C   -0.077717
    28  H    0.150149
    29  O   -0.554287
    30  C   -0.477617
    31  H    0.154453
    32  H    0.176462
    33  H    0.168083
    34  C   -0.446776
    35  H    0.163305
    36  H    0.168297
    37  H    0.125748
    38  N   -0.601805
    39  H    0.363165
    40  C   -0.069136
    41  H    0.178953
    42  C    0.639686
    43  C   -0.068862
    44  H    0.145743
    45  O   -0.552762
    46  C   -0.498032
    47  H    0.138013
    48  H    0.208871
    49  H    0.154537
    50  C   -0.445930
    51  H    0.152681
    52  H    0.131549
    53  H    0.154335
    54  N   -0.594067
    55  H    0.369623
    56  C   -0.082269
    57  H    0.177738
    58  C    0.651290
    59  C   -0.033328
    60  H    0.142555
    61  H    0.144807
    62  O   -0.538517
    63  O   -0.673259
    64  H    0.455760
    65  N   -0.597918
    66  H    0.350086
    67  C   -0.079745
    68  H    0.180612
    69  C    0.617691
    70  C    0.117581
    71  H    0.140695
    72  O   -0.552154
    73  C   -0.450926
    74  H    0.147251
    75  H    0.157858
    76  H    0.170746
    77  O   -0.651281
    78  H    0.421468
    79  N   -0.604034
    80  H    0.374435
    81  C   -0.060101
    82  H    0.170697
    83  C    0.639510
    84  C   -0.323667
    85  H    0.174881
    86  H    0.180427
    87  O   -0.533490
    88  C   -0.373733
    89  H    0.183472
    90  H    0.174039
    91  C    0.594130
    92  N   -0.761502
    93  H    0.409812
    94  H    0.337820
    95  O   -0.563136
    96  N   -0.624439
    97  H    0.371414
    98  C   -0.037634
    99  H    0.138152
   100  C    0.673391
   101  C    0.113340
   102  H    0.164633
   103  O   -0.565503
   104  C   -0.507459
   105  H    0.211594
   106  H    0.128131
   107  H    0.171842
   108  O   -0.617935
   109  H    0.394907
   110  N   -0.580817
   111  H    0.339030
   112  C   -0.040907
   113  H    0.173895
   114  C    0.639411
   115  C   -0.484673
   116  H    0.175797
   117  H    0.175250
   118  H    0.168950
   119  O   -0.532866
   120  N   -0.595326
   121  H    0.348875
   122  C   -0.074949
   123  H    0.180182
   124  C    0.623956
   125  C   -0.251833
   126  H    0.143338
   127  H    0.135567
   128  O   -0.542604
   129  C   -0.074203
   130  H    0.149680
   131  C   -0.444680
   132  H    0.141679
   133  H    0.140495
   134  H    0.139598
   135  C   -0.464600
   136  H    0.131642
   137  H    0.139531
   138  H    0.177014
   139  N   -0.617950
   140  H    0.355902
   141  C   -0.021220
   142  H    0.199205
   143  C    0.580992
   144  C   -0.452153
   145  H    0.173554
   146  H    0.189722
   147  H    0.157988
   148  O   -0.466761
   149  O   -0.559877
   150  H    0.422609
 Sum of Mulliken charges =   1.00000

 Dipole moment (field-independent basis, Debye):
    X=            -24.7740    Y=              1.1976    Z=            -25.9693  Tot=             35.9109
 Quadrupole moment (field-independent basis, Debye-Ang):
   XX=            -31.1023   YY=           -373.7026   ZZ=            -43.7433
   XY=             65.3655   XZ=            359.5907   YZ=             43.3920

 Normal termination of Gaussian 16 at Tue Jul 12 00:10:37 2022.
