 Gaussian 16, Revision C.01,
 Gaussian 16:  ES64L-G16RevC.01  3-Jul-2019

 -------------------------------------------------------------------
 # B3LYP/6-31G* guess=read geom=check nosymm integral(ultrafinegrid)
 -------------------------------------------------------------------

 ------------------------------------------------------
 Candidate Structure: Conf:705 Charge calc in gas phase
 ------------------------------------------------------
 Structure from the checkpoint file:  "conf-705.chk"
 Charge =  1 Multiplicity = 1

                          Input orientation:
 ---------------------------------------------------------------------
 Center     Atomic      Atomic             Coordinates (Angstroms)
 Number     Number       Type             X           Y           Z
 ---------------------------------------------------------------------
      1          7           0       -7.212542   -8.306543   -6.290633
      2          1           0       -7.274388   -8.612979   -7.265309
      3          1           0       -7.928716   -8.800395   -5.750535
      4          1           0       -6.232192   -8.512027   -5.920629
      5          6           0       -7.285768   -6.799481   -6.125592
      6          1           0       -7.589047   -6.371282   -7.083071
      7          6           0       -5.811343   -6.430693   -5.792162
      8          6           0       -8.261452   -6.414830   -5.002485
      9          1           0       -8.170505   -5.331985   -4.851570
     10          1           0       -7.911502   -6.877846   -4.068884
     11          8           0       -5.031374   -7.364356   -5.545633
     12          6           0       -9.747075   -6.763876   -5.246168
     13          1           0       -9.836901   -7.852756   -5.408773
     14          6           0      -10.558504   -6.431277   -3.983924
     15          1           0      -10.523860   -5.356353   -3.770421
     16          1           0      -10.176399   -6.962477   -3.105037
     17          1           0      -11.608151   -6.711115   -4.115749
     18          6           0      -10.325164   -6.050549   -6.477523
     19          1           0      -10.255485   -4.961644   -6.366374
     20          1           0       -9.819436   -6.326076   -7.411485
     21          1           0      -11.382837   -6.302055   -6.602542
     22          7           0       -5.515516   -5.137177   -5.792248
     23          1           0       -6.243218   -4.425906   -5.881374
     24          6           0       -4.255328   -4.553205   -5.313648
     25          1           0       -3.754457   -5.297872   -4.686860
     26          6           0       -4.729621   -3.335432   -4.482389
     27          6           0       -3.317229   -4.141487   -6.488483
     28          1           0       -3.817878   -3.320587   -7.020917
     29          8           0       -5.796322   -2.789626   -4.780934
     30          6           0       -1.960028   -3.636561   -5.971785
     31          1           0       -1.435747   -4.421318   -5.410747
     32          1           0       -2.043846   -2.756166   -5.329140
     33          1           0       -1.321798   -3.362747   -6.817763
     34          6           0       -3.109011   -5.303414   -7.471384
     35          1           0       -2.657759   -6.169850   -6.974475
     36          1           0       -2.438120   -4.990559   -8.277933
     37          1           0       -4.048064   -5.624626   -7.932950
     38          7           0       -3.944388   -2.957743   -3.457362
     39          1           0       -3.032845   -3.383454   -3.325929
     40          6           0       -4.169456   -1.750310   -2.660184
     41          1           0       -4.932829   -1.160597   -3.176268
     42          6           0       -2.822997   -1.009450   -2.640733
     43          6           0       -4.665710   -2.094328   -1.222381
     44          1           0       -3.899058   -2.728196   -0.757826
     45          8           0       -1.764626   -1.663940   -2.590877
     46          6           0       -4.819462   -0.837169   -0.352884
     47          1           0       -5.496927   -0.105842   -0.813878
     48          1           0       -3.860025   -0.352301   -0.154846
     49          1           0       -5.246924   -1.110202    0.617030
     50          6           0       -5.983914   -2.878979   -1.282746
     51          1           0       -6.780895   -2.281373   -1.741257
     52          1           0       -5.881100   -3.804814   -1.857511
     53          1           0       -6.303183   -3.148354   -0.270447
     54          7           0       -2.867806    0.330800   -2.683328
     55          1           0       -3.756859    0.819794   -2.616817
     56          6           0       -1.703639    1.216967   -2.544303
     57          1           0       -0.887869    0.844622   -3.170009
     58          6           0       -1.265242    1.224044   -1.066698
     59          6           0       -2.138207    2.618152   -2.992882
     60          1           0       -2.359941    2.608507   -4.064136
     61          1           0       -1.312961    3.313708   -2.810832
     62          8           0       -1.617089    2.114397   -0.277398
     63          8           0       -3.335414    2.997014   -2.328572
     64          1           0       -3.083485    3.075772   -1.388037
     65          7           0       -0.549783    0.146932   -0.692409
     66          1           0       -0.320628   -0.530658   -1.410590
     67          6           0       -0.266011   -0.175713    0.705375
     68          1           0       -1.052466    0.299369    1.300825
     69          6           0        1.093340    0.458645    1.053865
     70          6           0       -0.322202   -1.705053    0.931215
     71          1           0        0.571231   -2.152330    0.472808
     72          8           0        2.146716   -0.192923    1.070563
     73          6           0       -0.364716   -2.048160    2.415073
     74          1           0        0.493860   -1.647314    2.960308
     75          1           0       -1.283588   -1.650399    2.860930
     76          1           0       -0.373372   -3.134878    2.537341
     77          8           0       -1.508142   -2.244866    0.346464
     78          1           0       -1.421502   -2.237294   -0.622552
     79          7           0        1.035315    1.794956    1.253701
     80          1           0        0.127981    2.238608    1.140383
     81          6           0        2.233322    2.642340    1.315359
     82          1           0        2.962123    2.210725    0.618976
     83          6           0        2.827546    2.579706    2.744974
     84          6           0        1.925443    4.089245    0.915923
     85          1           0        2.881081    4.626650    0.905741
     86          1           0        1.338162    4.558899    1.711677
     87          8           0        2.623912    3.459559    3.582685
     88          6           0        1.189081    4.263648   -0.429857
     89          1           0        1.164497    5.335419   -0.667979
     90          1           0        0.150994    3.932888   -0.355877
     91          6           0        1.789937    3.510441   -1.615492
     92          7           0        3.093850    3.792958   -1.899152
     93          1           0        3.585377    4.559151   -1.462720
     94          1           0        3.504649    3.374384   -2.722823
     95          8           0        1.152194    2.687510   -2.269275
     96          7           0        3.556891    1.463499    2.974442
     97          1           0        3.543820    0.772926    2.229911
     98          6           0        3.903832    1.005963    4.325134
     99          1           0        3.108663    1.349972    4.998004
    100          6           0        5.236558    1.653428    4.764142
    101          6           0        3.949941   -0.540518    4.359395
    102          1           0        4.814153   -0.869353    3.765238
    103          8           0        6.288410    1.010970    4.848797
    104          6           0        4.089224   -1.070058    5.781165
    105          1           0        5.018042   -0.721688    6.237608
    106          1           0        3.238502   -0.747578    6.392538
    107          1           0        4.094747   -2.163478    5.759699
    108          8           0        2.740981   -1.087722    3.831826
    109          1           0        2.739795   -1.022494    2.861824
    110          7           0        5.146043    2.975739    5.033354
    111          1           0        4.251328    3.431121    4.858415
    112          6           0        6.323140    3.814180    5.293021
    113          1           0        7.145444    3.395339    4.699692
    114          6           0        6.743348    3.740137    6.782771
    115          6           0        6.044136    5.253643    4.873101
    116          1           0        6.933886    5.869300    5.024756
    117          1           0        5.760795    5.292550    3.816220
    118          1           0        5.243056    5.686939    5.478883
    119          8           0        6.666646    4.716791    7.530070
    120          7           0        7.204349    2.529322    7.176347
    121          1           0        7.221751    1.777004    6.489796
    122          6           0        7.541282    2.237063    8.573956
    123          1           0        6.872377    2.851002    9.185648
    124          6           0        8.999796    2.677307    8.858945
    125          6           0        7.333744    0.746090    8.859638
    126          1           0        6.342001    0.463423    8.478392
    127          1           0        8.080961    0.185657    8.285274
    128          8           0        9.927786    1.876555    8.950750
    129          6           0        7.440400    0.335015   10.342297
    130          1           0        8.416034    0.675952   10.709994
    131          6           0        6.340359    0.963103   11.212172
    132          1           0        5.343113    0.662608   10.863277
    133          1           0        6.377910    2.058273   11.210635
    134          1           0        6.437720    0.637018   12.254279
    135          6           0        7.408379   -1.196414   10.457829
    136          1           0        6.458689   -1.601479   10.082835
    137          1           0        7.514936   -1.514857   11.501370
    138          1           0        8.220132   -1.655510    9.881956
    139          7           0        9.158836    4.019928    8.991072
    140          1           0        8.369185    4.640645    8.821304
    141          6           0       10.469227    4.599898    9.216571
    142          1           0       11.008310    3.954518    9.918317
    143          6           0       10.286146    5.964899    9.860116
    144          6           0       11.309163    4.710170    7.926788
    145          1           0       12.297569    5.126257    8.142422
    146          1           0       11.429740    3.709610    7.504341
    147          1           0       10.807056    5.349483    7.192553
    148          8           0        9.242670    6.574577    9.934160
    149          8           0       11.459308    6.451308   10.326651
    150          1           0       11.262287    7.334012   10.693252
 ---------------------------------------------------------------------

 SCF Done:  E(RB3LYP) =  -3455.50235427     A.U. after    3 cycles

 Alpha  occ. eigenvalues --  -19.27648 -19.22670 -19.22399 -19.22185 -19.21155
 Alpha  occ. eigenvalues --  -19.20674 -19.20472 -19.19997 -19.18408 -19.18156
 Alpha  occ. eigenvalues --  -19.18060 -19.16766 -19.16296 -19.14464 -19.12929
 Alpha  occ. eigenvalues --  -14.60564 -14.50142 -14.46739 -14.46093 -14.44281
 Alpha  occ. eigenvalues --  -14.43674 -14.42674 -14.41567 -14.39952 -14.38235
 Alpha  occ. eigenvalues --  -14.36962 -10.44323 -10.41397 -10.39879 -10.38992
 Alpha  occ. eigenvalues --  -10.37323 -10.36683 -10.35976 -10.35125 -10.34797
 Alpha  occ. eigenvalues --  -10.34676 -10.34203 -10.33161 -10.32907 -10.32831
 Alpha  occ. eigenvalues --  -10.31556 -10.31319 -10.30448 -10.30447 -10.30398
 Alpha  occ. eigenvalues --  -10.30321 -10.30162 -10.29951 -10.29596 -10.28754
 Alpha  occ. eigenvalues --  -10.28241 -10.27999 -10.27816 -10.27103 -10.27017
 Alpha  occ. eigenvalues --  -10.26906 -10.26483 -10.26194 -10.26031 -10.25470
 Alpha  occ. eigenvalues --  -10.25079 -10.25075 -10.22629 -10.21551 -10.20810
 Alpha  occ. eigenvalues --  -10.20465 -10.20460 -10.20320 -10.19076 -10.18893
 Alpha  occ. eigenvalues --   -1.20013  -1.14915  -1.14319  -1.13676  -1.13314
 Alpha  occ. eigenvalues --   -1.12256  -1.11343  -1.09900  -1.09619  -1.08605
 Alpha  occ. eigenvalues --   -1.07917  -1.07889  -1.06809  -1.06134  -1.05659
 Alpha  occ. eigenvalues --   -1.04737  -1.04229  -1.03099  -1.02135  -1.00767
 Alpha  occ. eigenvalues --   -0.99832  -0.97974  -0.97230  -0.96371  -0.95781
 Alpha  occ. eigenvalues --   -0.94706  -0.93713  -0.91899  -0.89483  -0.88935
 Alpha  occ. eigenvalues --   -0.87117  -0.85487  -0.83627  -0.83293  -0.83144
 Alpha  occ. eigenvalues --   -0.82580  -0.81024  -0.80475  -0.80012  -0.79786
 Alpha  occ. eigenvalues --   -0.79532  -0.79072  -0.77888  -0.77026  -0.76210
 Alpha  occ. eigenvalues --   -0.76085  -0.74649  -0.74643  -0.73691  -0.72573
 Alpha  occ. eigenvalues --   -0.71764  -0.70490  -0.69971  -0.69884  -0.69718
 Alpha  occ. eigenvalues --   -0.69536  -0.68998  -0.68694  -0.68416  -0.67916
 Alpha  occ. eigenvalues --   -0.67052  -0.67008  -0.66253  -0.65545  -0.65450
 Alpha  occ. eigenvalues --   -0.65033  -0.64706  -0.63977  -0.63167  -0.62685
 Alpha  occ. eigenvalues --   -0.62580  -0.62075  -0.60988  -0.60701  -0.60691
 Alpha  occ. eigenvalues --   -0.60284  -0.59552  -0.59467  -0.59314  -0.59008
 Alpha  occ. eigenvalues --   -0.58516  -0.58225  -0.58003  -0.57624  -0.57079
 Alpha  occ. eigenvalues --   -0.56870  -0.56572  -0.56559  -0.56266  -0.55899
 Alpha  occ. eigenvalues --   -0.55663  -0.55386  -0.54737  -0.54116  -0.54006
 Alpha  occ. eigenvalues --   -0.53871  -0.53599  -0.53212  -0.53081  -0.52598
 Alpha  occ. eigenvalues --   -0.52349  -0.52185  -0.51910  -0.51695  -0.51476
 Alpha  occ. eigenvalues --   -0.50950  -0.50592  -0.50491  -0.50276  -0.50174
 Alpha  occ. eigenvalues --   -0.50053  -0.49987  -0.49622  -0.49262  -0.49167
 Alpha  occ. eigenvalues --   -0.49101  -0.49040  -0.48893  -0.48667  -0.48581
 Alpha  occ. eigenvalues --   -0.48178  -0.47760  -0.47646  -0.47545  -0.47212
 Alpha  occ. eigenvalues --   -0.47025  -0.46998  -0.46773  -0.46491  -0.46294
 Alpha  occ. eigenvalues --   -0.45969  -0.45913  -0.45703  -0.45641  -0.45592
 Alpha  occ. eigenvalues --   -0.45318  -0.45126  -0.45044  -0.45016  -0.44773
 Alpha  occ. eigenvalues --   -0.43984  -0.43753  -0.43742  -0.43638  -0.43447
 Alpha  occ. eigenvalues --   -0.43382  -0.43262  -0.43016  -0.42952  -0.42862
 Alpha  occ. eigenvalues --   -0.42757  -0.42357  -0.42196  -0.42091  -0.41987
 Alpha  occ. eigenvalues --   -0.41845  -0.41820  -0.41611  -0.41269  -0.41133
 Alpha  occ. eigenvalues --   -0.41018  -0.40710  -0.40702  -0.40281  -0.39957
 Alpha  occ. eigenvalues --   -0.39891  -0.39558  -0.39203  -0.39090  -0.39006
 Alpha  occ. eigenvalues --   -0.38691  -0.37669  -0.37588  -0.37362  -0.37073
 Alpha  occ. eigenvalues --   -0.36626  -0.36440  -0.35711  -0.35146  -0.34943
 Alpha  occ. eigenvalues --   -0.34670  -0.34596  -0.34529  -0.34102  -0.33863
 Alpha  occ. eigenvalues --   -0.33841  -0.33686  -0.33035  -0.32936  -0.31957
 Alpha  occ. eigenvalues --   -0.31867  -0.31473  -0.31243  -0.30782  -0.30355
 Alpha  occ. eigenvalues --   -0.29429  -0.28816  -0.27277  -0.26799  -0.25567
 Alpha virt. eigenvalues --   -0.12844  -0.12042  -0.09083  -0.08161  -0.07372
 Alpha virt. eigenvalues --   -0.06932  -0.05368  -0.04889  -0.04597  -0.04147
 Alpha virt. eigenvalues --   -0.02970  -0.02764  -0.01986  -0.01704  -0.01689

 Mulliken charges:
               1
     1  N   -0.758557
     2  H    0.416569
     3  H    0.413315
     4  H    0.434924
     5  C   -0.117327
     6  H    0.217166
     7  C    0.653221
     8  C   -0.299044
     9  H    0.197262
    10  H    0.173260
    11  O   -0.541183
    12  C   -0.097662
    13  H    0.113198
    14  C   -0.448593
    15  H    0.168018
    16  H    0.158900
    17  H    0.176549
    18  C   -0.455557
    19  H    0.170501
    20  H    0.132895
    21  H    0.185048
    22  N   -0.597233
    23  H    0.371924
    24  C   -0.071884
    25  H    0.185393
    26  C    0.628951
    27  C   -0.077185
    28  H    0.151657
    29  O   -0.546814
    30  C   -0.476563
    31  H    0.154541
    32  H    0.167677
    33  H    0.172822
    34  C   -0.447682
    35  H    0.164734
    36  H    0.170222
    37  H    0.130966
    38  N   -0.601087
    39  H    0.358287
    40  C   -0.067607
    41  H    0.184481
    42  C    0.648497
    43  C   -0.080095
    44  H    0.163914
    45  O   -0.588881
    46  C   -0.473765
    47  H    0.143843
    48  H    0.170545
    49  H    0.169168
    50  C   -0.446412
    51  H    0.154728
    52  H    0.132976
    53  H    0.161975
    54  N   -0.591041
    55  H    0.364055
    56  C   -0.085411
    57  H    0.197272
    58  C    0.678823
    59  C   -0.069069
    60  H    0.158661
    61  H    0.182017
    62  O   -0.576727
    63  O   -0.637859
    64  H    0.421051
    65  N   -0.606548
    66  H    0.360509
    67  C   -0.070660
    68  H    0.184788
    69  C    0.660970
    70  C    0.103311
    71  H    0.145735
    72  O   -0.566126
    73  C   -0.475280
    74  H    0.190607
    75  H    0.153062
    76  H    0.166092
    77  O   -0.656590
    78  H    0.413704
    79  N   -0.604029
    80  H    0.371609
    81  C   -0.063226
    82  H    0.181591
    83  C    0.635328
    84  C   -0.303988
    85  H    0.154655
    86  H    0.193440
    87  O   -0.537824
    88  C   -0.396982
    89  H    0.172718
    90  H    0.191750
    91  C    0.594946
    92  N   -0.731883
    93  H    0.346746
    94  H    0.350853
    95  O   -0.527312
    96  N   -0.618867
    97  H    0.356893
    98  C   -0.059344
    99  H    0.178539
   100  C    0.638603
   101  C    0.108960
   102  H    0.145563
   103  O   -0.551387
   104  C   -0.465921
   105  H    0.177184
   106  H    0.150709
   107  H    0.162533
   108  O   -0.658504
   109  H    0.420370
   110  N   -0.614151
   111  H    0.376026
   112  C   -0.056554
   113  H    0.175428
   114  C    0.626034
   115  C   -0.460352
   116  H    0.173166
   117  H    0.139998
   118  H    0.177211
   119  O   -0.536663
   120  N   -0.628039
   121  H    0.374227
   122  C   -0.053806
   123  H    0.173019
   124  C    0.630263
   125  C   -0.278272
   126  H    0.129394
   127  H    0.157756
   128  O   -0.539354
   129  C   -0.078226
   130  H    0.154724
   131  C   -0.450613
   132  H    0.134372
   133  H    0.147283
   134  H    0.144692
   135  C   -0.445105
   136  H    0.131880
   137  H    0.141596
   138  H    0.148578
   139  N   -0.624434
   140  H    0.380094
   141  C   -0.020202
   142  H    0.195158
   143  C    0.575622
   144  C   -0.453558
   145  H    0.165921
   146  H    0.185260
   147  H    0.150052
   148  O   -0.458566
   149  O   -0.567909
   150  H    0.413990
 Sum of Mulliken charges =   1.00000

 Dipole moment (field-independent basis, Debye):
    X=            -31.3918    Y=            -25.7219    Z=            -32.1631  Tot=             51.7834
 Quadrupole moment (field-independent basis, Debye-Ang):
   XX=           -185.8749   YY=           -170.9080   ZZ=           -286.3669
   XY=            262.7659   XZ=            147.5564   YZ=            177.2655

 Normal termination of Gaussian 16 at Tue Jul 12 00:11:46 2022.
