 Gaussian 16, Revision C.01,
 Gaussian 16:  ES64L-G16RevC.01  3-Jul-2019

 -------------------------------------------------------------------
 # B3LYP/6-31G* guess=read geom=check nosymm integral(ultrafinegrid)
 -------------------------------------------------------------------

 ------------------------------------------------------
 Candidate Structure: Conf:315 Charge calc in gas phase
 ------------------------------------------------------
 Structure from the checkpoint file:  "conf-315.chk"
 Charge =  1 Multiplicity = 1

                          Input orientation:
 ---------------------------------------------------------------------
 Center     Atomic      Atomic             Coordinates (Angstroms)
 Number     Number       Type             X           Y           Z
 ---------------------------------------------------------------------
      1          7           0       -8.339081   -3.626227  -10.256231
      2          1           0       -8.661584   -3.392147  -11.198987
      3          1           0       -8.925099   -4.382908   -9.892472
      4          1           0       -7.310065   -3.912438  -10.298389
      5          6           0       -8.276011   -2.429514   -9.324904
      6          1           0       -8.779364   -1.594607   -9.816459
      7          6           0       -6.744654   -2.172487   -9.220773
      8          6           0       -8.917155   -2.752826   -7.966612
      9          1           0       -8.721170   -1.899883   -7.305022
     10          1           0       -8.378418   -3.603568   -7.525565
     11          8           0       -5.988667   -3.036640   -9.693561
     12          6           0      -10.436360   -3.035323   -7.983945
     13          1           0      -10.634156   -3.887305   -8.658499
     14          6           0      -10.887730   -3.462530   -6.578257
     15          1           0      -10.731188   -2.652595   -5.855907
     16          1           0      -10.336005   -4.340939   -6.225178
     17          1           0      -11.953426   -3.711067   -6.574422
     18          6           0      -11.252850   -1.834255   -8.484025
     19          1           0      -11.087174   -0.957111   -7.846760
     20          1           0      -11.012008   -1.550046   -9.516054
     21          1           0      -12.322735   -2.062936   -8.458521
     22          7           0       -6.378515   -1.046060   -8.624332
     23          1           0       -7.059102   -0.449827   -8.149816
     24          6           0       -5.004727   -0.689056   -8.245303
     25          1           0       -4.407422   -1.606233   -8.233231
     26          6           0       -5.178392   -0.104106   -6.821398
     27          6           0       -4.371660    0.335321   -9.236070
     28          1           0       -4.933741    1.273250   -9.124031
     29          8           0       -6.255320    0.422265   -6.521272
     30          6           0       -2.895145    0.602936   -8.900790
     31          1           0       -2.301234   -0.317290   -8.976145
     32          1           0       -2.746070    1.022294   -7.902577
     33          1           0       -2.477969    1.316309   -9.618469
     34          6           0       -4.503466   -0.138711  -10.691392
     35          1           0       -4.001445   -1.100930  -10.844044
     36          1           0       -4.040248    0.592525  -11.361590
     37          1           0       -5.549224   -0.245832  -10.996650
     38          7           0       -4.134128   -0.227950   -5.983715
     39          1           0       -3.236417   -0.558928   -6.325211
     40          6           0       -4.063422    0.418501   -4.672037
     41          1           0       -4.887599    1.136792   -4.619123
     42          6           0       -2.699133    1.131172   -4.655011
     43          6           0       -4.198789   -0.608799   -3.508120
     44          1           0       -3.338973   -1.287912   -3.584350
     45          8           0       -1.745759    0.640560   -5.272417
     46          6           0       -4.134699    0.077800   -2.134551
     47          1           0       -4.890471    0.871046   -2.047337
     48          1           0       -3.145455    0.492553   -1.928595
     49          1           0       -4.344012   -0.651357   -1.345120
     50          6           0       -5.494017   -1.420919   -3.650317
     51          1           0       -6.376158   -0.771422   -3.600341
     52          1           0       -5.529679   -1.968737   -4.597126
     53          1           0       -5.567243   -2.152051   -2.838059
     54          7           0       -2.607740    2.283598   -3.959603
     55          1           0       -3.400741    2.584784   -3.406845
     56          6           0       -1.374913    3.074339   -3.863328
     57          1           0       -0.865770    3.001199   -4.829625
     58          6           0       -0.423566    2.527404   -2.771485
     59          6           0       -1.735574    4.545831   -3.587333
     60          1           0       -2.342041    4.598954   -2.666987
     61          1           0       -2.345290    4.921198   -4.415576
     62          8           0       -0.087625    3.226978   -1.805011
     63          8           0       -0.590096    5.354042   -3.506383
     64          1           0       -0.122694    5.042620   -2.708836
     65          7           0       -0.005391    1.261080   -2.953011
     66          1           0       -0.327138    0.754179   -3.773797
     67          6           0        0.773269    0.549936   -1.937517
     68          1           0        0.453529    0.938326   -0.964767
     69          6           0        2.282821    0.831923   -2.111345
     70          6           0        0.495257   -0.958327   -1.989763
     71          1           0        0.941082   -1.359305   -2.910355
     72          8           0        3.044537   -0.003220   -2.602724
     73          6           0        1.079991   -1.689035   -0.782399
     74          1           0        2.168721   -1.603203   -0.741823
     75          1           0        0.653947   -1.295083    0.147299
     76          1           0        0.840153   -2.758664   -0.843927
     77          8           0       -0.936735   -1.099969   -2.039046
     78          1           0       -1.126530   -2.032954   -1.856207
     79          7           0        2.691914    2.049519   -1.689643
     80          1           0        2.015707    2.634936   -1.211368
     81          6           0        4.119409    2.308591   -1.529632
     82          1           0        4.606948    2.145720   -2.490742
     83          6           0        4.666958    1.289092   -0.495893
     84          6           0        4.335827    3.760513   -1.077949
     85          1           0        3.810776    3.912665   -0.126095
     86          1           0        3.875500    4.429277   -1.816383
     87          8           0        4.010536    0.994931    0.498784
     88          6           0        5.813173    4.154532   -0.869926
     89          1           0        6.260612    3.509723   -0.104241
     90          1           0        5.850876    5.179754   -0.484838
     91          6           0        6.671472    4.009411   -2.124183
     92          7           0        7.307540    5.136851   -2.545702
     93          1           0        7.307985    5.991440   -2.010456
     94          1           0        7.950442    5.055751   -3.322103
     95          8           0        6.780735    2.945072   -2.730200
     96          7           0        5.871184    0.752931   -0.814606
     97          1           0        6.402690    1.142216   -1.592232
     98          6           0        6.430565   -0.383624   -0.099157
     99          1           0        5.867834   -0.482879    0.832923
    100          6           0        7.917600   -0.114718    0.148238
    101          6           0        6.226514   -1.680278   -0.945003
    102          1           0        6.815044   -1.552827   -1.868271
    103          8           0        8.631942    0.340677   -0.744920
    104          6           0        6.694556   -2.934625   -0.215372
    105          1           0        7.765037   -2.898513    0.007700
    106          1           0        6.142952   -3.058322    0.723885
    107          1           0        6.498478   -3.811487   -0.839490
    108          8           0        4.856550   -1.872638   -1.249686
    109          1           0        4.529739   -1.127075   -1.786718
    110          7           0        8.380681   -0.425674    1.383513
    111          1           0        7.788998   -0.848544    2.091716
    112          6           0        9.787230   -0.340790    1.735047
    113          1           0       10.378773   -0.718311    0.891737
    114          6           0        9.988149   -1.250585    2.959989
    115          6           0       10.223303    1.107450    2.028471
    116          1           0       11.291853    1.159861    2.263862
    117          1           0       10.031493    1.720241    1.144190
    118          1           0        9.659412    1.512470    2.875362
    119          8           0        9.030743   -1.660635    3.618782
    120          7           0       11.273285   -1.536293    3.264489
    121          1           0       12.048773   -1.192760    2.707698
    122          6           0       11.656127   -2.326933    4.426092
    123          1           0       10.985129   -2.062076    5.248905
    124          6           0       13.101296   -1.918294    4.749029
    125          6           0       11.534857   -3.844054    4.122452
    126          1           0       10.530267   -3.992318    3.707890
    127          1           0       12.250950   -4.079727    3.324263
    128          8           0       13.855461   -1.508211    3.865958
    129          6           0       11.733343   -4.817083    5.302371
    130          1           0       12.725076   -4.643777    5.743451
    131          6           0       10.678604   -4.628261    6.405025
    132          1           0        9.666555   -4.765009    6.004093
    133          1           0       10.713854   -3.632136    6.862616
    134          1           0       10.824887   -5.357297    7.209750
    135          6           0       11.709213   -6.263215    4.782420
    136          1           0       10.738433   -6.500472    4.328642
    137          1           0       11.879256   -6.976302    5.597126
    138          1           0       12.482420   -6.428705    4.023035
    139          7           0       13.487192   -2.048165    6.041235
    140          1           0       12.870485   -2.457998    6.733175
    141          6           0       14.864656   -1.833700    6.457924
    142          1           0       15.530052   -2.231967    5.683054
    143          6           0       15.078510   -2.636072    7.732982
    144          6           0       15.198196   -0.343717    6.662990
    145          1           0       16.244590   -0.221989    6.955827
    146          1           0       15.028816    0.184163    5.721652
    147          1           0       14.558578    0.094364    7.436233
    148          8           0       14.201717   -3.214713    8.340288
    149          8           0       16.365348   -2.616741    8.126822
    150          1           0       16.415220   -3.133396    8.953654
 ---------------------------------------------------------------------

 SCF Done:  E(RB3LYP) =  -3455.49000625     A.U. after    1 cycles

 Alpha  occ. eigenvalues --  -19.27303 -19.24752 -19.22234 -19.21117 -19.20324
 Alpha  occ. eigenvalues --  -19.19288 -19.19048 -19.18827 -19.16258 -19.15803
 Alpha  occ. eigenvalues --  -19.15765 -19.14997 -19.14940 -19.13572 -19.13417
 Alpha  occ. eigenvalues --  -14.60244 -14.49755 -14.46106 -14.45690 -14.42280
 Alpha  occ. eigenvalues --  -14.40420 -14.40333 -14.39792 -14.39190 -14.38219
 Alpha  occ. eigenvalues --  -14.37784 -10.43963 -10.41089 -10.39398 -10.38124
 Alpha  occ. eigenvalues --  -10.37178 -10.35577 -10.34661 -10.33946 -10.33587
 Alpha  occ. eigenvalues --  -10.33156 -10.32886 -10.32681 -10.32368 -10.32071
 Alpha  occ. eigenvalues --  -10.30832 -10.30735 -10.30603 -10.29785 -10.29651
 Alpha  occ. eigenvalues --  -10.29385 -10.29029 -10.28571 -10.28511 -10.28383
 Alpha  occ. eigenvalues --  -10.27706 -10.26907 -10.26634 -10.26448 -10.26295
 Alpha  occ. eigenvalues --  -10.26201 -10.25659 -10.25239 -10.24731 -10.24725
 Alpha  occ. eigenvalues --  -10.24374 -10.24289 -10.22228 -10.22149 -10.21690
 Alpha  occ. eigenvalues --  -10.21570 -10.21147 -10.20308 -10.20141 -10.19456
 Alpha  occ. eigenvalues --   -1.19673  -1.15795  -1.14470  -1.13936  -1.12939
 Alpha  occ. eigenvalues --   -1.10501  -1.08178  -1.07984  -1.07530  -1.07329
 Alpha  occ. eigenvalues --   -1.06933  -1.06826  -1.06723  -1.06428  -1.05721
 Alpha  occ. eigenvalues --   -1.05012  -1.02601  -1.02564  -1.01580  -0.98503
 Alpha  occ. eigenvalues --   -0.96945  -0.96283  -0.95785  -0.95512  -0.94921
 Alpha  occ. eigenvalues --   -0.94695  -0.94079  -0.91466  -0.89137  -0.88500
 Alpha  occ. eigenvalues --   -0.84824  -0.84478  -0.83919  -0.83044  -0.82179
 Alpha  occ. eigenvalues --   -0.82073  -0.81007  -0.80712  -0.79700  -0.78890
 Alpha  occ. eigenvalues --   -0.78580  -0.77304  -0.76962  -0.76635  -0.75909
 Alpha  occ. eigenvalues --   -0.74926  -0.74325  -0.73362  -0.72703  -0.72080
 Alpha  occ. eigenvalues --   -0.71568  -0.71107  -0.70678  -0.69747  -0.69664
 Alpha  occ. eigenvalues --   -0.69263  -0.68526  -0.67991  -0.67936  -0.67734
 Alpha  occ. eigenvalues --   -0.66616  -0.66269  -0.65462  -0.65252  -0.64148
 Alpha  occ. eigenvalues --   -0.63596  -0.63394  -0.62783  -0.62211  -0.62022
 Alpha  occ. eigenvalues --   -0.61578  -0.61171  -0.60576  -0.60128  -0.59977
 Alpha  occ. eigenvalues --   -0.59460  -0.59346  -0.59143  -0.58436  -0.58285
 Alpha  occ. eigenvalues --   -0.57964  -0.57601  -0.57310  -0.57126  -0.56158
 Alpha  occ. eigenvalues --   -0.56010  -0.55870  -0.55363  -0.54817  -0.54314
 Alpha  occ. eigenvalues --   -0.54191  -0.54007  -0.53741  -0.53674  -0.53518
 Alpha  occ. eigenvalues --   -0.53174  -0.52811  -0.52118  -0.52022  -0.51748
 Alpha  occ. eigenvalues --   -0.51701  -0.51482  -0.51337  -0.51130  -0.50703
 Alpha  occ. eigenvalues --   -0.50637  -0.50138  -0.50055  -0.49898  -0.49458
 Alpha  occ. eigenvalues --   -0.49166  -0.49046  -0.48939  -0.48883  -0.48742
 Alpha  occ. eigenvalues --   -0.48556  -0.48196  -0.48109  -0.47896  -0.47493
 Alpha  occ. eigenvalues --   -0.47274  -0.47247  -0.47050  -0.46945  -0.46881
 Alpha  occ. eigenvalues --   -0.46347  -0.46103  -0.46055  -0.46035  -0.45834
 Alpha  occ. eigenvalues --   -0.45698  -0.45479  -0.45385  -0.45296  -0.45224
 Alpha  occ. eigenvalues --   -0.45123  -0.45054  -0.44556  -0.44139  -0.43926
 Alpha  occ. eigenvalues --   -0.43700  -0.43389  -0.43209  -0.43137  -0.42911
 Alpha  occ. eigenvalues --   -0.42660  -0.42463  -0.42389  -0.42347  -0.42135
 Alpha  occ. eigenvalues --   -0.41888  -0.41643  -0.41568  -0.41417  -0.41321
 Alpha  occ. eigenvalues --   -0.41123  -0.41104  -0.41053  -0.40831  -0.40666
 Alpha  occ. eigenvalues --   -0.40469  -0.40265  -0.39996  -0.39842  -0.39525
 Alpha  occ. eigenvalues --   -0.39384  -0.39339  -0.39131  -0.38984  -0.38508
 Alpha  occ. eigenvalues --   -0.38196  -0.37795  -0.37213  -0.36929  -0.36734
 Alpha  occ. eigenvalues --   -0.36353  -0.36232  -0.35587  -0.35470  -0.35457
 Alpha  occ. eigenvalues --   -0.34480  -0.34054  -0.33329  -0.32896  -0.32673
 Alpha  occ. eigenvalues --   -0.32434  -0.31387  -0.31285  -0.30544  -0.30204
 Alpha  occ. eigenvalues --   -0.29854  -0.29499  -0.29113  -0.29098  -0.28789
 Alpha  occ. eigenvalues --   -0.28668  -0.28190  -0.27484  -0.26947  -0.25583
 Alpha virt. eigenvalues --   -0.12488  -0.11765  -0.08381  -0.07259  -0.07028
 Alpha virt. eigenvalues --   -0.04971  -0.04565  -0.04064  -0.02934  -0.02655
 Alpha virt. eigenvalues --   -0.01983  -0.01971  -0.01688  -0.01390  -0.00828

 Mulliken charges:
               1
     1  N   -0.758954
     2  H    0.416179
     3  H    0.412665
     4  H    0.434965
     5  C   -0.117049
     6  H    0.216923
     7  C    0.653554
     8  C   -0.298827
     9  H    0.197233
    10  H    0.172550
    11  O   -0.542017
    12  C   -0.097096
    13  H    0.112984
    14  C   -0.448446
    15  H    0.167597
    16  H    0.158385
    17  H    0.176021
    18  C   -0.455472
    19  H    0.170220
    20  H    0.133257
    21  H    0.184402
    22  N   -0.597074
    23  H    0.371547
    24  C   -0.071796
    25  H    0.185885
    26  C    0.627332
    27  C   -0.077697
    28  H    0.150287
    29  O   -0.549738
    30  C   -0.477360
    31  H    0.156087
    32  H    0.170762
    33  H    0.172760
    34  C   -0.447597
    35  H    0.164857
    36  H    0.170534
    37  H    0.128814
    38  N   -0.602852
    39  H    0.364411
    40  C   -0.069024
    41  H    0.178726
    42  C    0.649624
    43  C   -0.070215
    44  H    0.152535
    45  O   -0.560451
    46  C   -0.477336
    47  H    0.133586
    48  H    0.187237
    49  H    0.163155
    50  C   -0.446524
    51  H    0.154706
    52  H    0.134822
    53  H    0.157047
    54  N   -0.601175
    55  H    0.345472
    56  C   -0.092342
    57  H    0.204519
    58  C    0.641264
    59  C   -0.034480
    60  H    0.129533
    61  H    0.153274
    62  O   -0.562583
    63  O   -0.621274
    64  H    0.419744
    65  N   -0.611687
    66  H    0.382481
    67  C   -0.068067
    68  H    0.186040
    69  C    0.659909
    70  C    0.126131
    71  H    0.151401
    72  O   -0.549675
    73  C   -0.495826
    74  H    0.218767
    75  H    0.156737
    76  H    0.136458
    77  O   -0.651946
    78  H    0.396067
    79  N   -0.611108
    80  H    0.357837
    81  C   -0.020863
    82  H    0.197053
    83  C    0.586357
    84  C   -0.301633
    85  H    0.164373
    86  H    0.157905
    87  O   -0.542657
    88  C   -0.375657
    89  H    0.197382
    90  H    0.143021
    91  C    0.615478
    92  N   -0.740776
    93  H    0.343236
    94  H    0.350745
    95  O   -0.509819
    96  N   -0.631045
    97  H    0.382562
    98  C   -0.063662
    99  H    0.174024
   100  C    0.618850
   101  C    0.147512
   102  H    0.127744
   103  O   -0.546318
   104  C   -0.460648
   105  H    0.148137
   106  H    0.152294
   107  H    0.159646
   108  O   -0.660167
   109  H    0.439171
   110  N   -0.616872
   111  H    0.355380
   112  C   -0.032864
   113  H    0.175173
   114  C    0.618076
   115  C   -0.448453
   116  H    0.148883
   117  H    0.185093
   118  H    0.156278
   119  O   -0.545458
   120  N   -0.624613
   121  H    0.353971
   122  C   -0.048203
   123  H    0.174854
   124  C    0.616497
   125  C   -0.255176
   126  H    0.165902
   127  H    0.143568
   128  O   -0.541615
   129  C   -0.089636
   130  H    0.127388
   131  C   -0.448563
   132  H    0.155093
   133  H    0.134931
   134  H    0.151806
   135  C   -0.444005
   136  H    0.144789
   137  H    0.146360
   138  H    0.144300
   139  N   -0.620432
   140  H    0.362088
   141  C   -0.025896
   142  H    0.201717
   143  C    0.582642
   144  C   -0.451057
   145  H    0.173442
   146  H    0.189641
   147  H    0.156870
   148  O   -0.468161
   149  O   -0.559601
   150  H    0.422021
 Sum of Mulliken charges =   1.00000

 Dipole moment (field-independent basis, Debye):
    X=            -29.2335    Y=             -8.5018    Z=            -34.7109  Tot=             46.1706
 Quadrupole moment (field-independent basis, Debye-Ang):
   XX=             40.9467   YY=           -336.3137   ZZ=             -1.5307
   XY=            120.1538   XZ=            421.5053   YZ=             93.5642

 Normal termination of Gaussian 16 at Tue Jul 12 00:10:30 2022.
