 Gaussian 16, Revision C.01,
 Gaussian 16:  ES64L-G16RevC.01  3-Jul-2019

 -------------------------------------------------------------------
 # B3LYP/6-31G* guess=read geom=check nosymm integral(ultrafinegrid)
 -------------------------------------------------------------------

 ------------------------------------------------------
 Candidate Structure: Conf:817 Charge calc in gas phase
 ------------------------------------------------------
 Structure from the checkpoint file:  "conf-817.chk"
 Charge =  1 Multiplicity = 1

                          Input orientation:
 ---------------------------------------------------------------------
 Center     Atomic      Atomic             Coordinates (Angstroms)
 Number     Number       Type             X           Y           Z
 ---------------------------------------------------------------------
      1          7           0       -6.742968    0.947037  -11.128795
      2          1           0       -6.253595    1.681857  -11.648810
      3          1           0       -7.719137    0.921830  -11.437291
      4          1           0       -6.253874    0.021453  -11.311920
      5          6           0       -6.598576    1.082836   -9.621129
      6          1           0       -6.310036    2.112741   -9.403288
      7          6           0       -5.444878    0.083665   -9.321899
      8          6           0       -7.937665    0.716757   -8.951296
      9          1           0       -8.163363   -0.332255   -9.185888
     10          1           0       -8.721732    1.331941   -9.417818
     11          8           0       -5.197642   -0.770014  -10.187474
     12          6           0       -8.015411    0.931021   -7.421724
     13          1           0       -7.251093    0.308016   -6.939973
     14          6           0       -7.777369    2.395718   -7.021059
     15          1           0       -8.507070    3.061175   -7.499434
     16          1           0       -6.774120    2.759932   -7.278250
     17          1           0       -7.884721    2.513491   -5.938608
     18          6           0       -9.386581    0.446422   -6.923810
     19          1           0      -10.199924    1.038360   -7.361416
     20          1           0       -9.559163   -0.605949   -7.175721
     21          1           0       -9.453348    0.544762   -5.835988
     22          7           0       -4.808815    0.224177   -8.163479
     23          1           0       -5.133303    0.888891   -7.464827
     24          6           0       -3.776438   -0.689217   -7.659124
     25          1           0       -3.854095   -1.622336   -8.225467
     26          6           0       -4.136848   -0.892707   -6.175442
     27          6           0       -2.336930   -0.094503   -7.822584
     28          1           0       -2.262505    0.766253   -7.144238
     29          8           0       -4.740866    0.008619   -5.568897
     30          6           0       -1.257583   -1.117657   -7.427086
     31          1           0       -1.350367   -2.041886   -8.014228
     32          1           0       -1.267198   -1.370997   -6.363426
     33          1           0       -0.268055   -0.701887   -7.640508
     34          6           0       -2.102730    0.388742   -9.261797
     35          1           0       -2.204078   -0.431353   -9.982279
     36          1           0       -1.089763    0.793109   -9.351130
     37          1           0       -2.796209    1.186428   -9.546950
     38          7           0       -3.754624   -2.044269   -5.596378
     39          1           0       -3.174063   -2.678821   -6.132302
     40          6           0       -3.735734   -2.229854   -4.129274
     41          1           0       -4.678212   -1.825367   -3.746957
     42          6           0       -2.534265   -1.394311   -3.635409
     43          6           0       -3.612867   -3.718551   -3.760089
     44          1           0       -2.667052   -4.075776   -4.190474
     45          8           0       -1.382070   -1.807404   -3.749877
     46          6           0       -3.523898   -3.886536   -2.234572
     47          1           0       -4.412940   -3.475769   -1.738341
     48          1           0       -2.634325   -3.407728   -1.814334
     49          1           0       -3.470361   -4.949853   -1.980293
     50          6           0       -4.777419   -4.537642   -4.336496
     51          1           0       -5.734578   -4.216793   -3.906407
     52          1           0       -4.855542   -4.450828   -5.425973
     53          1           0       -4.646374   -5.597727   -4.097215
     54          7           0       -2.833042   -0.152768   -3.175264
     55          1           0       -3.807576    0.115371   -3.126215
     56          6           0       -1.826792    0.905921   -3.060642
     57          1           0       -0.991066    0.598020   -3.700540
     58          6           0       -1.270009    1.059149   -1.633066
     59          6           0       -2.395725    2.227545   -3.599487
     60          1           0       -1.621834    2.992613   -3.535118
     61          1           0       -3.232937    2.560796   -2.966350
     62          8           0       -1.054315    2.170844   -1.145097
     63          8           0       -2.781407    2.127029   -4.963009
     64          1           0       -3.543985    1.525669   -5.025813
     65          7           0       -1.017678   -0.103801   -0.990338
     66          1           0       -1.029620   -0.986158   -1.494704
     67          6           0       -0.448208   -0.150822    0.352312
     68          1           0       -0.845069    0.701517    0.912733
     69          6           0        1.086411   -0.025317    0.273060
     70          6           0       -0.842970   -1.479107    1.029893
     71          1           0       -0.275846   -1.538179    1.969395
     72          8           0        1.828018   -1.010421    0.412584
     73          6           0       -2.333198   -1.575637    1.325421
     74          1           0       -2.642921   -0.795654    2.029388
     75          1           0       -2.922122   -1.468847    0.408379
     76          1           0       -2.556283   -2.551925    1.765383
     77          8           0       -0.490123   -2.563678    0.174182
     78          1           0        0.485838   -2.527496    0.121562
     79          7           0        1.545795    1.216008    0.023366
     80          1           0        0.861890    1.952798   -0.135282
     81          6           0        2.970098    1.509514   -0.182199
     82          1           0        3.415708    0.602789   -0.608665
     83          6           0        3.641524    1.772534    1.188886
     84          6           0        3.119897    2.682035   -1.152204
     85          1           0        2.737934    3.592806   -0.676776
     86          1           0        2.507148    2.487910   -2.037931
     87          8           0        4.075565    2.886405    1.500287
     88          6           0        4.562136    2.917531   -1.610701
     89          1           0        5.010128    1.969035   -1.941672
     90          1           0        5.170525    3.288698   -0.780912
     91          6           0        4.607161    3.865695   -2.810915
     92          7           0        5.697937    4.685541   -2.860616
     93          1           0        6.329737    4.787427   -2.081071
     94          1           0        5.756660    5.354083   -3.616347
     95          8           0        3.752564    3.859020   -3.687410
     96          7           0        3.695820    0.692939    2.001317
     97          1           0        3.219848   -0.153424    1.695382
     98          6           0        4.020385    0.812316    3.426568
     99          1           0        3.667537    1.796958    3.757813
    100          6           0        5.553417    0.747529    3.649795
    101          6           0        3.299526   -0.280206    4.228597
    102          1           0        3.777780   -1.243052    3.999797
    103          8           0        6.102271   -0.185248    4.233299
    104          6           0        3.366541   -0.027513    5.733088
    105          1           0        4.401680   -0.026229    6.080889
    106          1           0        2.897146    0.930838    5.981766
    107          1           0        2.831448   -0.820041    6.271788
    108          8           0        1.937317   -0.285198    3.768814
    109          1           0        1.473956   -0.958343    4.290654
    110          7           0        6.228956    1.801340    3.133322
    111          1           0        5.691213    2.552813    2.708219
    112          6           0        7.658645    1.948364    3.334175
    113          1           0        8.146638    1.018451    3.018875
    114          6           0        7.966643    2.194885    4.829967
    115          6           0        8.180245    3.125267    2.501890
    116          1           0        9.264231    3.223482    2.614734
    117          1           0        7.955112    2.975686    1.440391
    118          1           0        7.715613    4.059237    2.836173
    119          8           0        7.252327    2.915027    5.519398
    120          7           0        9.096649    1.588718    5.276547
    121          1           0        9.699354    1.085918    4.635640
    122          6           0        9.653778    1.800214    6.600232
    123          1           0        9.171121    2.689473    7.015515
    124          6           0       11.162735    2.034146    6.424991
    125          6           0        9.434921    0.583251    7.535179
    126          1           0        9.966424   -0.270538    7.092940
    127          1           0        9.927918    0.792740    8.496098
    128          8           0       11.777236    1.555675    5.471924
    129          6           0        7.966702    0.192195    7.792039
    130          1           0        7.485664    0.036444    6.817108
    131          6           0        7.918752   -1.138095    8.560155
    132          1           0        8.392056   -1.044096    9.546736
    133          1           0        8.436543   -1.936707    8.015411
    134          1           0        6.883005   -1.459612    8.719940
    135          6           0        7.191176    1.286113    8.541753
    136          1           0        7.672511    1.525435    9.500323
    137          1           0        6.171435    0.948646    8.763494
    138          1           0        7.110099    2.201220    7.947857
    139          7           0       11.764221    2.758342    7.401542
    140          1           0       11.244017    3.084291    8.207920
    141          6           0       13.206872    2.929605    7.457883
    142          1           0       13.685293    1.977581    7.198826
    143          6           0       13.564967    3.272104    8.896122
    144          6           0       13.716697    4.007706    6.481708
    145          1           0       14.805482    4.092696    6.537959
    146          1           0       13.433566    3.718640    5.467089
    147          1           0       13.270315    4.980599    6.712388
    148          8           0       12.760427    3.521806    9.769082
    149          8           0       14.897694    3.288513    9.090185
    150          1           0       15.042216    3.535950   10.023380
 ---------------------------------------------------------------------

 SCF Done:  E(RB3LYP) =  -3455.48894419     A.U. after    1 cycles

 Alpha  occ. eigenvalues --  -19.27895 -19.24606 -19.24239 -19.21712 -19.20732
 Alpha  occ. eigenvalues --  -19.19274 -19.18878 -19.18748 -19.18734 -19.18392
 Alpha  occ. eigenvalues --  -19.16500 -19.14869 -19.14859 -19.14377 -19.13350
 Alpha  occ. eigenvalues --  -14.61140 -14.50881 -14.48513 -14.45488 -14.42753
 Alpha  occ. eigenvalues --  -14.41986 -14.39875 -14.39649 -14.39465 -14.38095
 Alpha  occ. eigenvalues --  -14.38024 -10.44768 -10.41815 -10.41458 -10.37892
 Alpha  occ. eigenvalues --  -10.36635 -10.35964 -10.35832 -10.34964 -10.34521
 Alpha  occ. eigenvalues --  -10.33300 -10.33166 -10.32752 -10.32054 -10.31915
 Alpha  occ. eigenvalues --  -10.31363 -10.30985 -10.30671 -10.30658 -10.30036
 Alpha  occ. eigenvalues --  -10.29500 -10.29275 -10.29232 -10.28459 -10.28419
 Alpha  occ. eigenvalues --  -10.28172 -10.27914 -10.27712 -10.27129 -10.26723
 Alpha  occ. eigenvalues --  -10.26668 -10.26289 -10.25799 -10.25783 -10.24730
 Alpha  occ. eigenvalues --  -10.23605 -10.23375 -10.23163 -10.22101 -10.21710
 Alpha  occ. eigenvalues --  -10.21005 -10.20721 -10.20315 -10.18939 -10.18229
 Alpha  occ. eigenvalues --   -1.20390  -1.16320  -1.15266  -1.14885  -1.12780
 Alpha  occ. eigenvalues --   -1.10826  -1.09876  -1.09009  -1.08053  -1.07409
 Alpha  occ. eigenvalues --   -1.06999  -1.06716  -1.06711  -1.06349  -1.06211
 Alpha  occ. eigenvalues --   -1.05824  -1.04979  -1.04519  -1.01498  -0.99172
 Alpha  occ. eigenvalues --   -0.98162  -0.96230  -0.96097  -0.95832  -0.94756
 Alpha  occ. eigenvalues --   -0.94648  -0.94150  -0.91944  -0.89602  -0.88996
 Alpha  occ. eigenvalues --   -0.85472  -0.84413  -0.83846  -0.83269  -0.82525
 Alpha  occ. eigenvalues --   -0.81817  -0.81430  -0.81149  -0.79874  -0.79762
 Alpha  occ. eigenvalues --   -0.79120  -0.78268  -0.77791  -0.76373  -0.76277
 Alpha  occ. eigenvalues --   -0.75914  -0.75058  -0.74173  -0.73621  -0.73375
 Alpha  occ. eigenvalues --   -0.72149  -0.71005  -0.70570  -0.69485  -0.69279
 Alpha  occ. eigenvalues --   -0.69082  -0.68315  -0.68220  -0.67991  -0.67573
 Alpha  occ. eigenvalues --   -0.67555  -0.66242  -0.65843  -0.65674  -0.64999
 Alpha  occ. eigenvalues --   -0.64208  -0.64118  -0.63548  -0.62734  -0.61933
 Alpha  occ. eigenvalues --   -0.61801  -0.61513  -0.61032  -0.60933  -0.60586
 Alpha  occ. eigenvalues --   -0.60430  -0.60005  -0.59826  -0.58618  -0.58266
 Alpha  occ. eigenvalues --   -0.57812  -0.57742  -0.57692  -0.57325  -0.56800
 Alpha  occ. eigenvalues --   -0.56695  -0.56394  -0.56114  -0.56060  -0.55848
 Alpha  occ. eigenvalues --   -0.55710  -0.54833  -0.54226  -0.53822  -0.53702
 Alpha  occ. eigenvalues --   -0.53330  -0.52939  -0.52703  -0.52210  -0.52033
 Alpha  occ. eigenvalues --   -0.51890  -0.51680  -0.51417  -0.51303  -0.51150
 Alpha  occ. eigenvalues --   -0.50934  -0.50519  -0.50476  -0.50107  -0.50049
 Alpha  occ. eigenvalues --   -0.49768  -0.49433  -0.49347  -0.49113  -0.48968
 Alpha  occ. eigenvalues --   -0.48916  -0.48830  -0.48793  -0.48478  -0.48071
 Alpha  occ. eigenvalues --   -0.47855  -0.47579  -0.47402  -0.47271  -0.46817
 Alpha  occ. eigenvalues --   -0.46251  -0.46179  -0.46100  -0.45825  -0.45567
 Alpha  occ. eigenvalues --   -0.45437  -0.45302  -0.45278  -0.45189  -0.45172
 Alpha  occ. eigenvalues --   -0.45044  -0.45009  -0.44678  -0.44651  -0.44107
 Alpha  occ. eigenvalues --   -0.43910  -0.43686  -0.43652  -0.43574  -0.43465
 Alpha  occ. eigenvalues --   -0.43176  -0.42912  -0.42643  -0.42595  -0.42502
 Alpha  occ. eigenvalues --   -0.42311  -0.42253  -0.42034  -0.41941  -0.41776
 Alpha  occ. eigenvalues --   -0.41521  -0.41410  -0.41238  -0.41085  -0.40754
 Alpha  occ. eigenvalues --   -0.40582  -0.40559  -0.40313  -0.40130  -0.40104
 Alpha  occ. eigenvalues --   -0.39790  -0.39635  -0.39292  -0.38862  -0.38789
 Alpha  occ. eigenvalues --   -0.38725  -0.38451  -0.38205  -0.38183  -0.37316
 Alpha  occ. eigenvalues --   -0.36625  -0.36386  -0.36100  -0.34899  -0.34780
 Alpha  occ. eigenvalues --   -0.34484  -0.33944  -0.33923  -0.33825  -0.33108
 Alpha  occ. eigenvalues --   -0.32597  -0.32349  -0.31566  -0.31280  -0.30986
 Alpha  occ. eigenvalues --   -0.30619  -0.30267  -0.29332  -0.29279  -0.29152
 Alpha  occ. eigenvalues --   -0.28689  -0.28639  -0.27302  -0.26843  -0.26602
 Alpha virt. eigenvalues --   -0.13532  -0.12038  -0.10854  -0.07495  -0.07271
 Alpha virt. eigenvalues --   -0.06308  -0.05795  -0.04242  -0.03531  -0.03253
 Alpha virt. eigenvalues --   -0.02523  -0.02379  -0.02229  -0.01537  -0.01031

 Mulliken charges:
               1
     1  N   -0.755030
     2  H    0.419251
     3  H    0.414355
     4  H    0.434573
     5  C   -0.120021
     6  H    0.217235
     7  C    0.651866
     8  C   -0.286888
     9  H    0.177150
    10  H    0.163160
    11  O   -0.538119
    12  C   -0.107045
    13  H    0.159225
    14  C   -0.463317
    15  H    0.160319
    16  H    0.138267
    17  H    0.186833
    18  C   -0.451751
    19  H    0.158367
    20  H    0.158908
    21  H    0.175571
    22  N   -0.593745
    23  H    0.377993
    24  C   -0.079094
    25  H    0.189377
    26  C    0.646174
    27  C   -0.096513
    28  H    0.181800
    29  O   -0.575960
    30  C   -0.494919
    31  H    0.144652
    32  H    0.183792
    33  H    0.182184
    34  C   -0.448096
    35  H    0.161006
    36  H    0.178205
    37  H    0.124839
    38  N   -0.592208
    39  H    0.356956
    40  C   -0.042666
    41  H    0.164697
    42  C    0.627482
    43  C   -0.106291
    44  H    0.159141
    45  O   -0.535918
    46  C   -0.476627
    47  H    0.142013
    48  H    0.194193
    49  H    0.168451
    50  C   -0.450213
    51  H    0.149751
    52  H    0.135780
    53  H    0.170694
    54  N   -0.596545
    55  H    0.340832
    56  C   -0.091439
    57  H    0.210217
    58  C    0.635146
    59  C   -0.059991
    60  H    0.197580
    61  H    0.138078
    62  O   -0.543541
    63  O   -0.650645
    64  H    0.416569
    65  N   -0.605257
    66  H    0.370303
    67  C   -0.082022
    68  H    0.184706
    69  C    0.655680
    70  C    0.121285
    71  H    0.147490
    72  O   -0.570715
    73  C   -0.453774
    74  H    0.150828
    75  H    0.142575
    76  H    0.168600
    77  O   -0.651617
    78  H    0.422399
    79  N   -0.615944
    80  H    0.374830
    81  C   -0.067854
    82  H    0.180893
    83  C    0.638509
    84  C   -0.276853
    85  H    0.167305
    86  H    0.173056
    87  O   -0.550512
    88  C   -0.377096
    89  H    0.169424
    90  H    0.169196
    91  C    0.600830
    92  N   -0.746136
    93  H    0.339393
    94  H    0.342373
    95  O   -0.514763
    96  N   -0.616484
    97  H    0.385406
    98  C   -0.068568
    99  H    0.183567
   100  C    0.648488
   101  C    0.122481
   102  H    0.148022
   103  O   -0.540364
   104  C   -0.481257
   105  H    0.196106
   106  H    0.156290
   107  H    0.134428
   108  O   -0.648989
   109  H    0.395313
   110  N   -0.614750
   111  H    0.371148
   112  C   -0.028543
   113  H    0.157058
   114  C    0.638081
   115  C   -0.479439
   116  H    0.167014
   117  H    0.152660
   118  H    0.174679
   119  O   -0.536163
   120  N   -0.594314
   121  H    0.343378
   122  C   -0.074428
   123  H    0.178340
   124  C    0.623639
   125  C   -0.252182
   126  H    0.142014
   127  H    0.130795
   128  O   -0.543830
   129  C   -0.079777
   130  H    0.164672
   131  C   -0.442649
   132  H    0.135777
   133  H    0.140377
   134  H    0.140169
   135  C   -0.467376
   136  H    0.126168
   137  H    0.136405
   138  H    0.181824
   139  N   -0.617979
   140  H    0.354518
   141  C   -0.018945
   142  H    0.198025
   143  C    0.579392
   144  C   -0.451709
   145  H    0.170220
   146  H    0.189699
   147  H    0.156127
   148  O   -0.467110
   149  O   -0.561280
   150  H    0.420624
 Sum of Mulliken charges =   1.00000

 Dipole moment (field-independent basis, Debye):
    X=            -26.5998    Y=              2.8224    Z=            -40.4693  Tot=             48.5107
 Quadrupole moment (field-independent basis, Debye-Ang):
   XX=           -108.0963   YY=           -398.8715   ZZ=             38.1384
   XY=             19.3253   XZ=            325.2346   YZ=            -31.9445

 Normal termination of Gaussian 16 at Tue Jul 12 00:10:35 2022.
