 Gaussian 16, Revision C.01,
 Gaussian 16:  ES64L-G16RevC.01  3-Jul-2019

 -------------------------------------------------------------------
 # B3LYP/6-31G* guess=read geom=check nosymm integral(ultrafinegrid)
 -------------------------------------------------------------------

 ------------------------------------------------------
 Candidate Structure: Conf:684 Charge calc in gas phase
 ------------------------------------------------------
 Structure from the checkpoint file:  "conf-684.chk"
 Charge =  1 Multiplicity = 1

                          Input orientation:
 ---------------------------------------------------------------------
 Center     Atomic      Atomic             Coordinates (Angstroms)
 Number     Number       Type             X           Y           Z
 ---------------------------------------------------------------------
      1          7           0       -6.047078   -7.156374   -7.539986
      2          1           0       -5.534725   -7.448342   -8.376589
      3          1           0       -6.945998   -7.646221   -7.523434
      4          1           0       -5.461596   -7.381031   -6.675149
      5          6           0       -6.193941   -5.650847   -7.416652
      6          1           0       -5.894574   -5.204350   -8.366828
      7          6           0       -5.173556   -5.309415   -6.292726
      8          6           0       -7.633721   -5.266698   -7.041132
      9          1           0       -7.638274   -4.188990   -6.835651
     10          1           0       -7.881643   -5.753576   -6.087174
     11          8           0       -4.687274   -6.258457   -5.657763
     12          6           0       -8.716986   -5.581672   -8.097137
     13          1           0       -8.705205   -6.665560   -8.310023
     14          6           0      -10.101231   -5.254491   -7.514854
     15          1           0      -10.186747   -4.184406   -7.291612
     16          1           0      -10.292382   -5.808520   -6.589036
     17          1           0      -10.890153   -5.510288   -8.228795
     18          6           0       -8.484757   -4.835647   -9.419563
     19          1           0       -8.482773   -3.750509   -9.260269
     20          1           0       -7.538729   -5.105613   -9.905390
     21          1           0       -9.284161   -5.063074  -10.131521
     22          7           0       -4.919921   -4.019869   -6.106781
     23          1           0       -5.493883   -3.305722   -6.561914
     24          6           0       -4.198633   -3.455030   -4.961845
     25          1           0       -4.242172   -4.179590   -4.142079
     26          6           0       -5.007676   -2.185001   -4.599987
     27          6           0       -2.709078   -3.126577   -5.270578
     28          1           0       -2.321180   -2.649739   -4.359617
     29          8           0       -5.835573   -1.735636   -5.399820
     30          6           0       -1.890184   -4.401844   -5.512530
     31          1           0       -2.203977   -4.909972   -6.431660
     32          1           0       -1.988354   -5.112880   -4.685671
     33          1           0       -0.830139   -4.150257   -5.620308
     34          6           0       -2.556020   -2.130640   -6.429207
     35          1           0       -2.911981   -2.563066   -7.372129
     36          1           0       -1.500923   -1.873237   -6.563927
     37          1           0       -3.107105   -1.200434   -6.255708
     38          7           0       -4.726725   -1.642987   -3.403322
     39          1           0       -3.956776   -2.002559   -2.846096
     40          6           0       -5.201868   -0.333233   -2.953349
     41          1           0       -5.651794    0.168530   -3.815709
     42          6           0       -3.942193    0.399835   -2.463216
     43          6           0       -6.254655   -0.461690   -1.813234
     44          1           0       -5.765875   -1.022807   -1.004436
     45          8           0       -3.065765   -0.245418   -1.873808
     46          6           0       -6.673331    0.909994   -1.259677
     47          1           0       -7.109441    1.538091   -2.048555
     48          1           0       -5.839418    1.453568   -0.806009
     49          1           0       -7.441509    0.777984   -0.490585
     50          6           0       -7.477790   -1.256134   -2.291528
     51          1           0       -7.992957   -0.734737   -3.107356
     52          1           0       -7.203116   -2.253714   -2.648462
     53          1           0       -8.190002   -1.379434   -1.468672
     54          7           0       -3.884380    1.721914   -2.691073
     55          1           0       -4.579595    2.172581   -3.274359
     56          6           0       -2.801290    2.588254   -2.234288
     57          1           0       -1.909930    2.407401   -2.848163
     58          6           0       -2.507890    2.329942   -0.737287
     59          6           0       -3.259325    4.039427   -2.404847
     60          1           0       -2.400594    4.704315   -2.239395
     61          1           0       -4.023054    4.253316   -1.646256
     62          8           0       -3.389313    2.479057    0.104757
     63          8           0       -3.779726    4.166982   -3.726286
     64          1           0       -4.169220    5.050019   -3.814946
     65          7           0       -1.237683    1.962178   -0.477758
     66          1           0       -0.556040    1.867909   -1.224911
     67          6           0       -0.704455    1.602443    0.822501
     68          1           0       -1.111747    2.276815    1.584032
     69          6           0        0.818054    1.784414    0.698087
     70          6           0       -1.039108    0.111517    1.202910
     71          1           0       -0.291334   -0.210268    1.938132
     72          8           0        1.359612    1.865155   -0.408511
     73          6           0       -2.428650   -0.061913    1.820233
     74          1           0       -2.543148    0.551975    2.721042
     75          1           0       -3.215335    0.228770    1.120463
     76          1           0       -2.564441   -1.112627    2.096525
     77          8           0       -0.840624   -0.730379    0.084410
     78          1           0       -1.534044   -0.520930   -0.570085
     79          7           0        1.515211    1.827339    1.855634
     80          1           0        1.035157    1.733402    2.741248
     81          6           0        2.975908    1.972857    1.878384
     82          1           0        3.229310    2.627744    1.037647
     83          6           0        3.658882    0.601505    1.651496
     84          6           0        3.438084    2.593195    3.198445
     85          1           0        3.267441    1.869972    4.003596
     86          1           0        2.844381    3.486290    3.416787
     87          8           0        4.148772   -0.037406    2.587706
     88          6           0        4.925767    2.970638    3.167068
     89          1           0        5.082319    3.797100    2.459804
     90          1           0        5.533768    2.127440    2.832008
     91          6           0        5.400450    3.445276    4.540240
     92          7           0        6.617883    2.960600    4.915735
     93          1           0        7.065613    2.196503    4.419705
     94          1           0        6.939319    3.195553    5.844892
     95          8           0        4.740655    4.217256    5.226237
     96          7           0        3.714134    0.173463    0.370238
     97          1           0        3.267989    0.707053   -0.371752
     98          6           0        4.378931   -1.079114    0.015863
     99          1           0        4.259891   -1.763643    0.862841
    100          6           0        5.892435   -0.814953   -0.194541
    101          6           0        3.757731   -1.689231   -1.255681
    102          1           0        4.345059   -2.591254   -1.485747
    103          8           0        6.425215   -0.919280   -1.305572
    104          6           0        2.294827   -2.077045   -1.083676
    105          1           0        2.178149   -2.811835   -0.279148
    106          1           0        1.664066   -1.214080   -0.853222
    107          1           0        1.930777   -2.523266   -2.014760
    108          8           0        3.847871   -0.760882   -2.331013
    109          1           0        4.809375   -0.648609   -2.467104
    110          7           0        6.568172   -0.446229    0.917823
    111          1           0        6.056470   -0.327747    1.792013
    112          6           0        7.964879   -0.025512    0.878273
    113          1           0        8.550476   -0.815379    0.393519
    114          6           0        8.430193    0.174632    2.325000
    115          6           0        8.166073    1.290300    0.099250
    116          1           0        9.227457    1.559817    0.071169
    117          1           0        7.810152    1.163152   -0.924920
    118          1           0        7.611023    2.101680    0.580169
    119          8           0        7.685941    0.691116    3.167050
    120          7           0        9.698712   -0.192508    2.587219
    121          1           0       10.282978   -0.641923    1.888808
    122          6           0       10.346180    0.018236    3.876276
    123          1           0       10.045951    1.003091    4.247741
    124          6           0       11.855698   -0.016586    3.586408
    125          6           0        9.922334   -1.077832    4.889519
    126          1           0        8.827051   -1.122183    4.855437
    127          1           0       10.295425   -2.038444    4.511641
    128          8           0       12.297145   -0.664794    2.638076
    129          6           0       10.366163   -0.887763    6.354153
    130          1           0       11.461461   -0.806220    6.386292
    131          6           0        9.771429    0.380739    6.988395
    132          1           0        8.674906    0.358322    6.950891
    133          1           0       10.097167    1.301050    6.487011
    134          1           0       10.068212    0.464818    8.039770
    135          6           0        9.971921   -2.127975    7.171886
    136          1           0        8.883006   -2.264145    7.178520
    137          1           0       10.301974   -2.033569    8.212610
    138          1           0       10.420521   -3.038482    6.758189
    139          7           0       12.647711    0.682496    4.435741
    140          1           0       12.239240    1.185230    5.211350
    141          6           0       14.102728    0.647711    4.327671
    142          1           0       14.370928   -0.337767    3.932599
    143          6           0       14.780932    0.774107    5.686569
    144          6           0       14.652174    1.715448    3.364062
    145          1           0       15.741761    1.645223    3.313535
    146          1           0       14.234913    1.545913    2.368374
    147          1           0       14.378137    2.722315    3.696750
    148          8           0       15.975068    0.702718    5.847738
    149          8           0       13.910425    1.004929    6.703850
    150          1           0       14.449534    1.086878    7.513853
 ---------------------------------------------------------------------

 SCF Done:  E(RB3LYP) =  -3455.49822277     A.U. after    1 cycles

 Alpha  occ. eigenvalues --  -19.27143 -19.25620 -19.22927 -19.22155 -19.20689
 Alpha  occ. eigenvalues --  -19.19170 -19.18509 -19.18398 -19.17750 -19.17309
 Alpha  occ. eigenvalues --  -19.17245 -19.16682 -19.16267 -19.16255 -19.12647
 Alpha  occ. eigenvalues --  -14.60097 -14.49423 -14.45768 -14.44664 -14.42786
 Alpha  occ. eigenvalues --  -14.42129 -14.41923 -14.41392 -14.40410 -14.39817
 Alpha  occ. eigenvalues --  -14.36881 -10.43761 -10.40874 -10.39163 -10.37567
 Alpha  occ. eigenvalues --  -10.37529 -10.35358 -10.35298 -10.34393 -10.34341
 Alpha  occ. eigenvalues --  -10.34269 -10.33716 -10.33250 -10.33014 -10.32497
 Alpha  occ. eigenvalues --  -10.31880 -10.31232 -10.31072 -10.30548 -10.29413
 Alpha  occ. eigenvalues --  -10.29390 -10.29367 -10.29346 -10.29213 -10.28746
 Alpha  occ. eigenvalues --  -10.28476 -10.28386 -10.28242 -10.27320 -10.27240
 Alpha  occ. eigenvalues --  -10.27035 -10.26227 -10.26129 -10.24635 -10.24016
 Alpha  occ. eigenvalues --  -10.23631 -10.23271 -10.22905 -10.22882 -10.22290
 Alpha  occ. eigenvalues --  -10.22084 -10.22018 -10.21962 -10.21403 -10.20599
 Alpha  occ. eigenvalues --   -1.19493  -1.16156  -1.14270  -1.13756  -1.12457
 Alpha  occ. eigenvalues --   -1.10551  -1.10157  -1.09577  -1.09355  -1.08818
 Alpha  occ. eigenvalues --   -1.08343  -1.07558  -1.07068  -1.06353  -1.06175
 Alpha  occ. eigenvalues --   -1.04430  -1.04318  -1.02299  -1.00863  -0.98951
 Alpha  occ. eigenvalues --   -0.98423  -0.98406  -0.97794  -0.96949  -0.95906
 Alpha  occ. eigenvalues --   -0.95312  -0.91662  -0.91298  -0.88890  -0.88124
 Alpha  occ. eigenvalues --   -0.86022  -0.85355  -0.84196  -0.83162  -0.82731
 Alpha  occ. eigenvalues --   -0.82327  -0.81706  -0.80553  -0.80527  -0.79535
 Alpha  occ. eigenvalues --   -0.78392  -0.78384  -0.77398  -0.77266  -0.75707
 Alpha  occ. eigenvalues --   -0.75274  -0.74131  -0.73998  -0.73195  -0.72868
 Alpha  occ. eigenvalues --   -0.72631  -0.72175  -0.71225  -0.71139  -0.69590
 Alpha  occ. eigenvalues --   -0.69443  -0.69279  -0.68162  -0.67503  -0.67428
 Alpha  occ. eigenvalues --   -0.66246  -0.65941  -0.65833  -0.65497  -0.65118
 Alpha  occ. eigenvalues --   -0.64391  -0.63877  -0.63524  -0.63378  -0.63101
 Alpha  occ. eigenvalues --   -0.62663  -0.61866  -0.61483  -0.60980  -0.60679
 Alpha  occ. eigenvalues --   -0.59894  -0.59615  -0.59461  -0.58926  -0.58614
 Alpha  occ. eigenvalues --   -0.57716  -0.57580  -0.57156  -0.56965  -0.56447
 Alpha  occ. eigenvalues --   -0.56150  -0.55942  -0.55638  -0.55502  -0.54829
 Alpha  occ. eigenvalues --   -0.54808  -0.54042  -0.53975  -0.53733  -0.53441
 Alpha  occ. eigenvalues --   -0.53369  -0.53214  -0.52809  -0.52689  -0.52348
 Alpha  occ. eigenvalues --   -0.52254  -0.52023  -0.51856  -0.51606  -0.51302
 Alpha  occ. eigenvalues --   -0.51199  -0.51013  -0.50725  -0.50338  -0.50101
 Alpha  occ. eigenvalues --   -0.49874  -0.49687  -0.49300  -0.49153  -0.49091
 Alpha  occ. eigenvalues --   -0.48961  -0.48735  -0.48599  -0.48246  -0.48055
 Alpha  occ. eigenvalues --   -0.48004  -0.47666  -0.47424  -0.47411  -0.47264
 Alpha  occ. eigenvalues --   -0.46853  -0.46674  -0.46616  -0.46573  -0.46122
 Alpha  occ. eigenvalues --   -0.45995  -0.45973  -0.45840  -0.45605  -0.45303
 Alpha  occ. eigenvalues --   -0.45251  -0.45199  -0.45003  -0.44968  -0.44860
 Alpha  occ. eigenvalues --   -0.44542  -0.44455  -0.44303  -0.43805  -0.43358
 Alpha  occ. eigenvalues --   -0.43038  -0.42984  -0.42928  -0.42771  -0.42653
 Alpha  occ. eigenvalues --   -0.42447  -0.42417  -0.42063  -0.41868  -0.41788
 Alpha  occ. eigenvalues --   -0.41758  -0.41648  -0.41486  -0.41422  -0.41279
 Alpha  occ. eigenvalues --   -0.41097  -0.40937  -0.40850  -0.40763  -0.40494
 Alpha  occ. eigenvalues --   -0.40144  -0.39937  -0.39573  -0.39243  -0.38994
 Alpha  occ. eigenvalues --   -0.38965  -0.37947  -0.37424  -0.37361  -0.37264
 Alpha  occ. eigenvalues --   -0.37167  -0.36803  -0.36339  -0.36205  -0.35695
 Alpha  occ. eigenvalues --   -0.35337  -0.34688  -0.33914  -0.33568  -0.33510
 Alpha  occ. eigenvalues --   -0.32798  -0.32354  -0.32029  -0.31835  -0.31300
 Alpha  occ. eigenvalues --   -0.31243  -0.30965  -0.30557  -0.30116  -0.30065
 Alpha  occ. eigenvalues --   -0.29443  -0.29081  -0.28299  -0.28003  -0.26513
 Alpha virt. eigenvalues --   -0.12337  -0.11590  -0.07959  -0.06941  -0.06304
 Alpha virt. eigenvalues --   -0.05059  -0.04475  -0.04389  -0.04336  -0.03827
 Alpha virt. eigenvalues --   -0.03323  -0.02555  -0.02482  -0.01674  -0.01204

 Mulliken charges:
               1
     1  N   -0.758603
     2  H    0.415978
     3  H    0.412600
     4  H    0.434400
     5  C   -0.116955
     6  H    0.216681
     7  C    0.650921
     8  C   -0.300309
     9  H    0.200009
    10  H    0.172606
    11  O   -0.540759
    12  C   -0.097023
    13  H    0.112395
    14  C   -0.448455
    15  H    0.168264
    16  H    0.158476
    17  H    0.175278
    18  C   -0.455386
    19  H    0.170481
    20  H    0.133060
    21  H    0.183724
    22  N   -0.592427
    23  H    0.373087
    24  C   -0.082251
    25  H    0.191102
    26  C    0.634524
    27  C   -0.086168
    28  H    0.159455
    29  O   -0.554951
    30  C   -0.444622
    31  H    0.136033
    32  H    0.162460
    33  H    0.172088
    34  C   -0.463857
    35  H    0.139880
    36  H    0.175519
    37  H    0.165871
    38  N   -0.604197
    39  H    0.361293
    40  C   -0.069213
    41  H    0.174462
    42  C    0.652436
    43  C   -0.071301
    44  H    0.148031
    45  O   -0.568588
    46  C   -0.482207
    47  H    0.135819
    48  H    0.193970
    49  H    0.162240
    50  C   -0.444996
    51  H    0.152448
    52  H    0.138028
    53  H    0.159167
    54  N   -0.601117
    55  H    0.359212
    56  C   -0.031410
    57  H    0.171318
    58  C    0.631701
    59  C   -0.072610
    60  H    0.160248
    61  H    0.174021
    62  O   -0.535461
    63  O   -0.633137
    64  H    0.414037
    65  N   -0.619749
    66  H    0.363302
    67  C   -0.054421
    68  H    0.176174
    69  C    0.637451
    70  C    0.127178
    71  H    0.141675
    72  O   -0.548605
    73  C   -0.465216
    74  H    0.143428
    75  H    0.175060
    76  H    0.153822
    77  O   -0.649709
    78  H    0.433930
    79  N   -0.614618
    80  H    0.342148
    81  C   -0.046363
    82  H    0.176497
    83  C    0.625983
    84  C   -0.281663
    85  H    0.168401
    86  H    0.166387
    87  O   -0.545462
    88  C   -0.387368
    89  H    0.160540
    90  H    0.179202
    91  C    0.595033
    92  N   -0.785529
    93  H    0.386907
    94  H    0.327570
    95  O   -0.521975
    96  N   -0.604615
    97  H    0.376690
    98  C   -0.072399
    99  H    0.180467
   100  C    0.634541
   101  C    0.120251
   102  H    0.130671
   103  O   -0.555409
   104  C   -0.459505
   105  H    0.138686
   106  H    0.181070
   107  H    0.143232
   108  O   -0.654282
   109  H    0.416091
   110  N   -0.646097
   111  H    0.393365
   112  C   -0.003903
   113  H    0.167011
   114  C    0.609105
   115  C   -0.458462
   116  H    0.152630
   117  H    0.192895
   118  H    0.162235
   119  O   -0.548901
   120  N   -0.613688
   121  H    0.360125
   122  C   -0.051821
   123  H    0.166306
   124  C    0.619374
   125  C   -0.257278
   126  H    0.167944
   127  H    0.149421
   128  O   -0.535399
   129  C   -0.091839
   130  H    0.133031
   131  C   -0.452724
   132  H    0.155730
   133  H    0.127506
   134  H    0.153297
   135  C   -0.444960
   136  H    0.148002
   137  H    0.147647
   138  H    0.148222
   139  N   -0.615710
   140  H    0.357186
   141  C   -0.048273
   142  H    0.215505
   143  C    0.591701
   144  C   -0.446933
   145  H    0.185301
   146  H    0.180938
   147  H    0.154064
   148  O   -0.446016
   149  O   -0.582565
   150  H    0.423209
 Sum of Mulliken charges =   1.00000

 Dipole moment (field-independent basis, Debye):
    X=            -22.8753    Y=            -20.9474    Z=            -27.4981  Tot=             41.4514
 Quadrupole moment (field-independent basis, Debye-Ang):
   XX=           -144.2257   YY=           -244.7008   ZZ=           -154.3592
   XY=            161.5147   XZ=            268.9976   YZ=            170.6732

 Normal termination of Gaussian 16 at Tue Jul 12 00:10:34 2022.
