 Gaussian 16, Revision C.01,
 Gaussian 16:  ES64L-G16RevC.01  3-Jul-2019

 -------------------------------------------------------------------
 # B3LYP/6-31G* guess=read geom=check nosymm integral(ultrafinegrid)
 -------------------------------------------------------------------

 ------------------------------------------------------
 Candidate Structure: Conf:239 Charge calc in gas phase
 ------------------------------------------------------
 Structure from the checkpoint file:  "conf-239.chk"
 Charge =  1 Multiplicity = 1

                          Input orientation:
 ---------------------------------------------------------------------
 Center     Atomic      Atomic             Coordinates (Angstroms)
 Number     Number       Type             X           Y           Z
 ---------------------------------------------------------------------
      1          7           0      -11.296520   -4.720770   -5.905405
      2          1           0      -11.690524   -4.394231   -6.792579
      3          1           0      -12.064786   -4.985789   -5.282717
      4          1           0      -10.649532   -5.546179   -6.100324
      5          6           0      -10.333328   -3.728711   -5.273186
      6          1           0      -10.507772   -2.752750   -5.729634
      7          6           0       -8.954712   -4.320489   -5.687267
      8          6           0      -10.574209   -3.691152   -3.751060
      9          1           0      -10.358269   -4.688669   -3.344896
     10          1           0      -11.645723   -3.498344   -3.590071
     11          8           0       -8.942766   -5.501468   -6.072830
     12          6           0       -9.778195   -2.628775   -2.957711
     13          1           0       -8.705696   -2.821957   -3.083208
     14          6           0      -10.073996   -1.197473   -3.432750
     15          1           0      -11.142382   -0.962305   -3.344135
     16          1           0       -9.775485   -1.016246   -4.473424
     17          1           0       -9.524108   -0.476320   -2.820830
     18          6           0      -10.102347   -2.783888   -1.463224
     19          1           0      -11.163208   -2.587528   -1.263773
     20          1           0       -9.869907   -3.792026   -1.102022
     21          1           0       -9.516209   -2.074171   -0.871457
     22          7           0       -7.902369   -3.517061   -5.602481
     23          1           0       -7.968947   -2.599371   -5.160753
     24          6           0       -6.504488   -3.935420   -5.777432
     25          1           0       -6.464906   -5.025253   -5.687375
     26          6           0       -5.774693   -3.241114   -4.602057
     27          6           0       -5.940116   -3.503797   -7.166311
     28          1           0       -5.907332   -2.404955   -7.167085
     29          8           0       -6.238173   -2.187093   -4.150392
     30          6           0       -4.516184   -4.039169   -7.391541
     31          1           0       -4.497821   -5.136324   -7.358204
     32          1           0       -3.787863   -3.667206   -6.666720
     33          1           0       -4.164017   -3.740658   -8.383909
     34          6           0       -6.860312   -3.961925   -8.308252
     35          1           0       -6.966323   -5.052778   -8.320548
     36          1           0       -6.437316   -3.654317   -9.269910
     37          1           0       -7.859811   -3.521304   -8.234366
     38          7           0       -4.673364   -3.850942   -4.133426
     39          1           0       -4.274754   -4.643879   -4.629760
     40          6           0       -3.737258   -3.236834   -3.187744
     41          1           0       -4.009314   -2.180820   -3.096668
     42          6           0       -2.355143   -3.411042   -3.852792
     43          6           0       -3.795483   -3.912186   -1.787035
     44          1           0       -3.453381   -4.948060   -1.921637
     45          8           0       -2.133065   -4.421905   -4.517803
     46          6           0       -2.860663   -3.214525   -0.786103
     47          1           0       -3.166606   -2.171580   -0.626964
     48          1           0       -1.813497   -3.213718   -1.101905
     49          1           0       -2.911305   -3.717843    0.185087
     50          6           0       -5.232316   -3.940146   -1.246565
     51          1           0       -5.630772   -2.924654   -1.134132
     52          1           0       -5.903022   -4.497847   -1.907520
     53          1           0       -5.253924   -4.422364   -0.263283
     54          7           0       -1.468071   -2.396846   -3.691538
     55          1           0       -1.627920   -1.718285   -2.955173
     56          6           0       -0.093919   -2.487088   -4.164804
     57          1           0        0.036129   -3.496793   -4.565141
     58          6           0        0.852591   -2.238374   -2.983482
     59          6           0        0.160431   -1.464536   -5.307300
     60          1           0        1.154749   -1.640810   -5.728080
     61          1           0        0.139444   -0.444144   -4.904542
     62          8           0        0.425717   -1.815563   -1.897839
     63          8           0       -0.762689   -1.643468   -6.365017
     64          1           0       -1.601190   -1.253275   -6.076171
     65          7           0        2.158555   -2.454839   -3.238842
     66          1           0        2.414228   -3.017307   -4.045651
     67          6           0        3.215411   -2.376865   -2.225539
     68          1           0        2.855318   -2.866705   -1.309470
     69          6           0        3.575202   -0.906914   -1.888660
     70          6           0        4.466298   -3.113789   -2.777849
     71          1           0        4.944066   -2.446685   -3.498917
     72          8           0        4.613190   -0.387555   -2.300782
     73          6           0        5.461483   -3.480820   -1.684395
     74          1           0        5.852307   -2.594738   -1.175276
     75          1           0        4.997449   -4.136377   -0.933631
     76          1           0        6.307453   -4.014318   -2.128074
     77          8           0        4.064255   -4.255457   -3.543839
     78          1           0        3.860015   -4.977087   -2.926024
     79          7           0        2.706048   -0.259807   -1.074088
     80          1           0        1.816510   -0.722653   -0.899151
     81          6           0        2.828614    1.174694   -0.793592
     82          1           0        3.235775    1.645209   -1.699389
     83          6           0        3.835344    1.495042    0.344048
     84          6           0        1.463179    1.789765   -0.452546
     85          1           0        1.643005    2.831115   -0.171478
     86          1           0        1.079669    1.317742    0.460768
     87          8           0        3.614464    2.406624    1.148863
     88          6           0        0.388497    1.677922   -1.547729
     89          1           0       -0.512073    2.198750   -1.192776
     90          1           0        0.103989    0.637310   -1.718217
     91          6           0        0.736548    2.247560   -2.922030
     92          7           0        1.333827    3.473252   -2.932312
     93          1           0        1.496913    4.009400   -2.093530
     94          1           0        1.531517    3.903046   -3.825494
     95          8           0        0.471873    1.650297   -3.960053
     96          7           0        4.954038    0.738979    0.374500
     97          1           0        5.203652    0.169719   -0.432423
     98          6           0        5.973801    0.899939    1.405391
     99          1           0        5.464811    1.208983    2.324213
    100          6           0        6.970255    2.004636    0.995612
    101          6           0        6.707826   -0.439700    1.622914
    102          1           0        7.534414   -0.246198    2.321801
    103          8           0        8.106729    1.735546    0.580094
    104          6           0        5.804851   -1.520808    2.201480
    105          1           0        5.439531   -1.234113    3.193711
    106          1           0        4.940734   -1.698227    1.552893
    107          1           0        6.366954   -2.454700    2.293390
    108          8           0        7.220924   -0.909246    0.380387
    109          1           0        7.873815   -0.233176    0.109215
    110          7           0        6.499563    3.263739    1.105917
    111          1           0        5.531412    3.379686    1.398215
    112          6           0        7.249790    4.433510    0.630460
    113          1           0        7.857157    4.089953   -0.214122
    114          6           0        8.205337    4.943535    1.739824
    115          6           0        6.289015    5.532209    0.189433
    116          1           0        6.848249    6.379977   -0.214680
    117          1           0        5.610121    5.156695   -0.583214
    118          1           0        5.708625    5.902287    1.039508
    119          8           0        7.981817    5.975858    2.366181
    120          7           0        9.293207    4.158080    1.943723
    121          1           0        9.387355    3.271157    1.452056
    122          6           0       10.258546    4.449470    2.994947
    123          1           0       10.323102    5.538237    3.075035
    124          6           0       11.594761    3.843160    2.551715
    125          6           0        9.806324    3.852701    4.351665
    126          1           0        8.779248    4.199887    4.522132
    127          1           0        9.766550    2.762452    4.230182
    128          8           0       11.644077    2.737002    2.021893
    129          6           0       10.668423    4.204881    5.580916
    130          1           0       11.710804    3.925699    5.371382
    131          6           0       10.636274    5.706410    5.908799
    132          1           0        9.610378    6.042281    6.105259
    133          1           0       11.029981    6.325568    5.094139
    134          1           0       11.236926    5.922551    6.799819
    135          6           0       10.202418    3.383126    6.792923
    136          1           0        9.160732    3.617117    7.048496
    137          1           0       10.816612    3.597653    7.675218
    138          1           0       10.264469    2.306841    6.593666
    139          7           0       12.702968    4.593574    2.804128
    140          1           0       12.607077    5.482751    3.273750
    141          6           0       14.042130    4.089857    2.538561
    142          1           0       13.960233    2.997406    2.520801
    143          6           0       15.027493    4.437209    3.647658
    144          6           0       14.594158    4.550792    1.177753
    145          1           0       15.597281    4.145082    1.023892
    146          1           0       13.934157    4.191667    0.383864
    147          1           0       14.645425    5.643820    1.124155
    148          8           0       16.174209    4.127224    3.632706
    149          8           0       14.478862    5.155104    4.656717
    150          1           0       15.201116    5.322455    5.292471
 ---------------------------------------------------------------------

 SCF Done:  E(RB3LYP) =  -3455.48728982     A.U. after    1 cycles

 Alpha  occ. eigenvalues --  -19.27085 -19.23867 -19.22048 -19.21527 -19.20441
 Alpha  occ. eigenvalues --  -19.20395 -19.20009 -19.18255 -19.17798 -19.17741
 Alpha  occ. eigenvalues --  -19.17330 -19.16987 -19.16956 -19.14775 -19.13940
 Alpha  occ. eigenvalues --  -14.60308 -14.49724 -14.45796 -14.44267 -14.43882
 Alpha  occ. eigenvalues --  -14.42190 -14.41527 -14.40849 -14.40537 -14.39844
 Alpha  occ. eigenvalues --  -14.37981 -10.43859 -10.41046 -10.39182 -10.37180
 Alpha  occ. eigenvalues --  -10.36998 -10.35805 -10.35319 -10.34765 -10.34477
 Alpha  occ. eigenvalues --  -10.34294 -10.33822 -10.33497 -10.31978 -10.31894
 Alpha  occ. eigenvalues --  -10.31245 -10.31095 -10.30264 -10.30255 -10.30054
 Alpha  occ. eigenvalues --  -10.29623 -10.29541 -10.29187 -10.28578 -10.28138
 Alpha  occ. eigenvalues --  -10.27785 -10.27780 -10.27703 -10.27568 -10.27001
 Alpha  occ. eigenvalues --  -10.26601 -10.26020 -10.25902 -10.25664 -10.25321
 Alpha  occ. eigenvalues --  -10.25177 -10.24830 -10.22778 -10.21859 -10.21846
 Alpha  occ. eigenvalues --  -10.21765 -10.21549 -10.21231 -10.20216 -10.20075
 Alpha  occ. eigenvalues --   -1.19544  -1.15179  -1.14299  -1.13773  -1.12294
 Alpha  occ. eigenvalues --   -1.11567  -1.10238  -1.09168  -1.08737  -1.08711
 Alpha  occ. eigenvalues --   -1.08305  -1.07873  -1.06967  -1.06270  -1.06262
 Alpha  occ. eigenvalues --   -1.05673  -1.05217  -1.02225  -1.00415  -1.00085
 Alpha  occ. eigenvalues --   -0.98795  -0.97496  -0.96485  -0.96250  -0.96073
 Alpha  occ. eigenvalues --   -0.95041  -0.94551  -0.91015  -0.88703  -0.88249
 Alpha  occ. eigenvalues --   -0.86222  -0.84805  -0.84005  -0.83119  -0.82647
 Alpha  occ. eigenvalues --   -0.82314  -0.81331  -0.80449  -0.80436  -0.79113
 Alpha  occ. eigenvalues --   -0.78848  -0.78346  -0.77136  -0.76795  -0.76064
 Alpha  occ. eigenvalues --   -0.75870  -0.75060  -0.74254  -0.73395  -0.72181
 Alpha  occ. eigenvalues --   -0.71223  -0.71128  -0.70967  -0.70043  -0.69566
 Alpha  occ. eigenvalues --   -0.68764  -0.68423  -0.68312  -0.67414  -0.67316
 Alpha  occ. eigenvalues --   -0.67074  -0.66397  -0.65920  -0.64787  -0.64738
 Alpha  occ. eigenvalues --   -0.64591  -0.64254  -0.63653  -0.63461  -0.63387
 Alpha  occ. eigenvalues --   -0.62550  -0.62214  -0.62206  -0.60664  -0.60163
 Alpha  occ. eigenvalues --   -0.59948  -0.59567  -0.59083  -0.58980  -0.58648
 Alpha  occ. eigenvalues --   -0.58341  -0.57835  -0.57379  -0.57097  -0.56678
 Alpha  occ. eigenvalues --   -0.56307  -0.56002  -0.55696  -0.55558  -0.54983
 Alpha  occ. eigenvalues --   -0.54942  -0.54702  -0.54359  -0.54074  -0.53642
 Alpha  occ. eigenvalues --   -0.53522  -0.52748  -0.52504  -0.52347  -0.52030
 Alpha  occ. eigenvalues --   -0.51914  -0.51677  -0.51341  -0.51135  -0.51047
 Alpha  occ. eigenvalues --   -0.50807  -0.50714  -0.50574  -0.50361  -0.50029
 Alpha  occ. eigenvalues --   -0.49801  -0.49634  -0.49402  -0.49245  -0.49025
 Alpha  occ. eigenvalues --   -0.48685  -0.48459  -0.48266  -0.48152  -0.47916
 Alpha  occ. eigenvalues --   -0.47802  -0.47664  -0.47633  -0.47433  -0.46825
 Alpha  occ. eigenvalues --   -0.46738  -0.46619  -0.46554  -0.46378  -0.46277
 Alpha  occ. eigenvalues --   -0.46210  -0.45750  -0.45572  -0.45460  -0.45104
 Alpha  occ. eigenvalues --   -0.45033  -0.44946  -0.44622  -0.44567  -0.44472
 Alpha  occ. eigenvalues --   -0.44426  -0.44338  -0.44258  -0.43854  -0.43554
 Alpha  occ. eigenvalues --   -0.43040  -0.42947  -0.42911  -0.42762  -0.42645
 Alpha  occ. eigenvalues --   -0.42520  -0.42320  -0.42181  -0.42073  -0.41575
 Alpha  occ. eigenvalues --   -0.41547  -0.41496  -0.41434  -0.41323  -0.41243
 Alpha  occ. eigenvalues --   -0.41035  -0.41030  -0.40799  -0.40781  -0.40505
 Alpha  occ. eigenvalues --   -0.40284  -0.39972  -0.39463  -0.39203  -0.38997
 Alpha  occ. eigenvalues --   -0.38963  -0.38604  -0.38269  -0.37086  -0.36218
 Alpha  occ. eigenvalues --   -0.36212  -0.35874  -0.35856  -0.35483  -0.35308
 Alpha  occ. eigenvalues --   -0.35136  -0.34868  -0.34619  -0.34042  -0.33571
 Alpha  occ. eigenvalues --   -0.33322  -0.33206  -0.32557  -0.32242  -0.32142
 Alpha  occ. eigenvalues --   -0.31548  -0.31079  -0.31023  -0.30592  -0.29840
 Alpha  occ. eigenvalues --   -0.29117  -0.28712  -0.28659  -0.27140  -0.26936
 Alpha virt. eigenvalues --   -0.12643  -0.11394  -0.08156  -0.06840  -0.06220
 Alpha virt. eigenvalues --   -0.05974  -0.05353  -0.05217  -0.04097  -0.03128
 Alpha virt. eigenvalues --   -0.02466  -0.02352  -0.02185  -0.01311  -0.01260

 Mulliken charges:
               1
     1  N   -0.757157
     2  H    0.416431
     3  H    0.412339
     4  H    0.434337
     5  C   -0.117058
     6  H    0.214075
     7  C    0.650056
     8  C   -0.287021
     9  H    0.175578
    10  H    0.160365
    11  O   -0.541876
    12  C   -0.109197
    13  H    0.167716
    14  C   -0.460700
    15  H    0.155829
    16  H    0.136188
    17  H    0.187968
    18  C   -0.451804
    19  H    0.155217
    20  H    0.157681
    21  H    0.175456
    22  N   -0.598436
    23  H    0.380684
    24  C   -0.075271
    25  H    0.187543
    26  C    0.628848
    27  C   -0.078330
    28  H    0.148231
    29  O   -0.552121
    30  C   -0.478111
    31  H    0.155151
    32  H    0.175959
    33  H    0.174369
    34  C   -0.446595
    35  H    0.164143
    36  H    0.171054
    37  H    0.125020
    38  N   -0.601844
    39  H    0.364523
    40  C   -0.062912
    41  H    0.175594
    42  C    0.615064
    43  C   -0.074588
    44  H    0.148032
    45  O   -0.529679
    46  C   -0.479363
    47  H    0.143865
    48  H    0.175911
    49  H    0.162313
    50  C   -0.446721
    51  H    0.153044
    52  H    0.137826
    53  H    0.157665
    54  N   -0.604688
    55  H    0.354051
    56  C   -0.096433
    57  H    0.202909
    58  C    0.638883
    59  C   -0.068099
    60  H    0.157565
    61  H    0.199333
    62  O   -0.561421
    63  O   -0.602991
    64  H    0.394087
    65  N   -0.605969
    66  H    0.365689
    67  C   -0.076438
    68  H    0.162933
    69  C    0.632861
    70  C    0.111701
    71  H    0.190168
    72  O   -0.531020
    73  C   -0.501732
    74  H    0.211033
    75  H    0.130979
    76  H    0.176438
    77  O   -0.632914
    78  H    0.395673
    79  N   -0.619402
    80  H    0.374243
    81  C   -0.054071
    82  H    0.198239
    83  C    0.628527
    84  C   -0.311655
    85  H    0.172069
    86  H    0.163194
    87  O   -0.550781
    88  C   -0.384227
    89  H    0.167675
    90  H    0.181276
    91  C    0.586596
    92  N   -0.738074
    93  H    0.346092
    94  H    0.351443
    95  O   -0.508664
    96  N   -0.617556
    97  H    0.387532
    98  C   -0.080807
    99  H    0.177087
   100  C    0.635691
   101  C    0.127522
   102  H    0.144482
   103  O   -0.557833
   104  C   -0.453974
   105  H    0.146728
   106  H    0.144722
   107  H    0.166898
   108  O   -0.646740
   109  H    0.424965
   110  N   -0.608627
   111  H    0.370145
   112  C   -0.055937
   113  H    0.178251
   114  C    0.625033
   115  C   -0.460898
   116  H    0.171822
   117  H    0.139545
   118  H    0.175045
   119  O   -0.532875
   120  N   -0.630763
   121  H    0.378454
   122  C   -0.046117
   123  H    0.166281
   124  C    0.615417
   125  C   -0.256148
   126  H    0.154272
   127  H    0.144575
   128  O   -0.531217
   129  C   -0.086938
   130  H    0.134199
   131  C   -0.442941
   132  H    0.152636
   133  H    0.131911
   134  H    0.143786
   135  C   -0.443425
   136  H    0.140988
   137  H    0.143151
   138  H    0.143532
   139  N   -0.607842
   140  H    0.346582
   141  C   -0.054737
   142  H    0.216148
   143  C    0.587214
   144  C   -0.443944
   145  H    0.180654
   146  H    0.176396
   147  H    0.150083
   148  O   -0.440355
   149  O   -0.579136
   150  H    0.416690
 Sum of Mulliken charges =   1.00000

 Dipole moment (field-independent basis, Debye):
    X=            -41.2303    Y=            -14.3887    Z=            -18.6325  Tot=             47.4778
 Quadrupole moment (field-independent basis, Debye-Ang):
   XX=             58.7015   YY=           -323.4970   ZZ=           -291.9767
   XY=            197.7409   XZ=            256.0367   YZ=             82.2251

 Normal termination of Gaussian 16 at Tue Jul 12 00:10:34 2022.
