 Gaussian 16, Revision C.01,
 Gaussian 16:  ES64L-G16RevC.01  3-Jul-2019

 -------------------------------------------------------------------
 # B3LYP/6-31G* guess=read geom=check nosymm integral(ultrafinegrid)
 -------------------------------------------------------------------

 ------------------------------------------------------
 Candidate Structure: Conf:242 Charge calc in gas phase
 ------------------------------------------------------
 Structure from the checkpoint file:  "conf-242.chk"
 Charge =  1 Multiplicity = 1

                          Input orientation:
 ---------------------------------------------------------------------
 Center     Atomic      Atomic             Coordinates (Angstroms)
 Number     Number       Type             X           Y           Z
 ---------------------------------------------------------------------
      1          7           0      -11.611555   -1.902749   -8.421990
      2          1           0      -11.817861   -1.160962   -9.097349
      3          1           0      -12.487038   -2.369173   -8.168660
      4          1           0      -10.918745   -2.583771   -8.862094
      5          6           0      -10.826002   -1.415947   -7.214652
      6          1           0      -10.929496   -0.330766   -7.160556
      7          6           0       -9.376509   -1.840121   -7.589986
      8          6           0      -11.375499   -2.099371   -5.946797
      9          1           0      -11.218711   -3.182090   -6.045581
     10          1           0      -12.462424   -1.927970   -5.922959
     11          8           0       -9.254233   -2.689666   -8.488439
     12          6           0      -10.790892   -1.614976   -4.599484
     13          1           0       -9.709889   -1.800706   -4.593859
     14          6           0      -11.027973   -0.115384   -4.361547
     15          1           0      -12.098866    0.124712   -4.375334
     16          1           0      -10.530585    0.524338   -5.102000
     17          1           0      -10.635085    0.177258   -3.383371
     18          6           0      -11.407334   -2.450023   -3.465755
     19          1           0      -12.492351   -2.298826   -3.404678
     20          1           0      -11.221000   -3.520802   -3.605601
     21          1           0      -10.976673   -2.159704   -2.502612
     22          7           0       -8.386500   -1.258272   -6.925800
     23          1           0       -8.567356   -0.664591   -6.114750
     24          6           0       -6.973545   -1.655979   -6.996866
     25          1           0       -6.927201   -2.660335   -7.428936
     26          6           0       -6.531527   -1.655381   -5.511801
     27          6           0       -6.135311   -0.671744   -7.868903
     28          1           0       -6.107980    0.285854   -7.329918
     29          8           0       -7.119802   -0.911926   -4.716951
     30          6           0       -4.693858   -1.173634   -8.054266
     31          1           0       -4.678306   -2.140794   -8.573381
     32          1           0       -4.149576   -1.285814   -7.113219
     33          1           0       -4.134332   -0.464980   -8.673264
     34          6           0       -6.790911   -0.438892   -9.238720
     35          1           0       -6.891559   -1.377028   -9.796495
     36          1           0       -6.173762    0.241965   -9.833835
     37          1           0       -7.783389    0.014089   -9.147911
     38          7           0       -5.535399   -2.490066   -5.177721
     39          1           0       -5.009435   -2.985747   -5.893305
     40          6           0       -4.871513   -2.494865   -3.872749
     41          1           0       -5.145532   -1.569175   -3.357114
     42          6           0       -3.364560   -2.528412   -4.202872
     43          6           0       -5.300644   -3.718250   -3.005371
     44          1           0       -4.933000   -4.616423   -3.521759
     45          8           0       -2.977941   -3.076935   -5.240301
     46          6           0       -4.676437   -3.671745   -1.601393
     47          1           0       -4.997366   -2.773253   -1.057751
     48          1           0       -3.583629   -3.683938   -1.617188
     49          1           0       -5.005340   -4.538995   -1.019539
     50          6           0       -6.830101   -3.812892   -2.900452
     51          1           0       -7.248986   -2.915807   -2.429658
     52          1           0       -7.297828   -3.932728   -3.882629
     53          1           0       -7.109090   -4.678396   -2.289790
     54          7           0       -2.536558   -1.945261   -3.317365
     55          1           0       -2.872524   -1.567928   -2.436511
     56          6           0       -1.090842   -2.055801   -3.405903
     57          1           0       -0.843332   -3.030319   -3.843714
     58          6           0       -0.558872   -1.987779   -1.959601
     59          6           0       -0.477572   -0.972063   -4.302469
     60          1           0       -0.942538   -1.049631   -5.295330
     61          1           0        0.599936   -1.170138   -4.420054
     62          8           0       -1.319929   -1.731148   -1.019640
     63          8           0       -0.719974    0.282744   -3.691418
     64          1           0       -0.341726    0.975139   -4.253872
     65          7           0        0.756233   -2.220736   -1.809504
     66          1           0        1.352875   -2.475039   -2.589409
     67          6           0        1.431792   -2.148570   -0.523660
     68          1           0        0.988128   -1.321658    0.042758
     69          6           0        2.908071   -1.863639   -0.841070
     70          6           0        1.261081   -3.469848    0.305582
     71          1           0        1.912800   -4.231764   -0.140009
     72          8           0        3.391650   -2.286485   -1.899504
     73          6           0        1.622646   -3.276625    1.780563
     74          1           0        2.666277   -2.982240    1.932314
     75          1           0        0.980530   -2.512572    2.237869
     76          1           0        1.452035   -4.216553    2.312936
     77          8           0       -0.052191   -3.980939    0.165459
     78          1           0       -0.678690   -3.240577    0.261215
     79          7           0        3.589465   -1.157904    0.080018
     80          1           0        3.152151   -0.934402    0.970473
     81          6           0        5.036721   -0.959200    0.090522
     82          1           0        5.495715   -1.758629   -0.501015
     83          6           0        5.470396   -1.079047    1.565444
     84          6           0        5.450570    0.418323   -0.482975
     85          1           0        6.505398    0.601438   -0.250928
     86          1           0        4.866459    1.189559    0.033056
     87          8           0        4.631337   -0.966700    2.470653
     88          6           0        5.263052    0.537324   -2.005548
     89          1           0        5.417082    1.582044   -2.292882
     90          1           0        4.247754    0.251812   -2.297709
     91          6           0        6.324313   -0.281002   -2.748381
     92          7           0        5.875625   -1.434011   -3.325439
     93          1           0        4.983795   -1.831802   -3.046211
     94          1           0        6.577090   -2.048217   -3.718601
     95          8           0        7.490361    0.088372   -2.795759
     96          7           0        6.785883   -1.263870    1.776361
     97          1           0        7.369386   -1.553604    0.996798
     98          6           0        7.368263   -1.553409    3.093296
     99          1           0        6.671148   -2.212192    3.630699
    100          6           0        7.566012   -0.275973    3.955383
    101          6           0        8.729632   -2.267689    2.878742
    102          1           0        9.472193   -1.500455    2.647655
    103          8           0        8.679372    0.082569    4.330423
    104          6           0        9.168989   -3.045006    4.113019
    105          1           0        9.253229   -2.379198    4.975341
    106          1           0        8.446278   -3.836484    4.356683
    107          1           0       10.142769   -3.509672    3.931661
    108          8           0        8.685081   -3.098849    1.712610
    109          1           0        8.215371   -3.916647    1.946618
    110          7           0        6.428740    0.390851    4.263435
    111          1           0        5.541221   -0.031528    4.005702
    112          6           0        6.450794    1.493995    5.208708
    113          1           0        7.211113    2.209506    4.876452
    114          6           0        6.829119    0.976346    6.616749
    115          6           0        5.074899    2.168696    5.253038
    116          1           0        5.090481    3.024661    5.934415
    117          1           0        4.787290    2.523968    4.258052
    118          1           0        4.316696    1.463121    5.610605
    119          8           0        6.447421   -0.118404    7.018620
    120          7           0        7.570260    1.843609    7.351625
    121          1           0        7.761600    2.777536    7.006991
    122          6           0        7.913535    1.628139    8.745682
    123          1           0        7.265574    0.829217    9.117991
    124          6           0        7.633403    2.944061    9.489478
    125          6           0        9.403325    1.243434    8.934081
    126          1           0       10.008592    2.085707    8.572209
    127          1           0        9.604416    1.157720   10.012216
    128          8           0        7.659966    4.026102    8.905590
    129          6           0        9.854920   -0.049723    8.228052
    130          1           0        9.598982    0.041547    7.163884
    131          6           0       11.381869   -0.185553    8.336474
    132          1           0       11.698843   -0.276789    9.384010
    133          1           0       11.894903    0.682768    7.906265
    134          1           0       11.733395   -1.077914    7.805907
    135          6           0        9.152588   -1.297407    8.785123
    136          1           0        9.326347   -1.399396    9.865584
    137          1           0        9.543658   -2.202924    8.305585
    138          1           0        8.074546   -1.269447    8.600733
    139          7           0        7.404622    2.829389   10.823631
    140          1           0        7.416117    1.918698   11.261198
    141          6           0        7.255207    4.001469   11.676783
    142          1           0        7.890980    4.788897   11.257616
    143          6           0        7.751715    3.746991   13.094429
    144          6           0        5.808669    4.528860   11.715737
    145          1           0        5.749359    5.410117   12.359907
    146          1           0        5.504444    4.802313   10.702429
    147          1           0        5.123695    3.764098   12.097421
    148          8           0        7.800200    4.597354   13.950846
    149          8           0        8.108622    2.455735   13.317189
    150          1           0        8.388379    2.406073   14.251155
 ---------------------------------------------------------------------

 SCF Done:  E(RB3LYP) =  -3455.48253493     A.U. after    1 cycles

 Alpha  occ. eigenvalues --  -19.26958 -19.24574 -19.21779 -19.21766 -19.20229
 Alpha  occ. eigenvalues --  -19.19837 -19.19592 -19.19422 -19.19254 -19.18979
 Alpha  occ. eigenvalues --  -19.18166 -19.15566 -19.15524 -19.14243 -19.14203
 Alpha  occ. eigenvalues --  -14.60201 -14.49546 -14.45489 -14.43588 -14.43553
 Alpha  occ. eigenvalues --  -14.43312 -14.42681 -14.40258 -14.39112 -14.38852
 Alpha  occ. eigenvalues --  -14.38464 -10.43720 -10.40905 -10.38931 -10.36863
 Alpha  occ. eigenvalues --  -10.36701 -10.36593 -10.36550 -10.35920 -10.34353
 Alpha  occ. eigenvalues --  -10.33656 -10.32646 -10.32577 -10.32097 -10.31527
 Alpha  occ. eigenvalues --  -10.31488 -10.31078 -10.31043 -10.31029 -10.30465
 Alpha  occ. eigenvalues --  -10.30393 -10.30037 -10.29540 -10.28722 -10.28440
 Alpha  occ. eigenvalues --  -10.28363 -10.28180 -10.27568 -10.27374 -10.27051
 Alpha  occ. eigenvalues --  -10.26638 -10.26544 -10.26140 -10.25264 -10.24852
 Alpha  occ. eigenvalues --  -10.24357 -10.23853 -10.22969 -10.22714 -10.21920
 Alpha  occ. eigenvalues --  -10.21853 -10.21658 -10.20964 -10.19418 -10.18973
 Alpha  occ. eigenvalues --   -1.19408  -1.15156  -1.14135  -1.13563  -1.12079
 Alpha  occ. eigenvalues --   -1.11596  -1.10980  -1.10605  -1.09142  -1.07788
 Alpha  occ. eigenvalues --   -1.07574  -1.07202  -1.06794  -1.06104  -1.06095
 Alpha  occ. eigenvalues --   -1.06039  -1.05856  -1.01937  -1.00158  -1.00071
 Alpha  occ. eigenvalues --   -0.99641  -0.98884  -0.96776  -0.95888  -0.95438
 Alpha  occ. eigenvalues --   -0.94875  -0.93334  -0.90931  -0.88437  -0.88070
 Alpha  occ. eigenvalues --   -0.86572  -0.84812  -0.83901  -0.82984  -0.82787
 Alpha  occ. eigenvalues --   -0.82419  -0.81692  -0.80687  -0.80299  -0.78931
 Alpha  occ. eigenvalues --   -0.78747  -0.78252  -0.77267  -0.76966  -0.76705
 Alpha  occ. eigenvalues --   -0.75480  -0.74612  -0.74133  -0.73271  -0.72523
 Alpha  occ. eigenvalues --   -0.71692  -0.71659  -0.70142  -0.69758  -0.69227
 Alpha  occ. eigenvalues --   -0.68523  -0.68251  -0.68207  -0.67538  -0.67307
 Alpha  occ. eigenvalues --   -0.66683  -0.66504  -0.66106  -0.65923  -0.65346
 Alpha  occ. eigenvalues --   -0.65010  -0.64585  -0.64293  -0.63368  -0.63188
 Alpha  occ. eigenvalues --   -0.62886  -0.61838  -0.61343  -0.61233  -0.60378
 Alpha  occ. eigenvalues --   -0.59718  -0.59639  -0.59107  -0.58991  -0.58565
 Alpha  occ. eigenvalues --   -0.57744  -0.57617  -0.57069  -0.56636  -0.56372
 Alpha  occ. eigenvalues --   -0.56300  -0.55848  -0.55467  -0.55063  -0.54932
 Alpha  occ. eigenvalues --   -0.54618  -0.54377  -0.54313  -0.53877  -0.53577
 Alpha  occ. eigenvalues --   -0.53179  -0.53045  -0.52650  -0.52355  -0.52224
 Alpha  occ. eigenvalues --   -0.51898  -0.51643  -0.51482  -0.51330  -0.51127
 Alpha  occ. eigenvalues --   -0.51008  -0.50627  -0.50552  -0.50323  -0.50131
 Alpha  occ. eigenvalues --   -0.49960  -0.49737  -0.49356  -0.49274  -0.49201
 Alpha  occ. eigenvalues --   -0.48796  -0.48599  -0.48457  -0.48136  -0.47952
 Alpha  occ. eigenvalues --   -0.47881  -0.47851  -0.47593  -0.47256  -0.46973
 Alpha  occ. eigenvalues --   -0.46887  -0.46684  -0.46478  -0.46326  -0.46203
 Alpha  occ. eigenvalues --   -0.45943  -0.45587  -0.45535  -0.45222  -0.45138
 Alpha  occ. eigenvalues --   -0.45071  -0.44906  -0.44729  -0.44484  -0.44332
 Alpha  occ. eigenvalues --   -0.44261  -0.44231  -0.44119  -0.44060  -0.43870
 Alpha  occ. eigenvalues --   -0.43352  -0.43117  -0.43100  -0.42848  -0.42805
 Alpha  occ. eigenvalues --   -0.42600  -0.42398  -0.42254  -0.41937  -0.41758
 Alpha  occ. eigenvalues --   -0.41465  -0.41446  -0.41310  -0.41265  -0.41188
 Alpha  occ. eigenvalues --   -0.41165  -0.41076  -0.40775  -0.40643  -0.40574
 Alpha  occ. eigenvalues --   -0.40324  -0.39980  -0.39770  -0.39623  -0.38997
 Alpha  occ. eigenvalues --   -0.38872  -0.38728  -0.37981  -0.37208  -0.36225
 Alpha  occ. eigenvalues --   -0.35962  -0.35264  -0.35144  -0.34808  -0.34579
 Alpha  occ. eigenvalues --   -0.34531  -0.34469  -0.34023  -0.33740  -0.33652
 Alpha  occ. eigenvalues --   -0.33195  -0.33048  -0.32693  -0.32550  -0.32408
 Alpha  occ. eigenvalues --   -0.32324  -0.31220  -0.30165  -0.29994  -0.29581
 Alpha  occ. eigenvalues --   -0.29416  -0.28622  -0.27959  -0.27770  -0.27534
 Alpha virt. eigenvalues --   -0.12520  -0.11286  -0.07799  -0.06728  -0.06157
 Alpha virt. eigenvalues --   -0.05718  -0.05191  -0.05010  -0.04411  -0.03441
 Alpha virt. eigenvalues --   -0.02402  -0.02257  -0.01331  -0.01169  -0.00843

 Mulliken charges:
               1
     1  N   -0.756850
     2  H    0.416043
     3  H    0.412221
     4  H    0.433917
     5  C   -0.117270
     6  H    0.213739
     7  C    0.649690
     8  C   -0.286920
     9  H    0.175548
    10  H    0.159854
    11  O   -0.542585
    12  C   -0.109897
    13  H    0.168998
    14  C   -0.460470
    15  H    0.155138
    16  H    0.135917
    17  H    0.188775
    18  C   -0.451905
    19  H    0.154607
    20  H    0.157658
    21  H    0.176265
    22  N   -0.599133
    23  H    0.381507
    24  C   -0.074105
    25  H    0.187025
    26  C    0.631596
    27  C   -0.077740
    28  H    0.150294
    29  O   -0.552523
    30  C   -0.477257
    31  H    0.155839
    32  H    0.173138
    33  H    0.167732
    34  C   -0.447037
    35  H    0.164124
    36  H    0.168705
    37  H    0.126797
    38  N   -0.602851
    39  H    0.363515
    40  C   -0.063265
    41  H    0.181189
    42  C    0.625559
    43  C   -0.074648
    44  H    0.146614
    45  O   -0.553827
    46  C   -0.471407
    47  H    0.149301
    48  H    0.170189
    49  H    0.163057
    50  C   -0.447303
    51  H    0.155699
    52  H    0.134569
    53  H    0.156832
    54  N   -0.594734
    55  H    0.368143
    56  C   -0.080337
    57  H    0.196220
    58  C    0.665954
    59  C   -0.032646
    60  H    0.158577
    61  H    0.133380
    62  O   -0.567222
    63  O   -0.611098
    64  H    0.406698
    65  N   -0.605796
    66  H    0.356630
    67  C   -0.091092
    68  H    0.175956
    69  C    0.626366
    70  C    0.163361
    71  H    0.146205
    72  O   -0.560621
    73  C   -0.478788
    74  H    0.156245
    75  H    0.146834
    76  H    0.175839
    77  O   -0.634607
    78  H    0.410663
    79  N   -0.598136
    80  H    0.365017
    81  C   -0.079275
    82  H    0.181306
    83  C    0.630521
    84  C   -0.265255
    85  H    0.184500
    86  H    0.153820
    87  O   -0.560959
    88  C   -0.344910
    89  H    0.177094
    90  H    0.147345
    91  C    0.554021
    92  N   -0.766032
    93  H    0.379697
    94  H    0.333791
    95  O   -0.503330
    96  N   -0.604583
    97  H    0.365262
    98  C   -0.092297
    99  H    0.174332
   100  C    0.651873
   101  C    0.116134
   102  H    0.185859
   103  O   -0.528215
   104  C   -0.484640
   105  H    0.196277
   106  H    0.133571
   107  H    0.170389
   108  O   -0.632959
   109  H    0.391971
   110  N   -0.615601
   111  H    0.373208
   112  C   -0.036119
   113  H    0.164855
   114  C    0.637954
   115  C   -0.477815
   116  H    0.169848
   117  H    0.160609
   118  H    0.170080
   119  O   -0.539728
   120  N   -0.593976
   121  H    0.345548
   122  C   -0.077358
   123  H    0.175766
   124  C    0.625043
   125  C   -0.251358
   126  H    0.144903
   127  H    0.130018
   128  O   -0.538797
   129  C   -0.078651
   130  H    0.162604
   131  C   -0.442994
   132  H    0.135638
   133  H    0.143368
   134  H    0.142849
   135  C   -0.467222
   136  H    0.124500
   137  H    0.138009
   138  H    0.179092
   139  N   -0.614664
   140  H    0.350979
   141  C   -0.041340
   142  H    0.211596
   143  C    0.589020
   144  C   -0.446299
   145  H    0.180079
   146  H    0.180137
   147  H    0.151215
   148  O   -0.451072
   149  O   -0.581852
   150  H    0.420949
 Sum of Mulliken charges =   1.00000

 Dipole moment (field-independent basis, Debye):
    X=            -42.6782    Y=             -8.8772    Z=            -27.0216  Tot=             51.2874
 Quadrupole moment (field-independent basis, Debye-Ang):
   XX=             69.0477   YY=           -408.8701   ZZ=           -127.0502
   XY=             39.3618   XZ=            370.9052   YZ=             24.5247

 Normal termination of Gaussian 16 at Tue Jul 12 00:10:29 2022.
