 Gaussian 16, Revision C.01,
 Gaussian 16:  ES64L-G16RevC.01  3-Jul-2019

 -------------------------------------------------------------------
 # B3LYP/6-31G* guess=read geom=check nosymm integral(ultrafinegrid)
 -------------------------------------------------------------------

 ------------------------------------------------------
 Candidate Structure: Conf:126 Charge calc in gas phase
 ------------------------------------------------------
 Structure from the checkpoint file:  "conf-126.chk"
 Charge =  1 Multiplicity = 1

                          Input orientation:
 ---------------------------------------------------------------------
 Center     Atomic      Atomic             Coordinates (Angstroms)
 Number     Number       Type             X           Y           Z
 ---------------------------------------------------------------------
      1          7           0      -10.733552   -5.641212   -5.662339
      2          1           0      -11.036464   -5.849865   -6.617487
      3          1           0      -11.537241   -5.749682   -5.037317
      4          1           0       -9.936854   -6.301455   -5.394531
      5          6           0      -10.057919   -4.289139   -5.524522
      6          1           0      -10.211082   -3.740983   -6.456260
      7          6           0       -8.562373   -4.683235   -5.350792
      8          6           0      -10.612479   -3.515215   -4.318712
      9          1           0       -9.996008   -2.615466   -4.200255
     10          1           0      -10.440642   -4.116943   -3.414871
     11          8           0       -8.307241   -5.884767   -5.169403
     12          6           0      -12.097714   -3.097428   -4.406381
     13          1           0      -12.716851   -4.002761   -4.536952
     14          6           0      -12.521399   -2.452566   -3.077147
     15          1           0      -11.951540   -1.534579   -2.890460
     16          1           0      -12.360213   -3.128167   -2.229650
     17          1           0      -13.582843   -2.187311   -3.098385
     18          6           0      -12.375969   -2.157295   -5.588775
     19          1           0      -11.779445   -1.240524   -5.507335
     20          1           0      -12.158393   -2.614244   -6.562313
     21          1           0      -13.430279   -1.864374   -5.603474
     22          7           0       -7.684055   -3.690978   -5.405358
     23          1           0       -7.984567   -2.714885   -5.431379
     24          6           0       -6.254875   -3.798757   -5.082611
     25          1           0       -6.108738   -4.708294   -4.491413
     26          6           0       -5.991396   -2.525023   -4.241189
     27          6           0       -5.368219   -3.858865   -6.364020
     28          1           0       -5.458303   -2.880866   -6.857609
     29          8           0       -6.696154   -1.528438   -4.432497
     30          6           0       -3.890491   -4.099871   -6.014128
     31          1           0       -3.759602   -5.058983   -5.496375
     32          1           0       -3.459774   -3.314835   -5.387385
     33          1           0       -3.297260   -4.145131   -6.932880
     34          6           0       -5.861953   -4.940772   -7.336516
     35          1           0       -5.842570   -5.933110   -6.871760
     36          1           0       -5.213400   -4.969233   -8.218010
     37          1           0       -6.880823   -4.746227   -7.686239
     38          7           0       -5.008529   -2.596106   -3.326344
     39          1           0       -4.382987   -3.396779   -3.303136
     40          6           0       -4.507664   -1.442037   -2.578593
     41          1           0       -4.906950   -0.541335   -3.055281
     42          6           0       -2.975213   -1.512600   -2.718261
     43          6           0       -4.957627   -1.478184   -1.086273
     44          1           0       -4.522533   -2.387092   -0.646926
     45          8           0       -2.417109   -2.609854   -2.829990
     46          6           0       -4.440527   -0.262867   -0.299166
     47          1           0       -4.802219    0.676622   -0.738294
     48          1           0       -3.348706   -0.218998   -0.249236
     49          1           0       -4.811924   -0.301345    0.730023
     50          6           0       -6.486663   -1.571277   -0.979082
     51          1           0       -6.968403   -0.698168   -1.434598
     52          1           0       -6.873629   -2.468127   -1.472088
     53          1           0       -6.785787   -1.612703    0.073747
     54          7           0       -2.305385   -0.342855   -2.722276
     55          1           0       -2.771826    0.541043   -2.544939
     56          6           0       -0.845989   -0.267245   -2.755478
     57          1           0       -0.479260   -1.011643   -3.468739
     58          6           0       -0.273417   -0.552526   -1.351620
     59          6           0       -0.463767    1.152885   -3.204309
     60          1           0       -0.785590    1.305185   -4.239116
     61          1           0        0.628108    1.268650   -3.162674
     62          8           0       -0.167746    0.357302   -0.507976
     63          8           0       -1.138824    2.120334   -2.415874
     64          1           0       -0.840141    1.943992   -1.500416
     65          7           0        0.071710   -1.824560   -1.104622
     66          1           0       -0.047507   -2.543632   -1.812676
     67          6           0        0.584638   -2.284474    0.184551
     68          1           0        0.070711   -1.728337    0.975696
     69          6           0        2.102605   -2.008216    0.257264
     70          6           0        0.308000   -3.802014    0.311839
     71          1           0        0.836954   -4.151354    1.210929
     72          8           0        2.925949   -2.863054   -0.096967
     73          6           0       -1.174673   -4.128817    0.444283
     74          1           0       -1.599671   -3.661468    1.339723
     75          1           0       -1.732035   -3.788864   -0.434930
     76          1           0       -1.296936   -5.212727    0.526187
     77          8           0        0.798959   -4.462704   -0.845734
     78          1           0        1.764022   -4.295292   -0.839435
     79          7           0        2.448280   -0.787509    0.712205
     80          1           0        1.701548   -0.136045    0.925499
     81          6           0        3.839120   -0.306818    0.731206
     82          1           0        4.335165   -0.726521   -0.147162
     83          6           0        4.556164   -0.809442    2.008796
     84          6           0        3.895868    1.224264    0.674003
     85          1           0        4.952775    1.505809    0.672347
     86          1           0        3.480199    1.625975    1.604181
     87          8           0        4.755732   -0.070700    2.975029
     88          6           0        3.194880    1.872958   -0.524328
     89          1           0        3.198739    2.962888   -0.384983
     90          1           0        2.136169    1.586516   -0.577490
     91          6           0        3.842879    1.555560   -1.870849
     92          7           0        3.276467    2.205476   -2.947303
     93          1           0        2.749644    3.056465   -2.801517
     94          1           0        3.790325    2.142884   -3.817809
     95          8           0        4.756097    0.756536   -2.012961
     96          7           0        4.940074   -2.106574    1.978911
     97          1           0        4.752508   -2.681963    1.161699
     98          6           0        5.573158   -2.746921    3.128791
     99          1           0        5.145614   -2.301685    4.033840
    100          6           0        7.094455   -2.468591    3.112514
    101          6           0        5.311428   -4.268178    3.102886
    102          1           0        5.872766   -4.698032    3.947308
    103          8           0        7.909352   -3.314820    2.722163
    104          6           0        3.837930   -4.626382    3.254244
    105          1           0        3.429157   -4.228971    4.189993
    106          1           0        3.257149   -4.230435    2.415080
    107          1           0        3.728643   -5.714947    3.257933
    108          8           0        5.766999   -4.815194    1.874261
    109          1           0        6.726245   -4.618429    1.865211
    110          7           0        7.457421   -1.245730    3.554230
    111          1           0        6.743932   -0.548602    3.765774
    112          6           0        8.845589   -0.810157    3.545290
    113          1           0        9.460294   -1.675551    3.813330
    114          6           0        8.984328    0.299591    4.593832
    115          6           0        9.284194   -0.293964    2.160780
    116          1           0       10.336351    0.012324    2.170169
    117          1           0        9.161171   -1.090615    1.422311
    118          1           0        8.673940    0.566100    1.867136
    119          8           0        8.060576    1.082952    4.818511
    120          7           0       10.186393    0.375308    5.218240
    121          1           0       10.927208   -0.258207    4.947274
    122          6           0       10.501252    1.417313    6.203492
    123          1           0        9.557256    1.645535    6.706010
    124          6           0       10.985595    2.695026    5.474753
    125          6           0       11.549434    0.927316    7.206497
    126          1           0       12.485015    0.740395    6.663834
    127          1           0       11.772110    1.761564    7.883678
    128          8           0       12.171770    3.003193    5.402252
    129          6           0       11.155657   -0.312472    8.033369
    130          1           0       10.917396   -1.131407    7.338140
    131          6           0       12.347403   -0.762547    8.892130
    132          1           0       12.626598    0.015494    9.614138
    133          1           0       13.229163   -0.974938    8.276022
    134          1           0       12.105471   -1.669595    9.457842
    135          6           0        9.916875   -0.067947    8.908625
    136          1           0       10.086231    0.766807    9.601422
    137          1           0        9.685906   -0.954955    9.509683
    138          1           0        9.026528    0.164553    8.313892
    139          7           0        9.987767    3.430790    4.917346
    140          1           0        9.026165    3.100821    4.953799
    141          6           0       10.277397    4.642963    4.173364
    142          1           0       11.071117    5.182865    4.700766
    143          6           0        9.027947    5.508454    4.166496
    144          6           0       10.761593    4.365366    2.735023
    145          1           0       10.990735    5.300831    2.216528
    146          1           0       11.668289    3.757519    2.784749
    147          1           0        9.997861    3.822057    2.168061
    148          8           0        7.918792    5.144439    4.489205
    149          8           0        9.294367    6.755872    3.718118
    150          1           0        8.444610    7.235654    3.721098
 ---------------------------------------------------------------------

 SCF Done:  E(RB3LYP) =  -3455.50632939     A.U. after    1 cycles

 Alpha  occ. eigenvalues --  -19.27468 -19.23491 -19.22425 -19.21214 -19.21168
 Alpha  occ. eigenvalues --  -19.20584 -19.19215 -19.18801 -19.17878 -19.16944
 Alpha  occ. eigenvalues --  -19.16024 -19.15940 -19.15831 -19.15571 -19.14057
 Alpha  occ. eigenvalues --  -14.60398 -14.49930 -14.46273 -14.45421 -14.44328
 Alpha  occ. eigenvalues --  -14.42752 -14.41088 -14.40769 -14.39879 -14.39162
 Alpha  occ. eigenvalues --  -14.38273 -10.44133 -10.41250 -10.39584 -10.38141
 Alpha  occ. eigenvalues --  -10.37271 -10.35785 -10.35525 -10.34842 -10.34376
 Alpha  occ. eigenvalues --  -10.34106 -10.33005 -10.32840 -10.32829 -10.32603
 Alpha  occ. eigenvalues --  -10.32359 -10.31744 -10.31179 -10.30888 -10.30207
 Alpha  occ. eigenvalues --  -10.30125 -10.29853 -10.29529 -10.28717 -10.28400
 Alpha  occ. eigenvalues --  -10.28065 -10.27346 -10.27114 -10.27083 -10.26825
 Alpha  occ. eigenvalues --  -10.26628 -10.26498 -10.26428 -10.25626 -10.25617
 Alpha  occ. eigenvalues --  -10.25024 -10.23922 -10.23448 -10.21990 -10.21957
 Alpha  occ. eigenvalues --  -10.21462 -10.21420 -10.20918 -10.20047 -10.19955
 Alpha  occ. eigenvalues --   -1.19838  -1.14643  -1.14425  -1.14098  -1.13100
 Alpha  occ. eigenvalues --   -1.12024  -1.10474  -1.08667  -1.08650  -1.08157
 Alpha  occ. eigenvalues --   -1.07746  -1.07027  -1.06883  -1.06599  -1.05960
 Alpha  occ. eigenvalues --   -1.05361  -1.03790  -1.02742  -1.01522  -1.00332
 Alpha  occ. eigenvalues --   -0.98756  -0.96792  -0.96331  -0.95669  -0.95645
 Alpha  occ. eigenvalues --   -0.95464  -0.94979  -0.91661  -0.89441  -0.88835
 Alpha  occ. eigenvalues --   -0.85918  -0.84680  -0.84217  -0.83373  -0.82845
 Alpha  occ. eigenvalues --   -0.82002  -0.81147  -0.80930  -0.80010  -0.79939
 Alpha  occ. eigenvalues --   -0.79005  -0.78696  -0.77523  -0.77129  -0.76676
 Alpha  occ. eigenvalues --   -0.76504  -0.74487  -0.74231  -0.73531  -0.72446
 Alpha  occ. eigenvalues --   -0.71908  -0.70927  -0.70605  -0.69998  -0.69831
 Alpha  occ. eigenvalues --   -0.69768  -0.68858  -0.68384  -0.68127  -0.68087
 Alpha  occ. eigenvalues --   -0.67070  -0.66929  -0.66093  -0.65344  -0.64812
 Alpha  occ. eigenvalues --   -0.64692  -0.63831  -0.63161  -0.62898  -0.62549
 Alpha  occ. eigenvalues --   -0.62207  -0.62032  -0.61436  -0.60698  -0.60246
 Alpha  occ. eigenvalues --   -0.60068  -0.59583  -0.59341  -0.59020  -0.58363
 Alpha  occ. eigenvalues --   -0.58148  -0.58062  -0.57583  -0.57474  -0.57024
 Alpha  occ. eigenvalues --   -0.56403  -0.56319  -0.56165  -0.55460  -0.55107
 Alpha  occ. eigenvalues --   -0.54691  -0.54578  -0.54344  -0.53939  -0.53794
 Alpha  occ. eigenvalues --   -0.53198  -0.52986  -0.52731  -0.52524  -0.52314
 Alpha  occ. eigenvalues --   -0.52207  -0.51939  -0.51680  -0.51624  -0.50893
 Alpha  occ. eigenvalues --   -0.50773  -0.50557  -0.50450  -0.50302  -0.50210
 Alpha  occ. eigenvalues --   -0.50031  -0.49950  -0.49557  -0.49263  -0.49179
 Alpha  occ. eigenvalues --   -0.49093  -0.48982  -0.48812  -0.48351  -0.48323
 Alpha  occ. eigenvalues --   -0.48227  -0.48070  -0.47612  -0.47459  -0.47430
 Alpha  occ. eigenvalues --   -0.47167  -0.46951  -0.46776  -0.46233  -0.46208
 Alpha  occ. eigenvalues --   -0.46162  -0.45960  -0.45628  -0.45622  -0.45531
 Alpha  occ. eigenvalues --   -0.45446  -0.44912  -0.44770  -0.44715  -0.44506
 Alpha  occ. eigenvalues --   -0.44367  -0.44261  -0.44087  -0.44019  -0.43799
 Alpha  occ. eigenvalues --   -0.43615  -0.43395  -0.43160  -0.42978  -0.42787
 Alpha  occ. eigenvalues --   -0.42349  -0.42163  -0.42135  -0.41922  -0.41803
 Alpha  occ. eigenvalues --   -0.41620  -0.41610  -0.41335  -0.41127  -0.41034
 Alpha  occ. eigenvalues --   -0.40941  -0.40816  -0.40634  -0.40569  -0.40315
 Alpha  occ. eigenvalues --   -0.40086  -0.39669  -0.39423  -0.39315  -0.39242
 Alpha  occ. eigenvalues --   -0.38845  -0.38799  -0.38546  -0.37080  -0.36637
 Alpha  occ. eigenvalues --   -0.36036  -0.35967  -0.35639  -0.35515  -0.35369
 Alpha  occ. eigenvalues --   -0.35319  -0.35207  -0.34717  -0.34486  -0.33502
 Alpha  occ. eigenvalues --   -0.32783  -0.32737  -0.32551  -0.31654  -0.31557
 Alpha  occ. eigenvalues --   -0.31140  -0.31060  -0.30321  -0.30138  -0.29458
 Alpha  occ. eigenvalues --   -0.28953  -0.28604  -0.28036  -0.27416  -0.26848
 Alpha virt. eigenvalues --   -0.12656  -0.11913  -0.08506  -0.07594  -0.07246
 Alpha virt. eigenvalues --   -0.06363  -0.04753  -0.04642  -0.03133  -0.02866
 Alpha virt. eigenvalues --   -0.02822  -0.02769  -0.02305  -0.01838  -0.01553

 Mulliken charges:
               1
     1  N   -0.758971
     2  H    0.416311
     3  H    0.412795
     4  H    0.435072
     5  C   -0.116850
     6  H    0.217046
     7  C    0.653565
     8  C   -0.298918
     9  H    0.196940
    10  H    0.172486
    11  O   -0.541842
    12  C   -0.097088
    13  H    0.113155
    14  C   -0.448475
    15  H    0.167464
    16  H    0.158360
    17  H    0.176260
    18  C   -0.455549
    19  H    0.170195
    20  H    0.133283
    21  H    0.184622
    22  N   -0.597469
    23  H    0.371559
    24  C   -0.071427
    25  H    0.186233
    26  C    0.627030
    27  C   -0.077692
    28  H    0.150037
    29  O   -0.549179
    30  C   -0.477021
    31  H    0.157471
    32  H    0.169377
    33  H    0.171652
    34  C   -0.447662
    35  H    0.165311
    36  H    0.170236
    37  H    0.129010
    38  N   -0.603567
    39  H    0.364335
    40  C   -0.064546
    41  H    0.182576
    42  C    0.634213
    43  C   -0.074482
    44  H    0.147494
    45  O   -0.549748
    46  C   -0.477991
    47  H    0.150598
    48  H    0.166618
    49  H    0.167120
    50  C   -0.445365
    51  H    0.157616
    52  H    0.137107
    53  H    0.158384
    54  N   -0.594237
    55  H    0.358327
    56  C   -0.083049
    57  H    0.180987
    58  C    0.652045
    59  C   -0.072483
    60  H    0.160457
    61  H    0.167058
    62  O   -0.577493
    63  O   -0.639517
    64  H    0.422065
    65  N   -0.583559
    66  H    0.374065
    67  C   -0.079035
    68  H    0.170977
    69  C    0.652557
    70  C    0.107133
    71  H    0.151541
    72  O   -0.554129
    73  C   -0.467497
    74  H    0.141201
    75  H    0.163343
    76  H    0.171299
    77  O   -0.646753
    78  H    0.427745
    79  N   -0.606231
    80  H    0.358907
    81  C   -0.065519
    82  H    0.215401
    83  C    0.628579
    84  C   -0.285241
    85  H    0.179125
    86  H    0.170787
    87  O   -0.537827
    88  C   -0.400964
    89  H    0.164971
    90  H    0.178974
    91  C    0.584203
    92  N   -0.744086
    93  H    0.337909
    94  H    0.344137
    95  O   -0.486422
    96  N   -0.612469
    97  H    0.377663
    98  C   -0.067873
    99  H    0.172188
   100  C    0.637558
   101  C    0.119782
   102  H    0.133439
   103  O   -0.559847
   104  C   -0.462345
   105  H    0.138968
   106  H    0.155090
   107  H    0.164198
   108  O   -0.650711
   109  H    0.421144
   110  N   -0.618839
   111  H    0.385838
   112  C   -0.040765
   113  H    0.171859
   114  C    0.622379
   115  C   -0.448897
   116  H    0.149919
   117  H    0.184741
   118  H    0.165209
   119  O   -0.537335
   120  N   -0.604800
   121  H    0.337361
   122  C   -0.069394
   123  H    0.183749
   124  C    0.626802
   125  C   -0.279019
   126  H    0.153572
   127  H    0.155732
   128  O   -0.531597
   129  C   -0.071339
   130  H    0.117446
   131  C   -0.442419
   132  H    0.145796
   133  H    0.142740
   134  H    0.144570
   135  C   -0.453041
   136  H    0.143531
   137  H    0.146015
   138  H    0.152436
   139  N   -0.625991
   140  H    0.376405
   141  C   -0.018985
   142  H    0.198327
   143  C    0.575351
   144  C   -0.454832
   145  H    0.167856
   146  H    0.186127
   147  H    0.151146
   148  O   -0.459876
   149  O   -0.566119
   150  H    0.414118
 Sum of Mulliken charges =   1.00000

 Dipole moment (field-independent basis, Debye):
    X=            -44.2178    Y=            -14.5593    Z=            -23.4448  Tot=             52.1233
 Quadrupole moment (field-independent basis, Debye-Ang):
   XX=             43.6995   YY=           -327.4072   ZZ=           -267.7670
   XY=            218.1187   XZ=            232.3054   YZ=             86.4550

 Normal termination of Gaussian 16 at Tue Jul 12 00:10:33 2022.
