 Gaussian 16, Revision C.01,
 Gaussian 16:  ES64L-G16RevC.01  3-Jul-2019

 -------------------------------------------------------------------
 # B3LYP/6-31G* guess=read geom=check nosymm integral(ultrafinegrid)
 -------------------------------------------------------------------

 ------------------------------------------------------
 Candidate Structure: Conf:367 Charge calc in gas phase
 ------------------------------------------------------
 Structure from the checkpoint file:  "conf-367.chk"
 Charge =  1 Multiplicity = 1

                          Input orientation:
 ---------------------------------------------------------------------
 Center     Atomic      Atomic             Coordinates (Angstroms)
 Number     Number       Type             X           Y           Z
 ---------------------------------------------------------------------
      1          7           0       -9.036357   -7.139105   -4.203312
      2          1           0       -9.153125   -7.589357   -5.116012
      3          1           0       -9.809704   -7.423593   -3.595471
      4          1           0       -8.096128   -7.429902   -3.799266
      5          6           0       -8.876025   -5.629499   -4.293961
      6          1           0       -9.271367   -5.305640   -5.258294
      7          6           0       -7.330777   -5.469823   -4.215684
      8          6           0       -9.633961   -4.974745   -3.121822
      9          1           0       -9.179766   -5.322416   -2.184037
     10          1           0      -10.667518   -5.352437   -3.143806
     11          8           0       -6.689078   -6.429106   -3.758997
     12          6           0       -9.693642   -3.429522   -3.123245
     13          1           0       -8.671399   -3.034435   -3.078645
     14          6           0      -10.376208   -2.869781   -4.381174
     15          1           0      -11.400896   -3.250343   -4.480220
     16          1           0       -9.838439   -3.108114   -5.308064
     17          1           0      -10.431638   -1.778650   -4.325179
     18          6           0      -10.424543   -2.962995   -1.854079
     19          1           0      -11.464188   -3.313439   -1.841695
     20          1           0       -9.931815   -3.329422   -0.946454
     21          1           0      -10.441758   -1.869959   -1.805738
     22          7           0       -6.819291   -4.321834   -4.648190
     23          1           0       -7.426149   -3.526717   -4.855685
     24          6           0       -5.429507   -3.899379   -4.443234
     25          1           0       -5.020453   -4.481339   -3.611200
     26          6           0       -5.534559   -2.405976   -4.051960
     27          6           0       -4.532209   -4.109400   -5.697703
     28          1           0       -3.551297   -3.695217   -5.425596
     29          8           0       -6.588908   -1.791025   -4.248109
     30          6           0       -4.338788   -5.599970   -6.007976
     31          1           0       -5.278983   -6.066666   -6.323901
     32          1           0       -3.964691   -6.152767   -5.140088
     33          1           0       -3.620487   -5.722116   -6.825214
     34          6           0       -5.047757   -3.341760   -6.923575
     35          1           0       -6.020825   -3.727034   -7.251412
     36          1           0       -4.350795   -3.458920   -7.759202
     37          1           0       -5.158159   -2.270058   -6.728358
     38          7           0       -4.424464   -1.867923   -3.521046
     39          1           0       -3.561096   -2.401377   -3.477932
     40          6           0       -4.247482   -0.440392   -3.248195
     41          1           0       -5.053525    0.092487   -3.761887
     42          6           0       -2.873335   -0.096145   -3.847389
     43          6           0       -4.301724   -0.119533   -1.722208
     44          1           0       -3.441871   -0.620688   -1.257321
     45          8           0       -1.963053   -0.929992   -3.796660
     46          6           0       -4.172328    1.389463   -1.458683
     47          1           0       -4.962246    1.951069   -1.977871
     48          1           0       -3.199090    1.795069   -1.749070
     49          1           0       -4.291639    1.586245   -0.388360
     50          6           0       -5.592260   -0.668735   -1.097690
     51          1           0       -6.479044   -0.211845   -1.553218
     52          1           0       -5.672807   -1.754468   -1.210659
     53          1           0       -5.608995   -0.443850   -0.026128
     54          7           0       -2.729999    1.121428   -4.432570
     55          1           0       -3.402433    1.832427   -4.161846
     56          6           0       -1.388181    1.626649   -4.774932
     57          1           0       -0.866968    0.816424   -5.289305
     58          6           0       -0.694106    2.009714   -3.455905
     59          6           0       -1.519802    2.821942   -5.727141
     60          1           0       -0.523047    3.220869   -5.935343
     61          1           0       -2.095115    3.619403   -5.231289
     62          8           0       -1.224751    2.824605   -2.703823
     63          8           0       -2.069367    2.453119   -6.977241
     64          1           0       -2.955791    2.092999   -6.817445
     65          7           0        0.456532    1.349297   -3.189070
     66          1           0        0.884125    0.746003   -3.881749
     67          6           0        1.101129    1.374009   -1.886595
     68          1           0        0.686232    2.224391   -1.340023
     69          6           0        2.609057    1.490547   -2.121682
     70          6           0        0.782014    0.047675   -1.112285
     71          1           0        1.368339   -0.750393   -1.594170
     72          8           0        3.142544    0.835344   -3.017089
     73          6           0        1.158802    0.139540    0.360959
     74          1           0        2.228247    0.329453    0.498746
     75          1           0        0.586728    0.937876    0.848569
     76          1           0        0.910997   -0.802137    0.859425
     77          8           0       -0.603677   -0.255134   -1.186998
     78          1           0       -0.806502   -0.537169   -2.096038
     79          7           0        3.292127    2.323452   -1.296643
     80          1           0        2.815000    2.711315   -0.493134
     81          6           0        4.752319    2.346242   -1.279073
     82          1           0        5.083664    2.364387   -2.322242
     83          6           0        5.267372    1.073362   -0.577785
     84          6           0        5.236006    3.599706   -0.536624
     85          1           0        4.898847    3.540361    0.505274
     86          1           0        4.770519    4.485920   -0.977919
     87          8           0        4.880509    0.777525    0.554958
     88          6           0        6.756779    3.766715   -0.566894
     89          1           0        7.115310    3.790331   -1.606793
     90          1           0        7.257962    2.918832   -0.084838
     91          6           0        7.186857    5.073672    0.104149
     92          7           0        8.494024    5.106779    0.508475
     93          1           0        9.153375    4.390155    0.242751
     94          1           0        8.860720    5.989749    0.837317
     95          8           0        6.423530    6.012154    0.274000
     96          7           0        6.170989    0.341582   -1.265830
     97          1           0        6.436328    0.577268   -2.215558
     98          6           0        6.710487   -0.916587   -0.762482
     99          1           0        5.967593   -1.345277   -0.082335
    100          6           0        8.017325   -0.641623    0.012224
    101          6           0        6.975698   -1.857146   -1.958558
    102          1           0        7.501284   -2.742066   -1.570207
    103          8           0        9.128264   -0.800457   -0.511318
    104          6           0        5.695258   -2.296098   -2.658324
    105          1           0        5.078872   -2.904957   -1.987214
    106          1           0        5.101557   -1.436570   -2.986838
    107          1           0        5.951048   -2.895736   -3.536864
    108          8           0        7.792897   -1.177983   -2.907469
    109          1           0        8.626322   -1.005973   -2.422806
    110          7           0        7.854626   -0.200968    1.276242
    111          1           0        6.925945   -0.059304    1.671131
    112          6           0        8.978874    0.095832    2.149891
    113          1           0        9.727540   -0.694113    2.018612
    114          6           0        8.440223    0.073929    3.591123
    115          6           0        9.636904    1.450212    1.821080
    116          1           0       10.505450    1.630470    2.463476
    117          1           0        9.974426    1.437276    0.780760
    118          1           0        8.924484    2.269885    1.966560
    119          8           0        7.236412    0.171241    3.826020
    120          7           0        9.382951   -0.024023    4.555266
    121          1           0       10.370576   -0.113176    4.340134
    122          6           0        9.069202    0.021819    5.976861
    123          1           0        8.258016    0.742969    6.116889
    124          6           0       10.354439    0.501099    6.669069
    125          6           0        8.620289   -1.373578    6.485644
    126          1           0        7.835145   -1.710942    5.797909
    127          1           0        9.470136   -2.058082    6.365761
    128          8           0       11.458565    0.271549    6.176031
    129          6           0        8.086496   -1.457702    7.929941
    130          1           0        8.859120   -1.084451    8.616414
    131          6           0        6.814817   -0.618265    8.136245
    132          1           0        6.021062   -0.935673    7.448685
    133          1           0        6.978438    0.453205    7.966546
    134          1           0        6.438113   -0.729817    9.159330
    135          6           0        7.820109   -2.927475    8.291950
    136          1           0        7.052278   -3.359800    7.637606
    137          1           0        7.467285   -3.020369    9.325497
    138          1           0        8.726770   -3.535105    8.190333
    139          7           0       10.195329    1.163744    7.842097
    140          1           0        9.268664    1.310569    8.217331
    141          6           0       11.339660    1.578781    8.645809
    142          1           0       12.136733    0.849206    8.466906
    143          6           0       11.037967    1.539379   10.139027
    144          6           0       11.869086    2.969927    8.252344
    145          1           0       12.726402    3.232655    8.877375
    146          1           0       12.180748    2.949038    7.205113
    147          1           0       11.094103    3.733922    8.376335
    148          8           0       11.852321    1.792268   10.993817
    149          8           0        9.749044    1.215683   10.420935
    150          1           0        9.667902    1.236979   11.393723
 ---------------------------------------------------------------------

 SCF Done:  E(RB3LYP) =  -3455.48424715     A.U. after    2 cycles

 Alpha  occ. eigenvalues --  -19.27264 -19.25372 -19.22496 -19.21583 -19.21165
 Alpha  occ. eigenvalues --  -19.19066 -19.18931 -19.17750 -19.17463 -19.17267
 Alpha  occ. eigenvalues --  -19.16726 -19.16449 -19.16448 -19.15975 -19.15141
 Alpha  occ. eigenvalues --  -14.60543 -14.49833 -14.46197 -14.45520 -14.42585
 Alpha  occ. eigenvalues --  -14.42058 -14.41452 -14.41204 -14.40258 -14.40124
 Alpha  occ. eigenvalues --  -14.39712 -10.44037 -10.41149 -10.39538 -10.38384
 Alpha  occ. eigenvalues --  -10.37317 -10.35258 -10.34715 -10.34506 -10.33839
 Alpha  occ. eigenvalues --  -10.33828 -10.33498 -10.33258 -10.33171 -10.33002
 Alpha  occ. eigenvalues --  -10.32298 -10.31138 -10.30585 -10.30397 -10.29941
 Alpha  occ. eigenvalues --  -10.29267 -10.29050 -10.28696 -10.28602 -10.28499
 Alpha  occ. eigenvalues --  -10.28032 -10.27944 -10.27860 -10.27659 -10.27456
 Alpha  occ. eigenvalues --  -10.27205 -10.26754 -10.26715 -10.24698 -10.24391
 Alpha  occ. eigenvalues --  -10.23967 -10.23834 -10.23146 -10.22994 -10.22682
 Alpha  occ. eigenvalues --  -10.22662 -10.21970 -10.21518 -10.21153 -10.21118
 Alpha  occ. eigenvalues --   -1.19711  -1.15918  -1.14629  -1.14123  -1.13263
 Alpha  occ. eigenvalues --   -1.10091  -1.09338  -1.08934  -1.08670  -1.08588
 Alpha  occ. eigenvalues --   -1.07950  -1.07526  -1.07014  -1.06815  -1.06631
 Alpha  occ. eigenvalues --   -1.06425  -1.04861  -1.02693  -1.01290  -0.98647
 Alpha  occ. eigenvalues --   -0.98276  -0.97913  -0.97433  -0.96840  -0.96360
 Alpha  occ. eigenvalues --   -0.95091  -0.94294  -0.91362  -0.88631  -0.88235
 Alpha  occ. eigenvalues --   -0.85588  -0.85441  -0.84327  -0.83174  -0.82855
 Alpha  occ. eigenvalues --   -0.82425  -0.82122  -0.80778  -0.80534  -0.79063
 Alpha  occ. eigenvalues --   -0.78445  -0.77955  -0.77810  -0.77788  -0.75875
 Alpha  occ. eigenvalues --   -0.75236  -0.74618  -0.74400  -0.73524  -0.72613
 Alpha  occ. eigenvalues --   -0.72545  -0.72197  -0.71320  -0.70917  -0.69373
 Alpha  occ. eigenvalues --   -0.69358  -0.68662  -0.68277  -0.67781  -0.67207
 Alpha  occ. eigenvalues --   -0.66289  -0.66117  -0.65550  -0.65271  -0.64742
 Alpha  occ. eigenvalues --   -0.64694  -0.64099  -0.63621  -0.63503  -0.63021
 Alpha  occ. eigenvalues --   -0.62861  -0.62471  -0.62105  -0.61550  -0.60570
 Alpha  occ. eigenvalues --   -0.60409  -0.60328  -0.59370  -0.58831  -0.58135
 Alpha  occ. eigenvalues --   -0.57927  -0.57630  -0.57494  -0.57022  -0.56618
 Alpha  occ. eigenvalues --   -0.56472  -0.56396  -0.55739  -0.55669  -0.55353
 Alpha  occ. eigenvalues --   -0.55068  -0.54653  -0.54371  -0.53869  -0.53656
 Alpha  occ. eigenvalues --   -0.53625  -0.53283  -0.52943  -0.52701  -0.52468
 Alpha  occ. eigenvalues --   -0.52324  -0.52106  -0.51935  -0.51919  -0.51457
 Alpha  occ. eigenvalues --   -0.51319  -0.50811  -0.50585  -0.50196  -0.50006
 Alpha  occ. eigenvalues --   -0.49510  -0.49335  -0.49321  -0.49130  -0.48786
 Alpha  occ. eigenvalues --   -0.48690  -0.48513  -0.48178  -0.48078  -0.47990
 Alpha  occ. eigenvalues --   -0.47945  -0.47858  -0.47703  -0.47343  -0.47061
 Alpha  occ. eigenvalues --   -0.46831  -0.46666  -0.46560  -0.46308  -0.46159
 Alpha  occ. eigenvalues --   -0.46068  -0.45801  -0.45677  -0.45345  -0.45138
 Alpha  occ. eigenvalues --   -0.44984  -0.44857  -0.44713  -0.44507  -0.44459
 Alpha  occ. eigenvalues --   -0.44431  -0.44422  -0.44223  -0.44207  -0.43985
 Alpha  occ. eigenvalues --   -0.43518  -0.43420  -0.43294  -0.42806  -0.42537
 Alpha  occ. eigenvalues --   -0.42512  -0.42362  -0.42123  -0.42059  -0.41970
 Alpha  occ. eigenvalues --   -0.41855  -0.41705  -0.41590  -0.41571  -0.41415
 Alpha  occ. eigenvalues --   -0.41298  -0.41127  -0.40631  -0.40552  -0.40458
 Alpha  occ. eigenvalues --   -0.40262  -0.40090  -0.39890  -0.39800  -0.39309
 Alpha  occ. eigenvalues --   -0.39289  -0.39058  -0.37649  -0.37432  -0.37002
 Alpha  occ. eigenvalues --   -0.36916  -0.36847  -0.36633  -0.36391  -0.36383
 Alpha  occ. eigenvalues --   -0.35532  -0.34462  -0.34256  -0.33229  -0.33122
 Alpha  occ. eigenvalues --   -0.33067  -0.32648  -0.31920  -0.31067  -0.30930
 Alpha  occ. eigenvalues --   -0.30818  -0.30748  -0.30588  -0.30283  -0.29889
 Alpha  occ. eigenvalues --   -0.29623  -0.29569  -0.28970  -0.28951  -0.28300
 Alpha virt. eigenvalues --   -0.12908  -0.11495  -0.08711  -0.07484  -0.06930
 Alpha virt. eigenvalues --   -0.05450  -0.04746  -0.04211  -0.04011  -0.03476
 Alpha virt. eigenvalues --   -0.02944  -0.02578  -0.02056  -0.01474  -0.01178

 Mulliken charges:
               1
     1  N   -0.755169
     2  H    0.416864
     3  H    0.413168
     4  H    0.433552
     5  C   -0.118308
     6  H    0.214075
     7  C    0.648518
     8  C   -0.287064
     9  H    0.176149
    10  H    0.160369
    11  O   -0.539756
    12  C   -0.109516
    13  H    0.169295
    14  C   -0.460140
    15  H    0.155546
    16  H    0.134683
    17  H    0.188734
    18  C   -0.452001
    19  H    0.154801
    20  H    0.157971
    21  H    0.176677
    22  N   -0.596159
    23  H    0.383149
    24  C   -0.083716
    25  H    0.193097
    26  C    0.639194
    27  C   -0.085539
    28  H    0.157039
    29  O   -0.553967
    30  C   -0.443700
    31  H    0.133974
    32  H    0.163552
    33  H    0.169900
    34  C   -0.462981
    35  H    0.140442
    36  H    0.173758
    37  H    0.166013
    38  N   -0.604823
    39  H    0.360754
    40  C   -0.062419
    41  H    0.175399
    42  C    0.635735
    43  C   -0.081686
    44  H    0.167011
    45  O   -0.555789
    46  C   -0.497288
    47  H    0.131906
    48  H    0.205578
    49  H    0.166974
    50  C   -0.446537
    51  H    0.151661
    52  H    0.134569
    53  H    0.162125
    54  N   -0.604162
    55  H    0.350554
    56  C   -0.085793
    57  H    0.180427
    58  C    0.627306
    59  C   -0.050864
    60  H    0.178216
    61  H    0.151375
    62  O   -0.530202
    63  O   -0.602303
    64  H    0.393159
    65  N   -0.607045
    66  H    0.351313
    67  C   -0.068109
    68  H    0.181693
    69  C    0.638498
    70  C    0.128750
    71  H    0.133339
    72  O   -0.546379
    73  C   -0.481516
    74  H    0.183284
    75  H    0.152823
    76  H    0.163591
    77  O   -0.653559
    78  H    0.423575
    79  N   -0.602715
    80  H    0.345496
    81  C   -0.041850
    82  H    0.165664
    83  C    0.638609
    84  C   -0.288361
    85  H    0.172635
    86  H    0.183401
    87  O   -0.548966
    88  C   -0.396163
    89  H    0.169344
    90  H    0.170957
    91  C    0.608247
    92  N   -0.752825
    93  H    0.339875
    94  H    0.345836
    95  O   -0.498755
    96  N   -0.592716
    97  H    0.353428
    98  C   -0.074818
    99  H    0.177316
   100  C    0.638497
   101  C    0.117640
   102  H    0.137352
   103  O   -0.558780
   104  C   -0.462933
   105  H    0.138717
   106  H    0.172848
   107  H    0.164329
   108  O   -0.653410
   109  H    0.419811
   110  N   -0.621438
   111  H    0.378639
   112  C   -0.035335
   113  H    0.178831
   114  C    0.618930
   115  C   -0.465314
   116  H    0.157592
   117  H    0.178301
   118  H    0.163478
   119  O   -0.536691
   120  N   -0.624723
   121  H    0.354035
   122  C   -0.050660
   123  H    0.173244
   124  C    0.617990
   125  C   -0.254410
   126  H    0.165297
   127  H    0.145936
   128  O   -0.537949
   129  C   -0.091875
   130  H    0.131864
   131  C   -0.448482
   132  H    0.157553
   133  H    0.130688
   134  H    0.147386
   135  C   -0.443917
   136  H    0.144513
   137  H    0.144984
   138  H    0.147290
   139  N   -0.615582
   140  H    0.356659
   141  C   -0.047624
   142  H    0.215242
   143  C    0.590988
   144  C   -0.446191
   145  H    0.184238
   146  H    0.179379
   147  H    0.152915
   148  O   -0.447634
   149  O   -0.581403
   150  H    0.421905
 Sum of Mulliken charges =   1.00000

 Dipole moment (field-independent basis, Debye):
    X=            -32.2674    Y=            -23.0905    Z=            -13.3160  Tot=             41.8530
 Quadrupole moment (field-independent basis, Debye-Ang):
   XX=            -34.7107   YY=           -261.9681   ZZ=           -291.0885
   XY=            245.0745   XZ=            196.8169   YZ=            107.2436

 Normal termination of Gaussian 16 at Tue Jul 12 00:11:03 2022.
