 Gaussian 16, Revision C.01,
 Gaussian 16:  ES64L-G16RevC.01  3-Jul-2019

 -------------------------------------------------------------------
 # B3LYP/6-31G* guess=read geom=check nosymm integral(ultrafinegrid)
 -------------------------------------------------------------------

 ------------------------------------------------------
 Candidate Structure: Conf:669 Charge calc in gas phase
 ------------------------------------------------------
 Structure from the checkpoint file:  "conf-669.chk"
 Charge =  1 Multiplicity = 1

                          Input orientation:
 ---------------------------------------------------------------------
 Center     Atomic      Atomic             Coordinates (Angstroms)
 Number     Number       Type             X           Y           Z
 ---------------------------------------------------------------------
      1          7           0       -9.883909   -7.194712   -4.543455
      2          1           0      -10.067067   -7.981565   -5.171971
      3          1           0      -10.768451   -6.914062   -4.110685
      4          1           0       -9.166401   -7.491972   -3.810385
      5          6           0       -9.164560   -6.039530   -5.215701
      6          1           0       -9.170184   -6.221492   -6.292254
      7          6           0       -7.725449   -6.164118   -4.637236
      8          6           0       -9.829440   -4.698686   -4.867635
      9          1           0       -9.190314   -3.905319   -5.274657
     10          1           0       -9.802545   -4.574277   -3.775738
     11          8           0       -7.555902   -6.954141   -3.694962
     12          6           0      -11.269789   -4.500239   -5.391321
     13          1           0      -11.910438   -5.305949   -4.990691
     14          6           0      -11.826929   -3.174129   -4.849695
     15          1           0      -11.242075   -2.324705   -5.222126
     16          1           0      -11.806888   -3.143484   -3.754578
     17          1           0      -12.863205   -3.031581   -5.171042
     18          6           0      -11.350618   -4.547296   -6.924440
     19          1           0      -10.726371   -3.764650   -7.372454
     20          1           0      -11.033327   -5.510745   -7.342765
     21          1           0      -12.379379   -4.379328   -7.257623
     22          7           0       -6.797425   -5.401732   -5.201385
     23          1           0       -7.042059   -4.687401   -5.889162
     24          6           0       -5.431668   -5.211057   -4.694898
     25          1           0       -5.413375   -5.525575   -3.646583
     26          6           0       -5.217534   -3.683756   -4.834940
     27          6           0       -4.385624   -6.033696   -5.506958
     28          1           0       -4.365489   -5.607963   -6.520084
     29          8           0       -5.827662   -3.074716   -5.719143
     30          6           0       -2.980242   -5.913521   -4.895107
     31          1           0       -2.961987   -6.307219   -3.870401
     32          1           0       -2.606378   -4.886529   -4.871942
     33          1           0       -2.270714   -6.505662   -5.481542
     34          6           0       -4.792159   -7.511556   -5.608492
     35          1           0       -4.877131   -7.970716   -4.616967
     36          1           0       -4.035035   -8.065804   -6.172452
     37          1           0       -5.746769   -7.640635   -6.128244
     38          7           0       -4.378913   -3.106413   -3.955642
     39          1           0       -3.830349   -3.676321   -3.320002
     40          6           0       -3.950883   -1.709888   -4.038380
     41          1           0       -4.241059   -1.339499   -5.026398
     42          6           0       -2.422648   -1.737340   -3.882557
     43          6           0       -4.618394   -0.821726   -2.938903
     44          1           0       -4.256629   -1.177945   -1.965250
     45          8           0       -1.891687   -2.605471   -3.168015
     46          6           0       -4.218118    0.656130   -3.080347
     47          1           0       -4.482464    1.049854   -4.071281
     48          1           0       -3.150979    0.826875   -2.913130
     49          1           0       -4.757051    1.255471   -2.339709
     50          6           0       -6.146541   -0.966191   -2.981364
     51          1           0       -6.549445   -0.644442   -3.949064
     52          1           0       -6.461735   -1.999541   -2.807376
     53          1           0       -6.598924   -0.344798   -2.201382
     54          7           0       -1.722310   -0.792178   -4.532975
     55          1           0       -2.196806   -0.039853   -5.024880
     56          6           0       -0.293190   -0.543173   -4.311946
     57          1           0        0.239679   -1.498699   -4.344096
     58          6           0       -0.130844    0.122147   -2.927929
     59          6           0        0.197415    0.395089   -5.424790
     60          1           0        0.161920   -0.124730   -6.386847
     61          1           0        1.238999    0.678141   -5.220434
     62          8           0       -0.163061    1.355774   -2.797207
     63          8           0       -0.657751    1.521473   -5.531521
     64          1           0       -0.575206    1.977204   -4.669686
     65          7           0       -0.033268   -0.733984   -1.895856
     66          1           0       -0.041263   -1.724424   -2.107709
     67          6           0       -0.160986   -0.326145   -0.493741
     68          1           0       -0.718663    0.615440   -0.492382
     69          6           0        1.258850   -0.117749    0.061910
     70          6           0       -0.967806   -1.388377    0.287544
     71          1           0       -0.361647   -2.304593    0.332365
     72          8           0        1.900743   -1.050410    0.546820
     73          6           0       -1.281175   -0.925333    1.702995
     74          1           0       -0.370205   -0.747305    2.281705
     75          1           0       -1.881004   -0.007452    1.676782
     76          1           0       -1.868587   -1.695596    2.211030
     77          8           0       -2.211936   -1.642068   -0.368650
     78          1           0       -2.045441   -2.152286   -1.180050
     79          7           0        1.750858    1.135937   -0.088511
     80          1           0        1.158463    1.822804   -0.538395
     81          6           0        3.176019    1.459575    0.086451
     82          1           0        3.740718    0.576981   -0.227847
     83          6           0        3.515436    1.742833    1.571225
     84          6           0        3.578872    2.656967   -0.784043
     85          1           0        4.649208    2.817894   -0.631361
     86          1           0        3.086204    3.557147   -0.399250
     87          8           0        3.974630    2.829772    1.937978
     88          6           0        3.285712    2.529115   -2.284495
     89          1           0        3.514316    3.489576   -2.766480
     90          1           0        2.219283    2.351671   -2.478807
     91          6           0        4.072758    1.428534   -2.992388
     92          7           0        3.951006    1.430903   -4.368190
     93          1           0        3.703586    2.288242   -4.844644
     94          1           0        4.596555    0.824797   -4.860319
     95          8           0        4.715619    0.568288   -2.410307
     96          7           0        3.291623    0.708412    2.410253
     97          1           0        2.897357   -0.149165    2.025834
     98          6           0        3.446474    0.836040    3.859076
     99          1           0        3.207910    1.877415    4.113686
    100          6           0        4.917540    0.572770    4.270141
    101          6           0        2.468827   -0.106326    4.589258
    102          1           0        2.778460   -1.138656    4.402351
    103          8           0        5.265627   -0.433265    4.885484
    104          6           0        2.431981    0.148841    6.093762
    105          1           0        3.413077   -0.022401    6.541672
    106          1           0        2.129628    1.183624    6.307318
    107          1           0        1.705552   -0.523363    6.560630
    108          8           0        1.158538   -0.003703    4.017973
    109          1           0        0.815319    0.877605    4.239142
    110          7           0        5.778910    1.538014    3.870784
    111          1           0        5.406117    2.339078    3.367629
    112          6           0        7.191791    1.474600    4.197742
    113          1           0        7.580265    0.502929    3.868497
    114          6           0        7.392735    1.603991    5.725252
    115          6           0        7.937777    2.608168    3.484580
    116          1           0        9.010860    2.548238    3.690111
    117          1           0        7.789543    2.546190    2.401319
    118          1           0        7.574572    3.579021    3.838171
    119          8           0        6.740951    2.399820    6.393335
    120          7           0        8.369346    0.806634    6.230902
    121          1           0        8.936277    0.233597    5.617224
    122          6           0        8.823195    0.868421    7.607916
    123          1           0        8.438027    1.801108    8.030109
    124          6           0       10.359429    0.875455    7.581858
    125          6           0        8.338769   -0.341905    8.446492
    126          1           0        8.777756   -1.245567    8.002142
    127          1           0        8.765378   -0.253818    9.456850
    128          8           0       10.985458    0.326626    6.676865
    129          6           0        6.811201   -0.514977    8.550847
    130          1           0        6.407262   -0.552545    7.530442
    131          6           0        6.493605   -1.854381    9.234207
    132          1           0        6.879016   -1.876974   10.262513
    133          1           0        6.937468   -2.698026    8.692191
    134          1           0        5.411221   -2.020833    9.282993
    135          6           0        6.138096    0.650928    9.291005
    136          1           0        6.555811    0.772282   10.300524
    137          1           0        5.063243    0.463644    9.402951
    138          1           0        6.250275    1.592454    8.745324
    139          7           0       10.964646    1.478489    8.638814
    140          1           0       10.407005    1.912863    9.360751
    141          6           0       12.412065    1.457277    8.803836
    142          1           0       12.769950    0.505071    8.398565
    143          6           0       12.823474    1.492790   10.269695
    144          6           0       13.115173    2.594740    8.038215
    145          1           0       14.197026    2.530957    8.183036
    146          1           0       12.888257    2.496516    6.973822
    147          1           0       12.767653    3.573488    8.386077
    148          8           0       13.960880    1.353202   10.651977
    149          8           0       11.787970    1.737600   11.113797
    150          1           0       12.167741    1.763821   12.012658
 ---------------------------------------------------------------------

 SCF Done:  E(RB3LYP) =  -3455.48878960     A.U. after    2 cycles

 Alpha  occ. eigenvalues --  -19.27612 -19.24054 -19.22671 -19.22437 -19.21660
 Alpha  occ. eigenvalues --  -19.20933 -19.19963 -19.18636 -19.17850 -19.17655
 Alpha  occ. eigenvalues --  -19.17118 -19.15849 -19.14764 -19.14115 -19.13139
 Alpha  occ. eigenvalues --  -14.60529 -14.50121 -14.46690 -14.46412 -14.44705
 Alpha  occ. eigenvalues --  -14.42264 -14.41211 -14.39594 -14.39443 -14.37925
 Alpha  occ. eigenvalues --  -14.37828 -10.44291 -10.41374 -10.39861 -10.39257
 Alpha  occ. eigenvalues --  -10.37640 -10.36022 -10.35083 -10.34923 -10.34526
 Alpha  occ. eigenvalues --  -10.34191 -10.32997 -10.32899 -10.32700 -10.32384
 Alpha  occ. eigenvalues --  -10.31836 -10.31311 -10.31089 -10.30469 -10.30110
 Alpha  occ. eigenvalues --  -10.29839 -10.29816 -10.29592 -10.28758 -10.28112
 Alpha  occ. eigenvalues --  -10.27901 -10.27585 -10.27374 -10.27040 -10.26825
 Alpha  occ. eigenvalues --  -10.26416 -10.25965 -10.25735 -10.25519 -10.25379
 Alpha  occ. eigenvalues --  -10.25132 -10.24041 -10.21932 -10.21514 -10.21383
 Alpha  occ. eigenvalues --  -10.20928 -10.20484 -10.20238 -10.18899 -10.18266
 Alpha  occ. eigenvalues --   -1.19984  -1.14940  -1.14637  -1.14340  -1.13951
 Alpha  occ. eigenvalues --   -1.12418  -1.09761  -1.09106  -1.08816  -1.07570
 Alpha  occ. eigenvalues --   -1.07389  -1.06829  -1.06782  -1.06055  -1.05672
 Alpha  occ. eigenvalues --   -1.05514  -1.04764  -1.03125  -1.02454  -1.00676
 Alpha  occ. eigenvalues --   -0.98370  -0.96092  -0.95866  -0.95766  -0.95755
 Alpha  occ. eigenvalues --   -0.94523  -0.94441  -0.91870  -0.89523  -0.88969
 Alpha  occ. eigenvalues --   -0.86151  -0.84765  -0.83516  -0.83119  -0.83033
 Alpha  occ. eigenvalues --   -0.81547  -0.81080  -0.81054  -0.80069  -0.79510
 Alpha  occ. eigenvalues --   -0.79187  -0.78328  -0.77827  -0.76474  -0.76346
 Alpha  occ. eigenvalues --   -0.76134  -0.74613  -0.73673  -0.73533  -0.72679
 Alpha  occ. eigenvalues --   -0.71996  -0.71113  -0.70225  -0.69912  -0.69474
 Alpha  occ. eigenvalues --   -0.69066  -0.68798  -0.68530  -0.68369  -0.67420
 Alpha  occ. eigenvalues --   -0.67084  -0.66892  -0.65795  -0.65363  -0.65224
 Alpha  occ. eigenvalues --   -0.64333  -0.63934  -0.63676  -0.62873  -0.62557
 Alpha  occ. eigenvalues --   -0.62305  -0.61768  -0.60772  -0.60638  -0.60301
 Alpha  occ. eigenvalues --   -0.60251  -0.59540  -0.59079  -0.58754  -0.58347
 Alpha  occ. eigenvalues --   -0.58239  -0.58187  -0.57889  -0.57352  -0.56954
 Alpha  occ. eigenvalues --   -0.56700  -0.56481  -0.56313  -0.56279  -0.55661
 Alpha  occ. eigenvalues --   -0.54960  -0.54834  -0.54128  -0.53964  -0.53871
 Alpha  occ. eigenvalues --   -0.53465  -0.53221  -0.52713  -0.52339  -0.52244
 Alpha  occ. eigenvalues --   -0.52014  -0.51887  -0.51797  -0.51295  -0.50968
 Alpha  occ. eigenvalues --   -0.50751  -0.50645  -0.50525  -0.50459  -0.50269
 Alpha  occ. eigenvalues --   -0.49996  -0.49774  -0.49437  -0.49234  -0.49096
 Alpha  occ. eigenvalues --   -0.49022  -0.48914  -0.48613  -0.48272  -0.47872
 Alpha  occ. eigenvalues --   -0.47810  -0.47483  -0.47393  -0.47312  -0.47229
 Alpha  occ. eigenvalues --   -0.47022  -0.46285  -0.46243  -0.46136  -0.46022
 Alpha  occ. eigenvalues --   -0.45914  -0.45688  -0.45592  -0.45307  -0.45109
 Alpha  occ. eigenvalues --   -0.45027  -0.44998  -0.44833  -0.44731  -0.44555
 Alpha  occ. eigenvalues --   -0.44512  -0.43897  -0.43685  -0.43512  -0.43406
 Alpha  occ. eigenvalues --   -0.43396  -0.43046  -0.42775  -0.42718  -0.42406
 Alpha  occ. eigenvalues --   -0.42093  -0.42022  -0.41940  -0.41790  -0.41737
 Alpha  occ. eigenvalues --   -0.41444  -0.41262  -0.41211  -0.40959  -0.40802
 Alpha  occ. eigenvalues --   -0.40582  -0.40568  -0.40320  -0.39950  -0.39812
 Alpha  occ. eigenvalues --   -0.39612  -0.39524  -0.39452  -0.39204  -0.38725
 Alpha  occ. eigenvalues --   -0.38580  -0.37975  -0.37578  -0.37206  -0.37145
 Alpha  occ. eigenvalues --   -0.36410  -0.35920  -0.35701  -0.35472  -0.35093
 Alpha  occ. eigenvalues --   -0.34888  -0.34435  -0.33880  -0.33766  -0.33393
 Alpha  occ. eigenvalues --   -0.33286  -0.33005  -0.32857  -0.31877  -0.31361
 Alpha  occ. eigenvalues --   -0.30819  -0.30594  -0.30325  -0.29152  -0.28732
 Alpha  occ. eigenvalues --   -0.28661  -0.28454  -0.27014  -0.26558  -0.26412
 Alpha virt. eigenvalues --   -0.12811  -0.12011  -0.09177  -0.08351  -0.07347
 Alpha virt. eigenvalues --   -0.06709  -0.04881  -0.04244  -0.03359  -0.02941
 Alpha virt. eigenvalues --   -0.02930  -0.02363  -0.01964  -0.01673  -0.01283

 Mulliken charges:
               1
     1  N   -0.758608
     2  H    0.416586
     3  H    0.413275
     4  H    0.435148
     5  C   -0.117294
     6  H    0.217056
     7  C    0.653622
     8  C   -0.298819
     9  H    0.196782
    10  H    0.173454
    11  O   -0.540860
    12  C   -0.097558
    13  H    0.113308
    14  C   -0.448552
    15  H    0.167632
    16  H    0.158947
    17  H    0.176475
    18  C   -0.455543
    19  H    0.170221
    20  H    0.133110
    21  H    0.184955
    22  N   -0.597481
    23  H    0.371587
    24  C   -0.071648
    25  H    0.186369
    26  C    0.628184
    27  C   -0.077360
    28  H    0.151139
    29  O   -0.547319
    30  C   -0.476330
    31  H    0.155802
    32  H    0.166454
    33  H    0.172999
    34  C   -0.447766
    35  H    0.165356
    36  H    0.170528
    37  H    0.130381
    38  N   -0.601285
    39  H    0.360144
    40  C   -0.065802
    41  H    0.184773
    42  C    0.645106
    43  C   -0.089827
    44  H    0.173526
    45  O   -0.580032
    46  C   -0.479489
    47  H    0.146639
    48  H    0.167372
    49  H    0.169874
    50  C   -0.446783
    51  H    0.154886
    52  H    0.134867
    53  H    0.161802
    54  N   -0.587446
    55  H    0.364291
    56  C   -0.088566
    57  H    0.182399
    58  C    0.648891
    59  C   -0.068519
    60  H    0.163376
    61  H    0.167610
    62  O   -0.568692
    63  O   -0.635781
    64  H    0.422965
    65  N   -0.593222
    66  H    0.357793
    67  C   -0.064693
    68  H    0.172961
    69  C    0.657377
    70  C    0.102217
    71  H    0.149638
    72  O   -0.541080
    73  C   -0.484285
    74  H    0.209753
    75  H    0.140937
    76  H    0.162179
    77  O   -0.660550
    78  H    0.415103
    79  N   -0.609375
    80  H    0.347974
    81  C   -0.073534
    82  H    0.224670
    83  C    0.629967
    84  C   -0.283474
    85  H    0.181084
    86  H    0.160836
    87  O   -0.552722
    88  C   -0.399995
    89  H    0.160632
    90  H    0.184046
    91  C    0.580705
    92  N   -0.744146
    93  H    0.336136
    94  H    0.343077
    95  O   -0.483875
    96  N   -0.616545
    97  H    0.385913
    98  C   -0.085441
    99  H    0.164815
   100  C    0.652086
   101  C    0.121080
   102  H    0.168465
   103  O   -0.541316
   104  C   -0.479881
   105  H    0.196188
   106  H    0.132261
   107  H    0.158348
   108  O   -0.623705
   109  H    0.385881
   110  N   -0.614028
   111  H    0.370919
   112  C   -0.026174
   113  H    0.155948
   114  C    0.639660
   115  C   -0.481947
   116  H    0.165662
   117  H    0.162799
   118  H    0.175148
   119  O   -0.537739
   120  N   -0.594429
   121  H    0.344000
   122  C   -0.074895
   123  H    0.174158
   124  C    0.625665
   125  C   -0.250609
   126  H    0.143706
   127  H    0.128059
   128  O   -0.539821
   129  C   -0.080642
   130  H    0.168463
   131  C   -0.442438
   132  H    0.133514
   133  H    0.141067
   134  H    0.140753
   135  C   -0.467303
   136  H    0.122123
   137  H    0.136900
   138  H    0.181855
   139  N   -0.615575
   140  H    0.350784
   141  C   -0.039650
   142  H    0.210024
   143  C    0.588116
   144  C   -0.447285
   145  H    0.178421
   146  H    0.181973
   147  H    0.151876
   148  O   -0.452588
   149  O   -0.581253
   150  H    0.419970
 Sum of Mulliken charges =   1.00000

 Dipole moment (field-independent basis, Debye):
    X=            -39.9762    Y=            -22.2641    Z=            -25.8516  Tot=             52.5556
 Quadrupole moment (field-independent basis, Debye-Ang):
   XX=            -34.5459   YY=           -239.7202   ZZ=           -250.8360
   XY=            272.9119   XZ=            192.1412   YZ=            144.5599

 Normal termination of Gaussian 16 at Tue Jul 12 00:11:07 2022.
