 Gaussian 16, Revision C.01,
 Gaussian 16:  ES64L-G16RevC.01  3-Jul-2019

 -------------------------------------------------------------------
 # B3LYP/6-31G* guess=read geom=check nosymm integral(ultrafinegrid)
 -------------------------------------------------------------------

 ------------------------------------------------------
 Candidate Structure: Conf:474 Charge calc in gas phase
 ------------------------------------------------------
 Structure from the checkpoint file:  "conf-474.chk"
 Charge =  1 Multiplicity = 1

                          Input orientation:
 ---------------------------------------------------------------------
 Center     Atomic      Atomic             Coordinates (Angstroms)
 Number     Number       Type             X           Y           Z
 ---------------------------------------------------------------------
      1          7           0       -7.594524    0.918056  -12.224158
      2          1           0       -7.229678    0.693384  -13.153579
      3          1           0       -8.338153    1.614046  -12.327722
      4          1           0       -7.954673    0.022922  -11.761737
      5          6           0       -6.520410    1.344039  -11.240420
      6          1           0       -5.596910    1.505459  -11.799976
      7          6           0       -6.402469    0.094193  -10.320291
      8          6           0       -6.942797    2.606812  -10.474180
      9          1           0       -6.189704    2.779654   -9.695338
     10          1           0       -7.879530    2.388774   -9.941685
     11          8           0       -7.267467   -0.788403  -10.446306
     12          6           0       -7.096234    3.892325  -11.317834
     13          1           0       -7.845014    3.713244  -12.109915
     14          6           0       -7.645369    5.019065  -10.428403
     15          1           0       -6.940548    5.258373   -9.623264
     16          1           0       -8.601214    4.743118   -9.969127
     17          1           0       -7.804188    5.929876  -11.013857
     18          6           0       -5.782450    4.313595  -11.992977
     19          1           0       -5.001717    4.499824  -11.245546
     20          1           0       -5.401090    3.563644  -12.697224
     21          1           0       -5.924121    5.239101  -12.559573
     22          7           0       -5.384485    0.086948   -9.471922
     23          1           0       -4.791189    0.909567   -9.345010
     24          6           0       -5.178997   -0.882238   -8.386910
     25          1           0       -6.136032   -1.372452   -8.182596
     26          6           0       -4.733915    0.014111   -7.203651
     27          6           0       -4.107483   -1.953885   -8.756471
     28          1           0       -3.144838   -1.427910   -8.826121
     29          8           0       -4.165868    1.083373   -7.451362
     30          6           0       -3.998880   -3.039157   -7.672890
     31          1           0       -4.950485   -3.573936   -7.555610
     32          1           0       -3.706309   -2.650841   -6.694246
     33          1           0       -3.247040   -3.778263   -7.967296
     34          6           0       -4.406935   -2.598826  -10.118368
     35          1           0       -5.385195   -3.093050  -10.118748
     36          1           0       -3.647881   -3.354893  -10.343531
     37          1           0       -4.392157   -1.867841  -10.933127
     38          7           0       -5.017226   -0.426775   -5.965074
     39          1           0       -5.328607   -1.385377   -5.824781
     40          6           0       -4.458500    0.172823   -4.754550
     41          1           0       -3.609288    0.794525   -5.056742
     42          6           0       -3.967954   -1.008328   -3.891297
     43          6           0       -5.477482    1.062812   -3.983907
     44          1           0       -4.947609    1.408745   -3.084951
     45          8           0       -4.366469   -2.154991   -4.111177
     46          6           0       -5.866384    2.299821   -4.804779
     47          1           0       -6.422358    2.014527   -5.705136
     48          1           0       -4.987111    2.869808   -5.122590
     49          1           0       -6.508676    2.959875   -4.211473
     50          6           0       -6.717758    0.278218   -3.532881
     51          1           0       -7.288946   -0.082567   -4.396524
     52          1           0       -6.459414   -0.588436   -2.915814
     53          1           0       -7.379584    0.923122   -2.945405
     54          7           0       -3.120083   -0.689677   -2.892766
     55          1           0       -2.802843    0.263187   -2.747876
     56          6           0       -2.592655   -1.658982   -1.948651
     57          1           0       -3.380144   -2.366934   -1.673247
     58          6           0       -2.087824   -0.891658   -0.729329
     59          6           0       -1.412026   -2.471381   -2.576904
     60          1           0       -0.661613   -1.759665   -2.949378
     61          1           0       -1.822098   -3.019162   -3.429844
     62          8           0       -1.827991    0.317205   -0.790774
     63          8           0       -0.863115   -3.406873   -1.679363
     64          1           0       -0.162366   -2.960519   -1.159702
     65          7           0       -1.874120   -1.643217    0.374766
     66          1           0       -1.904566   -2.655256    0.259308
     67          6           0       -0.952310   -1.200297    1.412823
     68          1           0       -1.307663   -0.259284    1.842746
     69          6           0        0.444072   -1.014181    0.790212
     70          6           0       -0.882174   -2.300863    2.510346
     71          1           0       -0.038494   -2.050811    3.171886
     72          8           0        0.896094   -1.862135   -0.000362
     73          6           0       -2.158838   -2.388630    3.336968
     74          1           0       -2.331144   -1.456532    3.885018
     75          1           0       -3.025612   -2.586658    2.698961
     76          1           0       -2.067892   -3.206034    4.057545
     77          8           0       -0.681841   -3.570681    1.901606
     78          1           0        0.144875   -3.532468    1.387900
     79          7           0        1.121754    0.077703    1.169580
     80          1           0        0.740642    0.710129    1.866598
     81          6           0        2.453269    0.448344    0.699778
     82          1           0        2.943021   -0.455847    0.327878
     83          6           0        3.186606    1.033118    1.916083
     84          6           0        2.358011    1.522740   -0.410496
     85          1           0        3.359518    1.897682   -0.647308
     86          1           0        1.798436    2.368467    0.008355
     87          8           0        2.547125    1.666858    2.766330
     88          6           0        1.674593    1.015901   -1.697539
     89          1           0        0.861376    0.330346   -1.451503
     90          1           0        2.397244    0.470003   -2.312425
     91          6           0        1.145913    2.193825   -2.511622
     92          7           0       -0.218161    2.334403   -2.480781
     93          1           0       -0.785541    1.802126   -1.829631
     94          1           0       -0.590806    3.200787   -2.846336
     95          8           0        1.880733    2.957516   -3.120837
     96          7           0        4.517569    0.861250    1.947205
     97          1           0        5.007636    0.309750    1.249338
     98          6           0        5.373836    1.438063    2.974399
     99          1           0        4.974783    2.427344    3.229238
    100          6           0        6.765592    1.554889    2.334117
    101          6           0        5.396604    0.563366    4.270284
    102          1           0        5.938608   -0.361594    4.037796
    103          8           0        7.123473    0.745331    1.480138
    104          6           0        6.088670    1.273831    5.435801
    105          1           0        7.159571    1.413663    5.254507
    106          1           0        5.618400    2.246714    5.637190
    107          1           0        5.973451    0.661311    6.334644
    108          8           0        4.082226    0.153731    4.613393
    109          1           0        3.473067    0.896117    4.449069
    110          7           0        7.535930    2.596602    2.740271
    111          1           0        7.257779    3.089927    3.578973
    112          6           0        8.945901    2.663510    2.376501
    113          1           0        9.007474    2.465224    1.302521
    114          6           0        9.740677    1.582301    3.143621
    115          6           0        9.502306    4.056551    2.693432
    116          1           0       10.550448    4.127352    2.387939
    117          1           0        8.933925    4.827670    2.164166
    118          1           0        9.452858    4.254466    3.770511
    119          8           0        9.425919    1.254252    4.286058
    120          7           0       10.797486    1.073655    2.469106
    121          1           0       11.080226    1.470764    1.578986
    122          6           0       11.775025    0.170117    3.054882
    123          1           0       11.668381    0.228745    4.141832
    124          6           0       13.159990    0.678675    2.618187
    125          6           0       11.588277   -1.290745    2.573236
    126          1           0       11.723853   -1.296715    1.483138
    127          1           0       12.403818   -1.898611    2.991379
    128          8           0       13.296336    1.348776    1.594274
    129          6           0       10.238509   -1.946274    2.924972
    130          1           0        9.438515   -1.293915    2.548956
    131          6           0       10.122082   -3.297387    2.201792
    132          1           0       10.903512   -3.993219    2.534691
    133          1           0       10.217157   -3.182534    1.115355
    134          1           0        9.152986   -3.766993    2.405722
    135          6           0       10.047313   -2.117906    4.439465
    136          1           0       10.858641   -2.718170    4.873648
    137          1           0        9.106068   -2.639320    4.650002
    138          1           0       10.007638   -1.153299    4.953909
    139          7           0       14.198209    0.310137    3.405582
    140          1           0       14.060523   -0.296168    4.206325
    141          6           0       15.580755    0.584497    3.044788
    142          1           0       15.707973    0.401932    1.971193
    143          6           0       16.446780   -0.407347    3.807699
    144          6           0       15.996620    2.037992    3.342328
    145          1           0       17.033817    2.208630    3.041189
    146          1           0       15.346835    2.709501    2.776569
    147          1           0       15.894423    2.259091    4.409816
    148          8           0       16.040999   -1.154489    4.673134
    149          8           0       17.734958   -0.346137    3.423031
    150          1           0       18.224094   -0.990030    3.970100
 ---------------------------------------------------------------------

 SCF Done:  E(RB3LYP) =  -3455.50412008     A.U. after    1 cycles

 Alpha  occ. eigenvalues --  -19.26884 -19.24983 -19.21693 -19.20555 -19.20164
 Alpha  occ. eigenvalues --  -19.19735 -19.19516 -19.19513 -19.19463 -19.17975
 Alpha  occ. eigenvalues --  -19.17462 -19.17153 -19.16137 -19.15703 -19.14803
 Alpha  occ. eigenvalues --  -14.59859 -14.49273 -14.45253 -14.43943 -14.43499
 Alpha  occ. eigenvalues --  -14.42984 -14.42103 -14.41614 -14.40588 -14.40007
 Alpha  occ. eigenvalues --  -14.39256 -10.43522 -10.40696 -10.38777 -10.37417
 Alpha  occ. eigenvalues --  -10.36841 -10.36591 -10.36333 -10.35124 -10.34458
 Alpha  occ. eigenvalues --  -10.34117 -10.33585 -10.33190 -10.32834 -10.32658
 Alpha  occ. eigenvalues --  -10.32361 -10.31473 -10.30829 -10.30319 -10.30249
 Alpha  occ. eigenvalues --  -10.29961 -10.29558 -10.29105 -10.29063 -10.28805
 Alpha  occ. eigenvalues --  -10.28702 -10.28432 -10.28284 -10.28134 -10.27525
 Alpha  occ. eigenvalues --  -10.27309 -10.26172 -10.25531 -10.25191 -10.24766
 Alpha  occ. eigenvalues --  -10.24519 -10.23835 -10.23728 -10.23218 -10.22483
 Alpha  occ. eigenvalues --  -10.22329 -10.21682 -10.20834 -10.20032 -10.19415
 Alpha  occ. eigenvalues --   -1.19251  -1.16030  -1.13950  -1.13436  -1.12221
 Alpha  occ. eigenvalues --   -1.11489  -1.10798  -1.10066  -1.09232  -1.08283
 Alpha  occ. eigenvalues --   -1.08101  -1.07280  -1.07108  -1.07000  -1.06639
 Alpha  occ. eigenvalues --   -1.05959  -1.04937  -1.01772  -1.00309  -0.99835
 Alpha  occ. eigenvalues --   -0.99651  -0.98379  -0.97946  -0.97245  -0.96538
 Alpha  occ. eigenvalues --   -0.95150  -0.93924  -0.90978  -0.88723  -0.88043
 Alpha  occ. eigenvalues --   -0.86308  -0.84819  -0.84464  -0.83254  -0.82717
 Alpha  occ. eigenvalues --   -0.82448  -0.82209  -0.80902  -0.80328  -0.79344
 Alpha  occ. eigenvalues --   -0.79029  -0.78090  -0.77734  -0.76786  -0.76596
 Alpha  occ. eigenvalues --   -0.75650  -0.74709  -0.73943  -0.72987  -0.71917
 Alpha  occ. eigenvalues --   -0.71827  -0.71251  -0.70748  -0.70520  -0.69433
 Alpha  occ. eigenvalues --   -0.69287  -0.68911  -0.68533  -0.67437  -0.67408
 Alpha  occ. eigenvalues --   -0.66834  -0.66300  -0.65918  -0.65622  -0.65121
 Alpha  occ. eigenvalues --   -0.64997  -0.64608  -0.64183  -0.63725  -0.63260
 Alpha  occ. eigenvalues --   -0.62935  -0.62269  -0.62123  -0.61889  -0.60765
 Alpha  occ. eigenvalues --   -0.59865  -0.59564  -0.58889  -0.58587  -0.58284
 Alpha  occ. eigenvalues --   -0.58055  -0.57826  -0.57586  -0.57396  -0.57005
 Alpha  occ. eigenvalues --   -0.56248  -0.55634  -0.55464  -0.55157  -0.54924
 Alpha  occ. eigenvalues --   -0.54559  -0.54466  -0.54228  -0.54044  -0.53728
 Alpha  occ. eigenvalues --   -0.53642  -0.53183  -0.52990  -0.52792  -0.52375
 Alpha  occ. eigenvalues --   -0.52214  -0.51999  -0.51707  -0.51545  -0.51344
 Alpha  occ. eigenvalues --   -0.51049  -0.50785  -0.50627  -0.50524  -0.50069
 Alpha  occ. eigenvalues --   -0.49862  -0.49765  -0.49724  -0.49579  -0.49200
 Alpha  occ. eigenvalues --   -0.48949  -0.48852  -0.48605  -0.48404  -0.48098
 Alpha  occ. eigenvalues --   -0.48061  -0.47747  -0.47586  -0.47483  -0.47177
 Alpha  occ. eigenvalues --   -0.47089  -0.46669  -0.46495  -0.46407  -0.46340
 Alpha  occ. eigenvalues --   -0.45845  -0.45722  -0.45700  -0.45576  -0.45476
 Alpha  occ. eigenvalues --   -0.45234  -0.45159  -0.45069  -0.44982  -0.44873
 Alpha  occ. eigenvalues --   -0.44596  -0.44342  -0.44117  -0.44085  -0.44067
 Alpha  occ. eigenvalues --   -0.43789  -0.43663  -0.43579  -0.43472  -0.43099
 Alpha  occ. eigenvalues --   -0.42618  -0.42568  -0.42320  -0.42293  -0.41901
 Alpha  occ. eigenvalues --   -0.41857  -0.41734  -0.41589  -0.41376  -0.41275
 Alpha  occ. eigenvalues --   -0.41090  -0.40954  -0.40890  -0.40813  -0.40499
 Alpha  occ. eigenvalues --   -0.40273  -0.40172  -0.40052  -0.39703  -0.39410
 Alpha  occ. eigenvalues --   -0.38686  -0.38630  -0.38607  -0.37135  -0.37010
 Alpha  occ. eigenvalues --   -0.35869  -0.35823  -0.35765  -0.35230  -0.35142
 Alpha  occ. eigenvalues --   -0.35079  -0.34433  -0.34153  -0.33742  -0.33495
 Alpha  occ. eigenvalues --   -0.33171  -0.33143  -0.32709  -0.32037  -0.31901
 Alpha  occ. eigenvalues --   -0.31270  -0.31142  -0.30907  -0.30692  -0.30630
 Alpha  occ. eigenvalues --   -0.30158  -0.29612  -0.29127  -0.28748  -0.28420
 Alpha virt. eigenvalues --   -0.12052  -0.11426  -0.07654  -0.06758  -0.06580
 Alpha virt. eigenvalues --   -0.05587  -0.05139  -0.04396  -0.04305  -0.04164
 Alpha virt. eigenvalues --   -0.03217  -0.02275  -0.02108  -0.01358  -0.01296

 Mulliken charges:
               1
     1  N   -0.759271
     2  H    0.415506
     3  H    0.411935
     4  H    0.434605
     5  C   -0.117061
     6  H    0.216724
     7  C    0.653809
     8  C   -0.298768
     9  H    0.198057
    10  H    0.171899
    11  O   -0.543586
    12  C   -0.096673
    13  H    0.112190
    14  C   -0.448423
    15  H    0.167913
    16  H    0.157794
    17  H    0.175214
    18  C   -0.455457
    19  H    0.171028
    20  H    0.133338
    21  H    0.183474
    22  N   -0.596998
    23  H    0.371939
    24  C   -0.071121
    25  H    0.185586
    26  C    0.625643
    27  C   -0.078096
    28  H    0.150753
    29  O   -0.550169
    30  C   -0.478875
    31  H    0.154322
    32  H    0.176445
    33  H    0.170437
    34  C   -0.447283
    35  H    0.163832
    36  H    0.169600
    37  H    0.127639
    38  N   -0.600005
    39  H    0.366434
    40  C   -0.076046
    41  H    0.185841
    42  C    0.637811
    43  C   -0.075746
    44  H    0.140857
    45  O   -0.547603
    46  C   -0.442855
    47  H    0.137452
    48  H    0.157204
    49  H    0.155223
    50  C   -0.462860
    51  H    0.144558
    52  H    0.168405
    53  H    0.159949
    54  N   -0.620450
    55  H    0.352595
    56  C   -0.059846
    57  H    0.193296
    58  C    0.613315
    59  C   -0.042479
    60  H    0.142764
    61  H    0.176322
    62  O   -0.563906
    63  O   -0.644171
    64  H    0.437497
    65  N   -0.594521
    66  H    0.367817
    67  C   -0.073113
    68  H    0.170803
    69  C    0.647624
    70  C    0.104711
    71  H    0.151432
    72  O   -0.584006
    73  C   -0.449175
    74  H    0.151555
    75  H    0.163606
    76  H    0.180405
    77  O   -0.624409
    78  H    0.411885
    79  N   -0.586276
    80  H    0.359204
    81  C   -0.079256
    82  H    0.185820
    83  C    0.652256
    84  C   -0.259161
    85  H    0.176301
    86  H    0.163059
    87  O   -0.572672
    88  C   -0.366238
    89  H    0.160780
    90  H    0.172684
    91  C    0.568719
    92  N   -0.786019
    93  H    0.381581
    94  H    0.328269
    95  O   -0.502772
    96  N   -0.600662
    97  H    0.358949
    98  C   -0.105421
    99  H    0.167254
   100  C    0.630504
   101  C    0.175741
   102  H    0.150116
   103  O   -0.537430
   104  C   -0.501858
   105  H    0.190067
   106  H    0.127823
   107  H    0.173299
   108  O   -0.641063
   109  H    0.409016
   110  N   -0.587267
   111  H    0.341266
   112  C   -0.059033
   113  H    0.178496
   114  C    0.636896
   115  C   -0.474382
   116  H    0.175534
   117  H    0.171544
   118  H    0.167276
   119  O   -0.531462
   120  N   -0.592847
   121  H    0.349338
   122  C   -0.076966
   123  H    0.181120
   124  C    0.624629
   125  C   -0.252339
   126  H    0.143804
   127  H    0.135484
   128  O   -0.542687
   129  C   -0.073320
   130  H    0.150104
   131  C   -0.443874
   132  H    0.139611
   133  H    0.140838
   134  H    0.144252
   135  C   -0.465796
   136  H    0.130819
   137  H    0.142018
   138  H    0.176601
   139  N   -0.617977
   140  H    0.356026
   141  C   -0.021015
   142  H    0.199367
   143  C    0.580894
   144  C   -0.452141
   145  H    0.173311
   146  H    0.189626
   147  H    0.157793
   148  O   -0.466658
   149  O   -0.560008
   150  H    0.422440
 Sum of Mulliken charges =   1.00000

 Dipole moment (field-independent basis, Debye):
    X=            -19.8663    Y=              8.5623    Z=            -40.9140  Tot=             46.2811
 Quadrupole moment (field-independent basis, Debye-Ang):
   XX=            -38.1506   YY=           -405.3340   ZZ=            125.8707
   XY=            -43.0681   XZ=            371.9379   YZ=            -54.2607

 Normal termination of Gaussian 16 at Tue Jul 12 00:10:29 2022.
