 Gaussian 16, Revision C.01,
 Gaussian 16:  ES64L-G16RevC.01  3-Jul-2019

 -------------------------------------------------------------------
 # B3LYP/6-31G* guess=read geom=check nosymm integral(ultrafinegrid)
 -------------------------------------------------------------------

 ------------------------------------------------------
 Candidate Structure: Conf:549 Charge calc in gas phase
 ------------------------------------------------------
 Structure from the checkpoint file:  "conf-549.chk"
 Charge =  1 Multiplicity = 1

                          Input orientation:
 ---------------------------------------------------------------------
 Center     Atomic      Atomic             Coordinates (Angstroms)
 Number     Number       Type             X           Y           Z
 ---------------------------------------------------------------------
      1          7           0       -9.405126   -8.199862   -1.693183
      2          1           0       -9.498632   -9.018144   -2.301952
      3          1           0      -10.141964   -8.232637   -0.983119
      4          1           0       -8.435025   -8.211335   -1.250615
      5          6           0       -9.371326   -6.884167   -2.454526
      6          1           0       -9.779034   -7.061207   -3.451369
      7          6           0       -7.844923   -6.585076   -2.499280
      8          6           0      -10.197759   -5.834865   -1.684605
      9          1           0       -9.726091   -5.678387   -0.704978
     10          1           0      -11.193404   -6.266979   -1.502087
     11          8           0       -7.126483   -7.204710   -1.697197
     12          6           0      -10.395825   -4.470185   -2.384879
     13          1           0       -9.414051   -4.010324   -2.551419
     14          6           0      -11.106946   -4.603498   -3.740647
     15          1           0      -12.091155   -5.076145   -3.628380
     16          1           0      -10.535536   -5.187427   -4.473834
     17          1           0      -11.262295   -3.615037   -4.182935
     18          6           0      -11.184212   -3.543621   -1.445426
     19          1           0      -12.188495   -3.938618   -1.247292
     20          1           0      -10.674198   -3.414369   -0.484181
     21          1           0      -11.299542   -2.553681   -1.897164
     22          7           0       -7.430413   -5.696244   -3.392992
     23          1           0       -8.093643   -5.134953   -3.929298
     24          6           0       -6.072909   -5.137259   -3.459434
     25          1           0       -5.576083   -5.345526   -2.506837
     26          6           0       -6.324518   -3.620648   -3.648709
     27          6           0       -5.245608   -5.755971   -4.627249
     28          1           0       -5.719956   -5.426162   -5.562348
     29          8           0       -7.370403   -3.254149   -4.197188
     30          6           0       -3.791064   -5.257838   -4.611708
     31          1           0       -3.286718   -5.544329   -3.679565
     32          1           0       -3.703824   -4.174423   -4.726422
     33          1           0       -3.235098   -5.717981   -5.434663
     34          6           0       -5.276919   -7.291248   -4.581779
     35          1           0       -4.859795   -7.670112   -3.641638
     36          1           0       -4.679108   -7.698499   -5.403522
     37          1           0       -6.292677   -7.685090   -4.689276
     38          7           0       -5.381463   -2.788252   -3.178215
     39          1           0       -4.498896   -3.152285   -2.832500
     40          6           0       -5.378489   -1.340925   -3.403795
     41          1           0       -6.147551   -1.125030   -4.151089
     42          6           0       -3.973104   -1.016996   -3.934054
     43          6           0       -5.685176   -0.552830   -2.093443
     44          1           0       -4.894428   -0.807661   -1.374664
     45          8           0       -2.996207   -1.642517   -3.492147
     46          6           0       -5.646828    0.967245   -2.318077
     47          1           0       -6.351313    1.272698   -3.104041
     48          1           0       -4.650049    1.332812   -2.578227
     49          1           0       -5.946176    1.480751   -1.398648
     50          6           0       -7.039109   -0.981725   -1.510196
     51          1           0       -7.858169   -0.753587   -2.203067
     52          1           0       -7.068038   -2.053861   -1.289794
     53          1           0       -7.228566   -0.443738   -0.575290
     54          7           0       -3.874088   -0.054675   -4.866631
     55          1           0       -4.673485    0.534954   -5.084152
     56          6           0       -2.595038    0.520439   -5.292717
     57          1           0       -1.932975   -0.286294   -5.622223
     58          6           0       -1.988453    1.300506   -4.108782
     59          6           0       -2.904535    1.490216   -6.450942
     60          1           0       -3.226631    0.925346   -7.331276
     61          1           0       -1.990910    2.042396   -6.713122
     62          8           0       -2.514403    2.358562   -3.739308
     63          8           0       -3.970906    2.353090   -6.099750
     64          1           0       -3.674121    2.801232   -5.279149
     65          7           0       -0.912989    0.743091   -3.524510
     66          1           0       -0.491453   -0.094305   -3.910092
     67          6           0       -0.330168    1.217546   -2.279874
     68          1           0       -0.697790    2.233311   -2.116235
     69          6           0        1.193066    1.146076   -2.450019
     70          6           0       -0.777365    0.293450   -1.091390
     71          1           0       -0.174373   -0.625409   -1.159054
     72          8           0        1.692422    0.189559   -3.040382
     73          6           0       -0.549448    0.959763    0.259654
     74          1           0        0.498351    1.242280    0.401943
     75          1           0       -1.172160    1.857638    0.344987
     76          1           0       -0.832217    0.273262    1.062785
     77          8           0       -2.156581   -0.024933   -1.186067
     78          1           0       -2.271878   -0.646757   -1.927452
     79          7           0        1.905707    2.155153   -1.898651
     80          1           0        1.452235    2.870360   -1.340010
     81          6           0        3.359374    2.150651   -1.816988
     82          1           0        3.693105    1.110683   -1.892410
     83          6           0        3.711721    2.736312   -0.442425
     84          6           0        3.977177    2.964523   -2.985834
     85          1           0        3.608311    3.995335   -2.925759
     86          1           0        3.592113    2.522300   -3.909638
     87          8           0        2.928039    3.500011    0.139161
     88          6           0        5.515451    2.967716   -3.059420
     89          1           0        5.959287    3.420887   -2.167601
     90          1           0        5.809390    3.582816   -3.917386
     91          6           0        6.062316    1.561289   -3.315870
     92          7           0        6.883114    1.053719   -2.343979
     93          1           0        7.290045    1.615895   -1.601872
     94          1           0        7.303841    0.152615   -2.532986
     95          8           0        5.732438    0.919225   -4.302655
     96          7           0        4.918666    2.404310    0.054198
     97          1           0        5.506440    1.727526   -0.421461
     98          6           0        5.457535    2.996861    1.267412
     99          1           0        5.057032    4.015382    1.337765
    100          6           0        6.986070    3.052453    1.092289
    101          6           0        4.992112    2.215225    2.540502
    102          1           0        5.507762    1.245994    2.552295
    103          8           0        7.564199    2.296241    0.300644
    104          6           0        5.281228    2.964546    3.844275
    105          1           0        6.350837    3.087821    4.040905
    106          1           0        4.812344    3.957235    3.835442
    107          1           0        4.845394    2.400425    4.673686
    108          8           0        3.610897    1.908375    2.437213
    109          1           0        3.156224    2.669177    2.030142
    110          7           0        7.638257    3.959690    1.839461
    111          1           0        7.164409    4.528254    2.537141
    112          6           0        9.090048    4.061802    1.886215
    113          1           0        9.508558    3.048660    1.868231
    114          6           0        9.418751    4.735727    3.234297
    115          6           0        9.651473    4.854969    0.692633
    116          1           0       10.744701    4.902422    0.729845
    117          1           0        9.360532    4.361796   -0.238371
    118          1           0        9.259747    5.877313    0.691417
    119          8           0        8.529127    5.249302    3.917891
    120          7           0       10.719795    4.733879    3.581939
    121          1           0       11.436372    4.311904    2.999013
    122          6           0       11.227959    5.379659    4.786452
    123          1           0       10.672501    6.311345    4.930194
    124          6           0       12.710520    5.668188    4.497492
    125          6           0       11.038889    4.461136    6.022583
    126          1           0        9.987041    4.149829    6.014217
    127          1           0       11.642984    3.558862    5.860186
    128          8           0       13.339149    4.981576    3.690415
    129          6           0       11.365462    5.062879    7.404656
    130          1           0       12.410560    5.402598    7.406765
    131          6           0       10.469693    6.263398    7.751529
    132          1           0        9.410499    5.977666    7.735910
    133          1           0       10.590035    7.101698    7.054401
    134          1           0       10.702201    6.642657    8.752595
    135          6           0       11.236450    3.971690    8.479347
    136          1           0       10.208509    3.590436    8.530095
    137          1           0       11.495153    4.364140    9.469175
    138          1           0       11.898200    3.123045    8.270286
    139          7           0       13.266554    6.695026    5.180691
    140          1           0       12.745137    7.194442    5.892228
    141          6           0       14.690781    6.988766    5.110193
    142          1           0       15.241757    6.041650    5.078658
    143          6           0       15.059708    7.716582    6.395167
    144          6           0       15.067056    7.811110    3.863350
    145          1           0       16.144384    7.995572    3.837870
    146          1           0       14.782590    7.246268    2.972523
    147          1           0       14.541384    8.771565    3.858307
    148          8           0       14.260959    8.089714    7.229065
    149          8           0       16.385984    7.916499    6.493609
    150          1           0       16.539292    8.400885    7.327346
 ---------------------------------------------------------------------

 SCF Done:  E(RB3LYP) =  -3455.50295173     A.U. after    1 cycles

 Alpha  occ. eigenvalues --  -19.26792 -19.25490 -19.21705 -19.20404 -19.20049
 Alpha  occ. eigenvalues --  -19.19922 -19.18393 -19.18032 -19.17956 -19.17525
 Alpha  occ. eigenvalues --  -19.17458 -19.17065 -19.16985 -19.16250 -19.14020
 Alpha  occ. eigenvalues --  -14.60028 -14.49396 -14.45624 -14.44359 -14.42349
 Alpha  occ. eigenvalues --  -14.41633 -14.41520 -14.41399 -14.41006 -14.40879
 Alpha  occ. eigenvalues --  -14.38525 -10.43555 -10.40722 -10.38896 -10.37953
 Alpha  occ. eigenvalues --  -10.37314 -10.35248 -10.35090 -10.34437 -10.34231
 Alpha  occ. eigenvalues --  -10.34134 -10.34072 -10.33593 -10.33455 -10.31934
 Alpha  occ. eigenvalues --  -10.31490 -10.30808 -10.30469 -10.29917 -10.29383
 Alpha  occ. eigenvalues --  -10.29360 -10.29012 -10.28872 -10.28794 -10.28699
 Alpha  occ. eigenvalues --  -10.28313 -10.28273 -10.28146 -10.28055 -10.27325
 Alpha  occ. eigenvalues --  -10.26720 -10.26422 -10.25957 -10.24403 -10.23711
 Alpha  occ. eigenvalues --  -10.23392 -10.23348 -10.23336 -10.23173 -10.23018
 Alpha  occ. eigenvalues --  -10.22949 -10.21856 -10.21757 -10.21271 -10.21042
 Alpha  occ. eigenvalues --   -1.19242  -1.16551  -1.14017  -1.13492  -1.12161
 Alpha  occ. eigenvalues --   -1.10128  -1.10052  -1.09424  -1.09128  -1.08480
 Alpha  occ. eigenvalues --   -1.08194  -1.07572  -1.07304  -1.06034  -1.05961
 Alpha  occ. eigenvalues --   -1.05937  -1.05245  -1.01989  -1.00391  -0.98395
 Alpha  occ. eigenvalues --   -0.98310  -0.98048  -0.97875  -0.97490  -0.97325
 Alpha  occ. eigenvalues --   -0.94678  -0.93074  -0.90765  -0.88178  -0.87746
 Alpha  occ. eigenvalues --   -0.85781  -0.84995  -0.83969  -0.83327  -0.83046
 Alpha  occ. eigenvalues --   -0.82698  -0.81613  -0.80987  -0.80057  -0.78658
 Alpha  occ. eigenvalues --   -0.78277  -0.77991  -0.77650  -0.77058  -0.76034
 Alpha  occ. eigenvalues --   -0.74804  -0.74492  -0.73956  -0.73082  -0.72400
 Alpha  occ. eigenvalues --   -0.72073  -0.71855  -0.71427  -0.70585  -0.70091
 Alpha  occ. eigenvalues --   -0.68755  -0.68098  -0.68019  -0.67372  -0.67166
 Alpha  occ. eigenvalues --   -0.67122  -0.65921  -0.65859  -0.64941  -0.64748
 Alpha  occ. eigenvalues --   -0.64331  -0.64209  -0.63943  -0.63601  -0.63235
 Alpha  occ. eigenvalues --   -0.63136  -0.62929  -0.62088  -0.61444  -0.60669
 Alpha  occ. eigenvalues --   -0.60407  -0.59771  -0.59379  -0.58765  -0.58128
 Alpha  occ. eigenvalues --   -0.57484  -0.56904  -0.56754  -0.56668  -0.56066
 Alpha  occ. eigenvalues --   -0.55775  -0.55593  -0.55577  -0.55133  -0.54787
 Alpha  occ. eigenvalues --   -0.54450  -0.54201  -0.54007  -0.53646  -0.53496
 Alpha  occ. eigenvalues --   -0.53367  -0.53020  -0.52950  -0.52697  -0.52658
 Alpha  occ. eigenvalues --   -0.52452  -0.51773  -0.51283  -0.51120  -0.50907
 Alpha  occ. eigenvalues --   -0.50568  -0.50440  -0.50291  -0.50097  -0.49885
 Alpha  occ. eigenvalues --   -0.49574  -0.49437  -0.49301  -0.48990  -0.48960
 Alpha  occ. eigenvalues --   -0.48832  -0.48531  -0.48286  -0.48173  -0.47965
 Alpha  occ. eigenvalues --   -0.47739  -0.47702  -0.47593  -0.47227  -0.47099
 Alpha  occ. eigenvalues --   -0.47046  -0.46678  -0.46466  -0.46276  -0.46155
 Alpha  occ. eigenvalues --   -0.45959  -0.45930  -0.45666  -0.45510  -0.45156
 Alpha  occ. eigenvalues --   -0.44893  -0.44687  -0.44647  -0.44513  -0.44486
 Alpha  occ. eigenvalues --   -0.44167  -0.44074  -0.44033  -0.43873  -0.43777
 Alpha  occ. eigenvalues --   -0.43546  -0.43297  -0.43202  -0.42929  -0.42876
 Alpha  occ. eigenvalues --   -0.42693  -0.42614  -0.42404  -0.42362  -0.42284
 Alpha  occ. eigenvalues --   -0.42000  -0.41705  -0.41671  -0.41556  -0.41205
 Alpha  occ. eigenvalues --   -0.41059  -0.41019  -0.40825  -0.40525  -0.40264
 Alpha  occ. eigenvalues --   -0.39988  -0.39856  -0.39702  -0.39646  -0.39592
 Alpha  occ. eigenvalues --   -0.38729  -0.38709  -0.37684  -0.37396  -0.37259
 Alpha  occ. eigenvalues --   -0.37080  -0.36673  -0.36497  -0.36010  -0.35630
 Alpha  occ. eigenvalues --   -0.34841  -0.33744  -0.33678  -0.33246  -0.32711
 Alpha  occ. eigenvalues --   -0.32624  -0.32006  -0.31986  -0.31600  -0.31432
 Alpha  occ. eigenvalues --   -0.31147  -0.30952  -0.30682  -0.30519  -0.30170
 Alpha  occ. eigenvalues --   -0.29895  -0.29825  -0.29517  -0.29198  -0.27813
 Alpha virt. eigenvalues --   -0.12348  -0.11108  -0.07875  -0.06632  -0.06508
 Alpha virt. eigenvalues --   -0.05010  -0.04838  -0.04432  -0.04303  -0.03523
 Alpha virt. eigenvalues --   -0.03227  -0.02348  -0.02071  -0.01978  -0.00982

 Mulliken charges:
               1
     1  N   -0.756795
     2  H    0.416056
     3  H    0.412242
     4  H    0.433944
     5  C   -0.117517
     6  H    0.213927
     7  C    0.649755
     8  C   -0.287000
     9  H    0.175784
    10  H    0.159766
    11  O   -0.542021
    12  C   -0.110037
    13  H    0.169229
    14  C   -0.460615
    15  H    0.155019
    16  H    0.135583
    17  H    0.189329
    18  C   -0.451971
    19  H    0.154263
    20  H    0.158080
    21  H    0.176920
    22  N   -0.598818
    23  H    0.381669
    24  C   -0.075355
    25  H    0.187235
    26  C    0.632145
    27  C   -0.077640
    28  H    0.150875
    29  O   -0.550012
    30  C   -0.477236
    31  H    0.155225
    32  H    0.171826
    33  H    0.171703
    34  C   -0.446957
    35  H    0.163988
    36  H    0.169887
    37  H    0.127016
    38  N   -0.599042
    39  H    0.360631
    40  C   -0.067668
    41  H    0.181741
    42  C    0.644419
    43  C   -0.080319
    44  H    0.162149
    45  O   -0.578133
    46  C   -0.486835
    47  H    0.138781
    48  H    0.195941
    49  H    0.163830
    50  C   -0.447416
    51  H    0.151627
    52  H    0.131691
    53  H    0.160261
    54  N   -0.584978
    55  H    0.361591
    56  C   -0.085754
    57  H    0.169117
    58  C    0.644818
    59  C   -0.057735
    60  H    0.163056
    61  H    0.159518
    62  O   -0.552482
    63  O   -0.634518
    64  H    0.425856
    65  N   -0.595869
    66  H    0.356569
    67  C   -0.068115
    68  H    0.180675
    69  C    0.623391
    70  C    0.126344
    71  H    0.136118
    72  O   -0.536197
    73  C   -0.463556
    74  H    0.159658
    75  H    0.159331
    76  H    0.164403
    77  O   -0.660558
    78  H    0.431941
    79  N   -0.609579
    80  H    0.354551
    81  C   -0.070799
    82  H    0.200810
    83  C    0.634305
    84  C   -0.258984
    85  H    0.148738
    86  H    0.193800
    87  O   -0.572746
    88  C   -0.367775
    89  H    0.143704
    90  H    0.179401
    91  C    0.574391
    92  N   -0.785596
    93  H    0.385312
    94  H    0.339027
    95  O   -0.499846
    96  N   -0.600032
    97  H    0.361872
    98  C   -0.112340
    99  H    0.177096
   100  C    0.628822
   101  C    0.174594
   102  H    0.140119
   103  O   -0.563993
   104  C   -0.476903
   105  H    0.154157
   106  H    0.146244
   107  H    0.172968
   108  O   -0.639230
   109  H    0.412466
   110  N   -0.610275
   111  H    0.368205
   112  C   -0.045196
   113  H    0.183057
   114  C    0.625635
   115  C   -0.448236
   116  H    0.160102
   117  H    0.180228
   118  H    0.163764
   119  O   -0.547251
   120  N   -0.623891
   121  H    0.357442
   122  C   -0.051970
   123  H    0.177767
   124  C    0.618095
   125  C   -0.254961
   126  H    0.164012
   127  H    0.144859
   128  O   -0.541741
   129  C   -0.091243
   130  H    0.130032
   131  C   -0.449730
   132  H    0.154610
   133  H    0.134773
   134  H    0.155815
   135  C   -0.444563
   136  H    0.144894
   137  H    0.149767
   138  H    0.145236
   139  N   -0.620343
   140  H    0.363956
   141  C   -0.027758
   142  H    0.202905
   143  C    0.584127
   144  C   -0.451296
   145  H    0.176200
   146  H    0.188820
   147  H    0.158243
   148  O   -0.467810
   149  O   -0.558374
   150  H    0.423769
 Sum of Mulliken charges =   1.00000

 Dipole moment (field-independent basis, Debye):
    X=            -24.3414    Y=            -21.5580    Z=             -3.6386  Tot=             32.7183
 Quadrupole moment (field-independent basis, Debye-Ang):
   XX=            142.1030   YY=           -141.0877   ZZ=           -364.7738
   XY=            390.3234   XZ=            167.9999   YZ=            101.2292

 Normal termination of Gaussian 16 at Tue Jul 12 00:10:30 2022.
