 Gaussian 16, Revision C.01,
 Gaussian 16:  ES64L-G16RevC.01  3-Jul-2019

 -------------------------------------------------------------------
 # B3LYP/6-31G* guess=read geom=check nosymm integral(ultrafinegrid)
 -------------------------------------------------------------------

 ------------------------------------------------------
 Candidate Structure: Conf:535 Charge calc in gas phase
 ------------------------------------------------------
 Structure from the checkpoint file:  "conf-535.chk"
 Charge =  1 Multiplicity = 1

                          Input orientation:
 ---------------------------------------------------------------------
 Center     Atomic      Atomic             Coordinates (Angstroms)
 Number     Number       Type             X           Y           Z
 ---------------------------------------------------------------------
      1          7           0      -10.114089   -0.147573   -9.345671
      2          1           0       -9.848526   -0.077449  -10.331643
      3          1           0      -10.969908    0.395643   -9.201458
      4          1           0      -10.254733   -1.176122   -9.093260
      5          6           0       -9.000803    0.242661   -8.390849
      6          1           0       -8.208826    0.717965   -8.972796
      7          6           0       -8.538898   -1.136504   -7.838339
      8          6           0       -9.524623    1.172360   -7.284910
      9          1           0       -8.713131    1.300428   -6.557731
     10          1           0      -10.327133    0.647724   -6.746988
     11          8           0       -9.251243   -2.120073   -8.094830
     12          6           0      -10.013160    2.564388   -7.744554
     13          1           0      -10.821366    2.433403   -8.486141
     14          6           0      -10.621337    3.308564   -6.545162
     15          1           0       -9.864715    3.483633   -5.771166
     16          1           0      -11.442883    2.742735   -6.091802
     17          1           0      -11.013888    4.282213   -6.854123
     18          6           0       -8.897823    3.392881   -8.399473
     19          1           0       -8.066355    3.548430   -7.701377
     20          1           0       -8.492434    2.927422   -9.306625
     21          1           0       -9.274487    4.378806   -8.688862
     22          7           0       -7.418886   -1.133498   -7.126100
     23          1           0       -6.997588   -0.250700   -6.824362
     24          6           0       -6.943939   -2.240931   -6.289964
     25          1           0       -7.798597   -2.886873   -6.064029
     26          6           0       -6.442805   -1.543869   -4.999928
     27          6           0       -5.829873   -3.091570   -6.964116
     28          1           0       -5.525051   -3.825317   -6.204906
     29          8           0       -6.257459   -0.321076   -4.998368
     30          6           0       -6.369880   -3.867401   -8.173254
     31          1           0       -6.663013   -3.190234   -8.983796
     32          1           0       -7.242737   -4.474534   -7.911560
     33          1           0       -5.596437   -4.535757   -8.565662
     34          6           0       -4.597765   -2.254420   -7.336806
     35          1           0       -4.841564   -1.513376   -8.107642
     36          1           0       -3.813554   -2.902171   -7.741036
     37          1           0       -4.180868   -1.721022   -6.476191
     38          7           0       -6.234470   -2.353390   -3.951140
     39          1           0       -6.285787   -3.364591   -4.056221
     40          6           0       -5.573964   -1.952167   -2.708383
     41          1           0       -5.045729   -1.011905   -2.897304
     42          6           0       -4.587339   -3.103799   -2.415769
     43          6           0       -6.590728   -1.748878   -1.543676
     44          1           0       -7.037932   -2.732413   -1.340932
     45          8           0       -4.858653   -4.247604   -2.788652
     46          6           0       -5.900815   -1.252054   -0.263064
     47          1           0       -5.408032   -0.285012   -0.429393
     48          1           0       -5.152089   -1.951618    0.118041
     49          1           0       -6.643995   -1.105738    0.527492
     50          6           0       -7.712278   -0.781336   -1.949653
     51          1           0       -7.309891    0.205491   -2.206176
     52          1           0       -8.277369   -1.151463   -2.810326
     53          1           0       -8.414696   -0.655836   -1.118594
     54          7           0       -3.455213   -2.782937   -1.755932
     55          1           0       -3.309230   -1.851699   -1.375573
     56          6           0       -2.523108   -3.780369   -1.259489
     57          1           0       -3.069541   -4.695885   -1.011292
     58          6           0       -1.851931   -3.191013   -0.017031
     59          6           0       -1.452207   -4.142442   -2.335361
     60          1           0       -0.957331   -3.217654   -2.662298
     61          1           0       -1.986557   -4.569740   -3.189037
     62          8           0       -1.928127   -1.994262    0.248057
     63          8           0       -0.523772   -5.101454   -1.871348
     64          1           0        0.235713   -4.621106   -1.473963
     65          7           0       -1.141921   -4.096783    0.725064
     66          1           0       -0.921648   -4.946491    0.205063
     67          6           0       -0.079079   -3.620579    1.609511
     68          1           0       -0.485325   -2.793437    2.197513
     69          6           0        1.097962   -3.115308    0.749564
     70          6           0        0.290672   -4.775673    2.579515
     71          1           0        0.661447   -5.617210    1.966878
     72          8           0        1.309195   -3.559070   -0.388558
     73          6           0        1.346648   -4.408650    3.613847
     74          1           0        2.313304   -4.181168    3.157258
     75          1           0        1.022248   -3.546721    4.207744
     76          1           0        1.477007   -5.252595    4.296855
     77          8           0       -0.867882   -5.158221    3.302141
     78          1           0       -1.592335   -5.255972    2.661692
     79          7           0        1.859823   -2.155926    1.307445
     80          1           0        1.726458   -1.887693    2.278348
     81          6           0        3.089760   -1.648407    0.715189
     82          1           0        3.454116   -2.400856    0.008488
     83          6           0        4.085048   -1.465017    1.875633
     84          6           0        2.883323   -0.299599   -0.011415
     85          1           0        3.857441    0.049904   -0.376788
     86          1           0        2.531723    0.451543    0.703167
     87          8           0        3.676692   -1.332596    3.035485
     88          6           0        1.892206   -0.371027   -1.177609
     89          1           0        0.920934   -0.733072   -0.817635
     90          1           0        2.230979   -1.085741   -1.937154
     91          6           0        1.660411    1.016794   -1.775540
     92          7           0        1.475857    1.045765   -3.133473
     93          1           0        1.739581    0.266071   -3.717358
     94          1           0        1.414064    1.956714   -3.568773
     95          8           0        1.592808    2.023851   -1.086611
     96          7           0        5.388368   -1.435327    1.539249
     97          1           0        5.692482   -1.465811    0.571301
     98          6           0        6.462516   -1.208696    2.505653
     99          1           0        6.182154   -1.702259    3.441682
    100          6           0        6.636929    0.306914    2.759619
    101          6           0        7.767545   -1.804539    1.935107
    102          1           0        8.581524   -1.504206    2.608718
    103          8           0        7.568875    0.946066    2.258473
    104          6           0        7.739618   -3.322663    1.822913
    105          1           0        7.616944   -3.784158    2.808688
    106          1           0        6.921518   -3.660252    1.177924
    107          1           0        8.680460   -3.672124    1.388462
    108          8           0        7.981073   -1.263785    0.632843
    109          1           0        8.130989   -0.309911    0.795010
    110          7           0        5.686074    0.871416    3.531770
    111          1           0        4.974251    0.270381    3.933239
    112          6           0        5.759908    2.266625    3.939457
    113          1           0        5.946700    2.868962    3.043593
    114          6           0        6.928398    2.455390    4.935756
    115          6           0        4.439713    2.685868    4.595240
    116          1           0        4.472918    3.743210    4.874236
    117          1           0        3.600905    2.536553    3.907533
    118          1           0        4.264978    2.099878    5.504280
    119          8           0        7.183245    1.605088    5.782126
    120          7           0        7.594483    3.629217    4.803466
    121          1           0        7.267869    4.339197    4.157357
    122          6           0        8.624486    4.078831    5.724221
    123          1           0        8.537532    3.474744    6.631894
    124          6           0        8.337060    5.558443    6.028073
    125          6           0       10.048529    3.948599    5.126222
    126          1           0       10.089552    4.588629    4.234285
    127          1           0       10.764936    4.371632    5.845744
    128          8           0        7.730236    6.267742    5.225452
    129          6           0       10.491536    2.520758    4.751728
    130          1           0        9.735128    2.099534    4.075818
    131          6           0       11.823691    2.582770    3.987752
    132          1           0       12.621467    3.001658    4.615412
    133          1           0       11.744051    3.205356    3.088480
    134          1           0       12.141259    1.581489    3.674704
    135          6           0       10.605598    1.602100    5.977651
    136          1           0       11.306786    2.014762    6.716218
    137          1           0       10.984107    0.616014    5.683091
    138          1           0        9.634906    1.448667    6.458137
    139          7           0        8.826331    6.024559    7.202999
    140          1           0        9.378195    5.432296    7.813004
    141          6           0        8.771823    7.433593    7.558937
    142          1           0        9.007071    8.031198    6.670232
    143          6           0        9.853195    7.675769    8.601484
    144          6           0        7.385973    7.863186    8.078074
    145          1           0        7.379639    8.930452    8.316085
    146          1           0        6.646623    7.667626    7.298128
    147          1           0        7.115894    7.296077    8.974940
    148          8           0       10.502512    6.803479    9.139194
    149          8           0        9.995992    8.985356    8.879891
    150          1           0       10.686356    9.053229    9.566806
 ---------------------------------------------------------------------

 SCF Done:  E(RB3LYP) =  -3455.50134122     A.U. after    1 cycles

 Alpha  occ. eigenvalues --  -19.27145 -19.24638 -19.21967 -19.20120 -19.19848
 Alpha  occ. eigenvalues --  -19.19653 -19.19651 -19.19442 -19.19154 -19.18607
 Alpha  occ. eigenvalues --  -19.18031 -19.16813 -19.15998 -19.15507 -19.14339
 Alpha  occ. eigenvalues --  -14.60107 -14.49358 -14.45377 -14.43827 -14.43034
 Alpha  occ. eigenvalues --  -14.42938 -14.42696 -14.40819 -14.40378 -14.40030
 Alpha  occ. eigenvalues --  -14.38996 -10.43744 -10.40868 -10.38937 -10.37048
 Alpha  occ. eigenvalues --  -10.36803 -10.36329 -10.36211 -10.35560 -10.34266
 Alpha  occ. eigenvalues --  -10.33883 -10.33692 -10.33487 -10.32553 -10.32482
 Alpha  occ. eigenvalues --  -10.31692 -10.31601 -10.30395 -10.30241 -10.30109
 Alpha  occ. eigenvalues --  -10.30032 -10.29874 -10.29463 -10.29206 -10.28407
 Alpha  occ. eigenvalues --  -10.28384 -10.28364 -10.28317 -10.27545 -10.27309
 Alpha  occ. eigenvalues --  -10.26524 -10.26388 -10.26271 -10.25226 -10.24929
 Alpha  occ. eigenvalues --  -10.24602 -10.24445 -10.22923 -10.22884 -10.22137
 Alpha  occ. eigenvalues --  -10.21872 -10.21633 -10.20955 -10.19425 -10.18762
 Alpha  occ. eigenvalues --   -1.19483  -1.15671  -1.14154  -1.13639  -1.12111
 Alpha  occ. eigenvalues --   -1.11416  -1.10835  -1.10186  -1.08596  -1.07918
 Alpha  occ. eigenvalues --   -1.07617  -1.07615  -1.07588  -1.06682  -1.06173
 Alpha  occ. eigenvalues --   -1.06119  -1.05482  -1.01988  -1.00202  -0.99583
 Alpha  occ. eigenvalues --   -0.99464  -0.98822  -0.96803  -0.96672  -0.95547
 Alpha  occ. eigenvalues --   -0.95313  -0.95296  -0.91285  -0.88849  -0.88047
 Alpha  occ. eigenvalues --   -0.86492  -0.84405  -0.83996  -0.82839  -0.82808
 Alpha  occ. eigenvalues --   -0.82225  -0.81942  -0.80955  -0.80504  -0.79470
 Alpha  occ. eigenvalues --   -0.79049  -0.78187  -0.77405  -0.77096  -0.76576
 Alpha  occ. eigenvalues --   -0.75411  -0.75133  -0.74138  -0.73181  -0.72162
 Alpha  occ. eigenvalues --   -0.71445  -0.71398  -0.70060  -0.69915  -0.69813
 Alpha  occ. eigenvalues --   -0.69522  -0.68506  -0.68346  -0.67566  -0.67372
 Alpha  occ. eigenvalues --   -0.66280  -0.66052  -0.65806  -0.65667  -0.64951
 Alpha  occ. eigenvalues --   -0.64797  -0.64052  -0.63959  -0.63379  -0.63206
 Alpha  occ. eigenvalues --   -0.62772  -0.62338  -0.61975  -0.61427  -0.60358
 Alpha  occ. eigenvalues --   -0.59859  -0.59211  -0.58973  -0.58659  -0.58448
 Alpha  occ. eigenvalues --   -0.58006  -0.57598  -0.57471  -0.56923  -0.56883
 Alpha  occ. eigenvalues --   -0.56491  -0.56138  -0.55854  -0.55204  -0.54893
 Alpha  occ. eigenvalues --   -0.54786  -0.54513  -0.54306  -0.54086  -0.53830
 Alpha  occ. eigenvalues --   -0.53754  -0.53587  -0.53099  -0.52488  -0.52400
 Alpha  occ. eigenvalues --   -0.52243  -0.51900  -0.51881  -0.51644  -0.51509
 Alpha  occ. eigenvalues --   -0.51162  -0.51015  -0.50768  -0.50748  -0.50321
 Alpha  occ. eigenvalues --   -0.49950  -0.49858  -0.49511  -0.49406  -0.49296
 Alpha  occ. eigenvalues --   -0.48750  -0.48717  -0.48497  -0.48238  -0.48094
 Alpha  occ. eigenvalues --   -0.47776  -0.47563  -0.47212  -0.46933  -0.46801
 Alpha  occ. eigenvalues --   -0.46738  -0.46625  -0.46297  -0.46162  -0.46034
 Alpha  occ. eigenvalues --   -0.45835  -0.45795  -0.45635  -0.45476  -0.45292
 Alpha  occ. eigenvalues --   -0.45239  -0.45187  -0.45140  -0.45053  -0.44841
 Alpha  occ. eigenvalues --   -0.44658  -0.44344  -0.44288  -0.44195  -0.43854
 Alpha  occ. eigenvalues --   -0.43524  -0.43343  -0.43110  -0.43062  -0.42913
 Alpha  occ. eigenvalues --   -0.42845  -0.42595  -0.42235  -0.42071  -0.41839
 Alpha  occ. eigenvalues --   -0.41751  -0.41471  -0.41438  -0.41319  -0.41102
 Alpha  occ. eigenvalues --   -0.41062  -0.40945  -0.40794  -0.40603  -0.40517
 Alpha  occ. eigenvalues --   -0.40104  -0.39953  -0.39755  -0.39332  -0.39265
 Alpha  occ. eigenvalues --   -0.38965  -0.38696  -0.37999  -0.37427  -0.36785
 Alpha  occ. eigenvalues --   -0.36111  -0.35991  -0.35145  -0.35085  -0.34553
 Alpha  occ. eigenvalues --   -0.34521  -0.34446  -0.34112  -0.33929  -0.33416
 Alpha  occ. eigenvalues --   -0.33057  -0.32902  -0.32765  -0.32173  -0.31920
 Alpha  occ. eigenvalues --   -0.31838  -0.31479  -0.31313  -0.30816  -0.29894
 Alpha  occ. eigenvalues --   -0.29724  -0.29542  -0.29107  -0.28013  -0.27757
 Alpha virt. eigenvalues --   -0.12339  -0.11601  -0.07693  -0.06936  -0.06304
 Alpha virt. eigenvalues --   -0.05554  -0.05184  -0.04653  -0.04327  -0.03942
 Alpha virt. eigenvalues --   -0.02657  -0.02461  -0.02055  -0.01662  -0.01370

 Mulliken charges:
               1
     1  N   -0.758532
     2  H    0.415630
     3  H    0.412624
     4  H    0.434180
     5  C   -0.116894
     6  H    0.216075
     7  C    0.649881
     8  C   -0.300784
     9  H    0.201061
    10  H    0.172376
    11  O   -0.541082
    12  C   -0.096801
    13  H    0.112004
    14  C   -0.448507
    15  H    0.168750
    16  H    0.158335
    17  H    0.175158
    18  C   -0.455425
    19  H    0.170803
    20  H    0.132695
    21  H    0.183554
    22  N   -0.592200
    23  H    0.373106
    24  C   -0.081894
    25  H    0.190530
    26  C    0.635255
    27  C   -0.086025
    28  H    0.160169
    29  O   -0.558350
    30  C   -0.444349
    31  H    0.137143
    32  H    0.162503
    33  H    0.168047
    34  C   -0.463345
    35  H    0.140422
    36  H    0.170500
    37  H    0.166423
    38  N   -0.608004
    39  H    0.363356
    40  C   -0.060490
    41  H    0.176248
    42  C    0.619360
    43  C   -0.073665
    44  H    0.146216
    45  O   -0.543456
    46  C   -0.469913
    47  H    0.152011
    48  H    0.163276
    49  H    0.164198
    50  C   -0.445074
    51  H    0.157091
    52  H    0.136678
    53  H    0.156915
    54  N   -0.614796
    55  H    0.362071
    56  C   -0.072851
    57  H    0.194791
    58  C    0.604023
    59  C   -0.036422
    60  H    0.138537
    61  H    0.171772
    62  O   -0.526219
    63  O   -0.646892
    64  H    0.442100
    65  N   -0.632931
    66  H    0.350596
    67  C   -0.092967
    68  H    0.192222
    69  C    0.646946
    70  C    0.141605
    71  H    0.127407
    72  O   -0.574400
    73  C   -0.469436
    74  H    0.157728
    75  H    0.161818
    76  H    0.180901
    77  O   -0.618148
    78  H    0.402417
    79  N   -0.592628
    80  H    0.365261
    81  C   -0.071572
    82  H    0.181721
    83  C    0.637349
    84  C   -0.261259
    85  H    0.151891
    86  H    0.186955
    87  O   -0.557797
    88  C   -0.364682
    89  H    0.194422
    90  H    0.142961
    91  C    0.594050
    92  N   -0.748143
    93  H    0.333099
    94  H    0.341785
    95  O   -0.500619
    96  N   -0.600965
    97  H    0.351622
    98  C   -0.084226
    99  H    0.185108
   100  C    0.650984
   101  C    0.110431
   102  H    0.153940
   103  O   -0.552240
   104  C   -0.450216
   105  H    0.150894
   106  H    0.144499
   107  H    0.172609
   108  O   -0.654537
   109  H    0.421532
   110  N   -0.598813
   111  H    0.365596
   112  C   -0.040312
   113  H    0.165359
   114  C    0.637700
   115  C   -0.480714
   116  H    0.171663
   117  H    0.167449
   118  H    0.173803
   119  O   -0.534810
   120  N   -0.595285
   121  H    0.345694
   122  C   -0.074725
   123  H    0.179578
   124  C    0.623750
   125  C   -0.251867
   126  H    0.142439
   127  H    0.132961
   128  O   -0.543527
   129  C   -0.075404
   130  H    0.155289
   131  C   -0.443393
   132  H    0.137943
   133  H    0.140163
   134  H    0.143022
   135  C   -0.465886
   136  H    0.128413
   137  H    0.138574
   138  H    0.179409
   139  N   -0.617992
   140  H    0.355415
   141  C   -0.019756
   142  H    0.198398
   143  C    0.580097
   144  C   -0.451936
   145  H    0.171220
   146  H    0.189606
   147  H    0.156983
   148  O   -0.466545
   149  O   -0.560956
   150  H    0.421509
 Sum of Mulliken charges =   1.00000

 Dipole moment (field-independent basis, Debye):
    X=            -34.0972    Y=              3.0444    Z=            -32.7086  Tot=             47.3470
 Quadrupole moment (field-independent basis, Debye-Ang):
   XX=            -15.0461   YY=           -383.2671   ZZ=            -65.1597
   XY=              8.8240   XZ=            361.4466   YZ=             20.8326

 Normal termination of Gaussian 16 at Tue Jul 12 00:10:29 2022.
