 Gaussian 16, Revision C.01,
 Gaussian 16:  ES64L-G16RevC.01  3-Jul-2019

 -------------------------------------------------------------------
 # B3LYP/6-31G* guess=read geom=check nosymm integral(ultrafinegrid)
 -------------------------------------------------------------------

 ------------------------------------------------------
 Candidate Structure: Conf:981 Charge calc in gas phase
 ------------------------------------------------------
 Structure from the checkpoint file:  "conf-981.chk"
 Charge =  1 Multiplicity = 1

                          Input orientation:
 ---------------------------------------------------------------------
 Center     Atomic      Atomic             Coordinates (Angstroms)
 Number     Number       Type             X           Y           Z
 ---------------------------------------------------------------------
      1          7           0      -10.666527   -7.908554   -7.557405
      2          1           0      -10.717623   -7.857440   -8.578937
      3          1           0      -11.570324   -8.228914   -7.198780
      4          1           0       -9.878720   -8.575479   -7.285662
      5          6           0      -10.195465   -6.614730   -6.912677
      6          1           0      -10.315023   -5.811868   -7.642323
      7          6           0       -8.695237   -6.927332   -6.639977
      8          6           0      -11.028081   -6.350994   -5.642386
      9          1           0      -10.843151   -7.170414   -4.934588
     10          1           0      -12.090180   -6.399355   -5.926925
     11          8           0       -8.355190   -8.122243   -6.672909
     12          6           0      -10.789921   -4.996023   -4.935778
     13          1           0       -9.740795   -4.938582   -4.620937
     14          6           0      -11.089892   -3.796837   -5.848809
     15          1           0      -12.127672   -3.818783   -6.205500
     16          1           0      -10.433532   -3.746854   -6.727268
     17          1           0      -10.947559   -2.861173   -5.300072
     18          6           0      -11.654620   -4.943153   -3.666084
     19          1           0      -12.723587   -4.980564   -3.910616
     20          1           0      -11.431550   -5.776740   -2.990603
     21          1           0      -11.470737   -4.013084   -3.119749
     22          7           0       -7.898038   -5.895134   -6.399742
     23          1           0       -8.272507   -4.954704   -6.266104
     24          6           0       -6.505417   -5.990499   -5.938909
     25          1           0       -6.344576   -7.003522   -5.558032
     26          6           0       -6.436129   -4.938252   -4.804112
     27          6           0       -5.494009   -5.694061   -7.087936
     28          1           0       -5.617451   -4.634426   -7.353002
     29          8           0       -7.196698   -3.964117   -4.852522
     30          6           0       -4.043077   -5.921879   -6.633319
     31          1           0       -3.882481   -6.968455   -6.343272
     32          1           0       -3.745193   -5.289797   -5.793073
     33          1           0       -3.360706   -5.707554   -7.462148
     34          6           0       -5.795518   -6.543993   -8.331770
     35          1           0       -5.738091   -7.614912   -8.105223
     36          1           0       -5.062722   -6.326400   -9.115532
     37          1           0       -6.787752   -6.333696   -8.743905
     38          7           0       -5.555904   -5.170405   -3.816208
     39          1           0       -4.843420   -5.889248   -3.927234
     40          6           0       -5.202696   -4.181419   -2.799126
     41          1           0       -5.516715   -3.199062   -3.166656
     42          6           0       -3.663730   -4.233877   -2.683438
     43          6           0       -5.887659   -4.442054   -1.425415
     44          1           0       -5.507621   -3.661645   -0.751583
     45          8           0       -3.029569   -5.178571   -3.167540
     46          6           0       -7.410485   -4.276778   -1.519190
     47          1           0       -7.851836   -5.054894   -2.152908
     48          1           0       -7.687989   -3.304690   -1.939636
     49          1           0       -7.860656   -4.362476   -0.524066
     50          6           0       -5.510359   -5.807258   -0.832521
     51          1           0       -5.874985   -6.625236   -1.465401
     52          1           0       -4.427610   -5.926250   -0.721000
     53          1           0       -5.963524   -5.927623    0.157013
     54          7           0       -3.098053   -3.219086   -2.010697
     55          1           0       -3.646049   -2.479463   -1.578625
     56          6           0       -1.685300   -3.161148   -1.679874
     57          1           0       -1.340402   -4.166873   -1.411337
     58          6           0       -1.574773   -2.220146   -0.457475
     59          6           0       -0.827733   -2.671846   -2.855673
     60          1           0       -0.992648   -3.350138   -3.704626
     61          1           0        0.235489   -2.732979   -2.576172
     62          8           0       -2.551914   -1.589749   -0.061762
     63          8           0       -1.217866   -1.340635   -3.149702
     64          1           0       -0.625218   -0.995229   -3.833773
     65          7           0       -0.354223   -2.187945    0.132468
     66          1           0        0.456400   -2.529633   -0.384946
     67          6           0        0.034715   -1.141409    1.072917
     68          1           0       -0.644545   -0.289202    0.955555
     69          6           0        1.473966   -0.740781    0.671918
     70          6           0       -0.014844   -1.639725    2.543524
     71          1           0        0.396599   -0.847354    3.178915
     72          8           0        2.093437   -1.388473   -0.177338
     73          6           0       -1.429599   -1.970785    3.017143
     74          1           0       -2.094816   -1.105050    2.935331
     75          1           0       -1.865917   -2.778526    2.419089
     76          1           0       -1.392414   -2.294474    4.061722
     77          8           0        0.871393   -2.736296    2.717396
     78          1           0        0.533004   -3.461733    2.166422
     79          7           0        1.972346    0.337952    1.301485
     80          1           0        1.451705    0.832378    2.021132
     81          6           0        3.360037    0.769792    1.188303
     82          1           0        4.009720   -0.108482    1.196638
     83          6           0        3.629504    1.621567    2.443000
     84          6           0        3.569860    1.541694   -0.142058
     85          1           0        2.892284    2.403932   -0.150554
     86          1           0        3.243837    0.864159   -0.938152
     87          8           0        2.679257    2.072761    3.104497
     88          6           0        4.997561    2.043135   -0.451131
     89          1           0        5.299491    2.802789    0.277591
     90          1           0        4.985394    2.529256   -1.433705
     91          6           0        6.051677    0.943846   -0.394166
     92          7           0        6.689645    0.651056   -1.557087
     93          1           0        6.542835    1.175751   -2.405228
     94          1           0        7.425480   -0.042217   -1.537200
     95          8           0        6.304452    0.340768    0.649446
     96          7           0        4.918426    1.853976    2.736136
     97          1           0        5.654502    1.379279    2.203853
     98          6           0        5.304084    2.681231    3.869990
     99          1           0        4.522318    3.439269    3.999458
    100          6           0        6.635489    3.354452    3.510229
    101          6           0        5.382194    1.849212    5.188747
    102          1           0        6.219224    1.146224    5.092939
    103          8           0        7.450338    2.805239    2.774513
    104          6           0        5.597719    2.724263    6.426228
    105          1           0        6.580271    3.207787    6.428026
    106          1           0        4.812304    3.489765    6.505051
    107          1           0        5.525854    2.091630    7.315761
    108          8           0        4.220080    1.044893    5.324248
    109          1           0        3.456654    1.543758    4.982011
    110          7           0        6.834331    4.601576    4.025587
    111          1           0        6.235845    4.900079    4.784980
    112          6           0        8.144268    5.233810    3.934247
    113          1           0        8.450259    5.187888    2.884593
    114          6           0        9.168849    4.468353    4.800951
    115          6           0        8.052383    6.691740    4.397757
    116          1           0        9.020698    7.189216    4.287680
    117          1           0        7.312221    7.238779    3.805153
    118          1           0        7.768297    6.738928    5.455223
    119          8           0        8.858916    4.025449    5.905514
    120          7           0       10.406792    4.368464    4.263237
    121          1           0       10.631067    4.836180    3.392151
    122          6           0       11.549734    3.801903    4.959234
    123          1           0       11.296430    3.764503    6.022572
    124          6           0       12.735780    4.748140    4.712156
    125          6           0       11.913893    2.386984    4.441414
    126          1           0       12.182293    2.485756    3.380805
    127          1           0       12.824211    2.055367    4.962367
    128          8           0       12.794988    5.441169    3.697561
    129          6           0       10.820479    1.311789    4.594694
    130          1           0        9.908456    1.685442    4.110228
    131          6           0       11.252449    0.034637    3.857012
    132          1           0       12.165904   -0.387899    4.296673
    133          1           0       11.450820    0.230387    2.796421
    134          1           0       10.471164   -0.731553    3.914946
    135          6           0       10.496380    1.010628    6.065761
    136          1           0       11.394538    0.684473    6.608752
    137          1           0        9.759479    0.202051    6.137376
    138          1           0       10.073851    1.882680    6.573617
    139          7           0       13.714954    4.725103    5.652067
    140          1           0       13.622730    4.131409    6.464613
    141          6           0       14.952604    5.477480    5.486577
    142          1           0       15.177852    5.498727    4.415336
    143          6           0       16.131708    4.797004    6.169886
    144          6           0       14.834449    6.932695    5.978661
    145          1           0       15.781304    7.457298    5.825039
    146          1           0       14.048572    7.435968    5.410084
    147          1           0       14.579102    6.966296    7.043215
    148          8           0       17.276794    5.162920    6.054185
    149          8           0       15.766280    3.754717    6.960127
    150          1           0       16.587242    3.414906    7.364522
 ---------------------------------------------------------------------

 SCF Done:  E(RB3LYP) =  -3455.48607909     A.U. after    2 cycles

 Alpha  occ. eigenvalues --  -19.26738 -19.24585 -19.21512 -19.20866 -19.19203
 Alpha  occ. eigenvalues --  -19.18450 -19.18251 -19.18183 -19.16668 -19.16353
 Alpha  occ. eigenvalues --  -19.16275 -19.15939 -19.15732 -19.15675 -19.14904
 Alpha  occ. eigenvalues --  -14.59966 -14.49315 -14.45014 -14.42863 -14.41446
 Alpha  occ. eigenvalues --  -14.40999 -14.40406 -14.40297 -14.40295 -14.39517
 Alpha  occ. eigenvalues --  -14.39407 -10.43491 -10.40693 -10.38598 -10.36563
 Alpha  occ. eigenvalues --  -10.36200 -10.35241 -10.34097 -10.34025 -10.33673
 Alpha  occ. eigenvalues --  -10.33460 -10.33165 -10.32969 -10.32755 -10.32074
 Alpha  occ. eigenvalues --  -10.31022 -10.30834 -10.30160 -10.30089 -10.29186
 Alpha  occ. eigenvalues --  -10.28527 -10.28227 -10.28177 -10.28110 -10.27585
 Alpha  occ. eigenvalues --  -10.27583 -10.27372 -10.27070 -10.27015 -10.26816
 Alpha  occ. eigenvalues --  -10.26746 -10.26348 -10.25639 -10.24661 -10.24439
 Alpha  occ. eigenvalues --  -10.24332 -10.24227 -10.22998 -10.21964 -10.21796
 Alpha  occ. eigenvalues --  -10.21622 -10.20998 -10.19729 -10.19414 -10.18869
 Alpha  occ. eigenvalues --   -1.19187  -1.15165  -1.13880  -1.13278  -1.11166
 Alpha  occ. eigenvalues --   -1.10069  -1.08744  -1.08285  -1.08160  -1.08068
 Alpha  occ. eigenvalues --   -1.07790  -1.07547  -1.06429  -1.06093  -1.06059
 Alpha  occ. eigenvalues --   -1.05866  -1.03507  -1.01510  -0.99442  -0.98042
 Alpha  occ. eigenvalues --   -0.96970  -0.96915  -0.96680  -0.96117  -0.95917
 Alpha  occ. eigenvalues --   -0.95447  -0.94662  -0.90624  -0.88180  -0.87761
 Alpha  occ. eigenvalues --   -0.84914  -0.84085  -0.83799  -0.82584  -0.82187
 Alpha  occ. eigenvalues --   -0.81756  -0.81206  -0.79974  -0.79659  -0.78626
 Alpha  occ. eigenvalues --   -0.77842  -0.77578  -0.77092  -0.76866  -0.75324
 Alpha  occ. eigenvalues --   -0.75113  -0.73917  -0.73518  -0.73055  -0.72049
 Alpha  occ. eigenvalues --   -0.71714  -0.71173  -0.70132  -0.69858  -0.68920
 Alpha  occ. eigenvalues --   -0.68363  -0.67976  -0.67663  -0.66999  -0.66788
 Alpha  occ. eigenvalues --   -0.65589  -0.65136  -0.64881  -0.64278  -0.64012
 Alpha  occ. eigenvalues --   -0.63903  -0.63717  -0.63102  -0.63066  -0.62734
 Alpha  occ. eigenvalues --   -0.62053  -0.61964  -0.61750  -0.61635  -0.59884
 Alpha  occ. eigenvalues --   -0.59477  -0.59100  -0.58736  -0.58660  -0.58531
 Alpha  occ. eigenvalues --   -0.57810  -0.57513  -0.56741  -0.56044  -0.55737
 Alpha  occ. eigenvalues --   -0.54985  -0.54612  -0.54511  -0.54371  -0.54203
 Alpha  occ. eigenvalues --   -0.53901  -0.53535  -0.53287  -0.53216  -0.52547
 Alpha  occ. eigenvalues --   -0.52404  -0.52339  -0.52235  -0.52147  -0.51719
 Alpha  occ. eigenvalues --   -0.51642  -0.51444  -0.51218  -0.51098  -0.50591
 Alpha  occ. eigenvalues --   -0.50404  -0.50307  -0.49903  -0.49782  -0.49347
 Alpha  occ. eigenvalues --   -0.49263  -0.49032  -0.48998  -0.48594  -0.48467
 Alpha  occ. eigenvalues --   -0.48170  -0.48039  -0.47988  -0.47745  -0.47706
 Alpha  occ. eigenvalues --   -0.47423  -0.46973  -0.46752  -0.46518  -0.46494
 Alpha  occ. eigenvalues --   -0.46262  -0.46133  -0.45809  -0.45534  -0.45438
 Alpha  occ. eigenvalues --   -0.45273  -0.45233  -0.45018  -0.44734  -0.44702
 Alpha  occ. eigenvalues --   -0.44643  -0.44494  -0.44265  -0.44178  -0.44035
 Alpha  occ. eigenvalues --   -0.43947  -0.43859  -0.43671  -0.43384  -0.42977
 Alpha  occ. eigenvalues --   -0.42845  -0.42723  -0.42600  -0.42550  -0.42402
 Alpha  occ. eigenvalues --   -0.42139  -0.41559  -0.41520  -0.41467  -0.41287
 Alpha  occ. eigenvalues --   -0.41239  -0.40944  -0.40937  -0.40835  -0.40738
 Alpha  occ. eigenvalues --   -0.40660  -0.40590  -0.40296  -0.40143  -0.40081
 Alpha  occ. eigenvalues --   -0.39821  -0.39617  -0.39582  -0.39029  -0.38988
 Alpha  occ. eigenvalues --   -0.38598  -0.38158  -0.36758  -0.36243  -0.35592
 Alpha  occ. eigenvalues --   -0.35517  -0.35148  -0.34836  -0.34623  -0.34496
 Alpha  occ. eigenvalues --   -0.33973  -0.33338  -0.32827  -0.32455  -0.32211
 Alpha  occ. eigenvalues --   -0.31965  -0.31907  -0.31315  -0.31204  -0.30783
 Alpha  occ. eigenvalues --   -0.30487  -0.30149  -0.29993  -0.29721  -0.29661
 Alpha  occ. eigenvalues --   -0.29518  -0.28965  -0.28190  -0.28160  -0.27808
 Alpha virt. eigenvalues --   -0.12272  -0.11094  -0.07520  -0.06534  -0.05237
 Alpha virt. eigenvalues --   -0.04951  -0.03856  -0.03471  -0.02989  -0.02606
 Alpha virt. eigenvalues --   -0.02247  -0.02037  -0.01619  -0.01328  -0.00966

 Mulliken charges:
               1
     1  N   -0.757380
     2  H    0.415643
     3  H    0.411836
     4  H    0.434000
     5  C   -0.116933
     6  H    0.213537
     7  C    0.649828
     8  C   -0.286858
     9  H    0.175418
    10  H    0.159454
    11  O   -0.543073
    12  C   -0.110754
    13  H    0.170066
    14  C   -0.460617
    15  H    0.154795
    16  H    0.135887
    17  H    0.189026
    18  C   -0.451952
    19  H    0.154209
    20  H    0.157340
    21  H    0.177126
    22  N   -0.598401
    23  H    0.380903
    24  C   -0.073967
    25  H    0.187193
    26  C    0.629101
    27  C   -0.078121
    28  H    0.149700
    29  O   -0.552056
    30  C   -0.478393
    31  H    0.154454
    32  H    0.178390
    33  H    0.166570
    34  C   -0.446636
    35  H    0.163348
    36  H    0.168310
    37  H    0.125778
    38  N   -0.598469
    39  H    0.365689
    40  C   -0.074551
    41  H    0.187839
    42  C    0.633764
    43  C   -0.079473
    44  H    0.151226
    45  O   -0.559446
    46  C   -0.445393
    47  H    0.135483
    48  H    0.158195
    49  H    0.155439
    50  C   -0.462103
    51  H    0.142352
    52  H    0.165377
    53  H    0.160458
    54  N   -0.603919
    55  H    0.367647
    56  C   -0.070881
    57  H    0.185981
    58  C    0.631355
    59  C   -0.044527
    60  H    0.158562
    61  H    0.146102
    62  O   -0.531610
    63  O   -0.611909
    64  H    0.405287
    65  N   -0.635650
    66  H    0.362746
    67  C   -0.084713
    68  H    0.181355
    69  C    0.647428
    70  C    0.133883
    71  H    0.153662
    72  O   -0.557270
    73  C   -0.454726
    74  H    0.156288
    75  H    0.143120
    76  H    0.165157
    77  O   -0.613430
    78  H    0.389483
    79  N   -0.625754
    80  H    0.359888
    81  C   -0.043176
    82  H    0.214612
    83  C    0.613301
    84  C   -0.269127
    85  H    0.153618
    86  H    0.176156
    87  O   -0.583190
    88  C   -0.377381
    89  H    0.191398
    90  H    0.140555
    91  C    0.625798
    92  N   -0.740294
    93  H    0.343507
    94  H    0.352400
    95  O   -0.513499
    96  N   -0.618809
    97  H    0.407558
    98  C   -0.117239
    99  H    0.163333
   100  C    0.629297
   101  C    0.178746
   102  H    0.149188
   103  O   -0.530252
   104  C   -0.501624
   105  H    0.188599
   106  H    0.123656
   107  H    0.169894
   108  O   -0.639357
   109  H    0.408164
   110  N   -0.591180
   111  H    0.339088
   112  C   -0.048188
   113  H    0.167859
   114  C    0.640739
   115  C   -0.476348
   116  H    0.172120
   117  H    0.167020
   118  H    0.169441
   119  O   -0.534381
   120  N   -0.591008
   121  H    0.347463
   122  C   -0.077612
   123  H    0.176957
   124  C    0.626640
   125  C   -0.250445
   126  H    0.143853
   127  H    0.131233
   128  O   -0.540135
   129  C   -0.077195
   130  H    0.160160
   131  C   -0.442764
   132  H    0.134662
   133  H    0.139436
   134  H    0.148413
   135  C   -0.466886
   136  H    0.124650
   137  H    0.144673
   138  H    0.177015
   139  N   -0.615211
   140  H    0.352424
   141  C   -0.041009
   142  H    0.210487
   143  C    0.588828
   144  C   -0.447476
   145  H    0.180492
   146  H    0.181243
   147  H    0.153306
   148  O   -0.450504
   149  O   -0.581831
   150  H    0.421429
 Sum of Mulliken charges =   1.00000

 Dipole moment (field-independent basis, Debye):
    X=            -33.8962    Y=            -23.1813    Z=            -29.3859  Tot=             50.4961
 Quadrupole moment (field-independent basis, Debye-Ang):
   XX=             94.8868   YY=           -199.7083   ZZ=           -175.4815
   XY=            319.5009   XZ=            314.1980   YZ=            218.6234

 Normal termination of Gaussian 16 at Tue Jul 12 00:11:05 2022.
