 Gaussian 16, Revision C.01,
 Gaussian 16:  ES64L-G16RevC.01  3-Jul-2019

 -------------------------------------------------------------------
 # B3LYP/6-31G* guess=read geom=check nosymm integral(ultrafinegrid)
 -------------------------------------------------------------------

 ------------------------------------------------------
 Candidate Structure: Conf:981 Charge calc in gas phase
 ------------------------------------------------------
 Structure from the checkpoint file:  "conf-981.chk"
 Charge =  1 Multiplicity = 1

                          Input orientation:
 ---------------------------------------------------------------------
 Center     Atomic      Atomic             Coordinates (Angstroms)
 Number     Number       Type             X           Y           Z
 ---------------------------------------------------------------------
      1          7           0       -0.960048    2.851697   -1.754905
      2          1           0       -0.629596    3.742405   -1.383474
      3          1           0       -1.143283    3.003707   -2.747647
      4          6           0       -2.233994    2.496135   -1.105553
      5          1           0       -2.004939    2.221595   -0.070946
      6          6           0       -2.767743    1.291795   -1.899903
      7          6           0       -3.302131    3.617713   -1.080443
      8          1           0       -2.842316    4.505653   -0.627195
      9          1           0       -3.555021    3.866576   -2.116174
     10          8           0       -3.165619    1.452363   -3.049151
     11          6           0       -4.544153    3.224585   -0.307177
     12          6           0       -5.649479    2.658763   -0.959346
     13          1           0       -5.622253    2.532328   -2.038429
     14          6           0       -4.596799    3.379010    1.086137
     15          1           0       -3.755746    3.833527    1.606923
     16          6           0       -6.777324    2.262877   -0.238184
     17          1           0       -7.629518    1.838318   -0.762267
     18          6           0       -5.722482    2.982099    1.809843
     19          1           0       -5.749743    3.122700    2.887284
     20          6           0       -6.817250    2.422102    1.148299
     21          1           0       -7.699049    2.122511    1.708048
     22          7           0       -2.712455    0.039019   -1.341936
     23          6           0       -2.444682   -0.298093    0.060641
     24          1           0       -2.923384    0.410419    0.743387
     25          6           0       -0.951314   -0.293472    0.455859
     26          6           0       -3.077843   -1.701473    0.213805
     27          1           0       -2.584496   -2.281661    0.998154
     28          1           0       -4.130232   -1.587289    0.494190
     29          8           0       -0.646103   -0.471772    1.644400
     30          6           0       -2.964501   -2.306014   -1.194641
     31          1           0       -1.951097   -2.688847   -1.368428
     32          1           0       -3.665567   -3.127600   -1.364245
     33          6           0       -3.240458   -1.108647   -2.110401
     34          1           0       -4.312459   -0.965692   -2.292288
     35          1           0       -2.747611   -1.169767   -3.083253
     36          7           0       -0.074735   -0.106655   -0.553150
     37          1           0       -0.474632    0.081664   -1.467614
     38          6           0        1.321635    0.297536   -0.436961
     39          1           0        1.368387    1.347363   -0.114204
     40          6           0        1.903300    0.264909   -1.851254
     41          6           0        2.153375   -0.531607    0.561949
     42          1           0        1.720868   -0.344392    1.546836
     43          1           0        3.168043   -0.121362    0.567627
     44          8           0        1.295285   -0.070731   -2.840797
     45          6           0        2.202262   -2.044346    0.271484
     46          1           0        1.288110   -2.364331   -0.244494
     47          1           0        3.030737   -2.273868   -0.406327
     48          6           0        2.373901   -2.870313    1.564634
     49          1           0        3.111347   -2.370420    2.209993
     50          1           0        2.768209   -3.869009    1.340305
     51          6           0        1.032205   -2.987173    2.286453
     52          1           0        0.474115   -2.043981    2.299838
     53          1           0        0.398016   -3.760989    1.846471
     54          7           0        1.223853   -3.397082    3.750664
     55          1           0        0.323808   -3.490074    4.236611
     56          1           0        1.773550   -2.690632    4.254097
     57          1           0        1.722488   -4.291042    3.836203
     58          8           0        3.188220    0.670353   -1.857551
     59          1           0        3.486630    0.660506   -2.787465
 ---------------------------------------------------------------------

 SCF Done:  E(RB3LYP) =  -1300.51494708     A.U. after    2 cycles

 Alpha  occ. eigenvalues --  -19.29620 -19.24063 -19.21985 -19.18842 -14.64357
 Alpha  occ. eigenvalues --  -14.45985 -14.44601 -14.39714 -10.42099 -10.40140
 Alpha  occ. eigenvalues --  -10.38977 -10.35910 -10.34584 -10.34383 -10.32633
 Alpha  occ. eigenvalues --  -10.31341 -10.30162 -10.29877 -10.29707 -10.28585
 Alpha  occ. eigenvalues --  -10.27764 -10.25668 -10.25383 -10.24925 -10.24866
 Alpha  occ. eigenvalues --  -10.24686 -10.24627 -10.24452  -1.20625  -1.18166
 Alpha  occ. eigenvalues --   -1.13471  -1.11761  -1.11063  -1.03451  -1.01811
 Alpha  occ. eigenvalues --   -0.96463  -0.95185  -0.91268  -0.89631  -0.87985
 Alpha  occ. eigenvalues --   -0.85072  -0.84083  -0.82994  -0.80090  -0.79075
 Alpha  occ. eigenvalues --   -0.77961  -0.76815  -0.76044  -0.74438  -0.72627
 Alpha  occ. eigenvalues --   -0.71853  -0.69849  -0.67752  -0.66493  -0.66286
 Alpha  occ. eigenvalues --   -0.66252  -0.65269  -0.63838  -0.61995  -0.60834
 Alpha  occ. eigenvalues --   -0.60167  -0.59816  -0.58488  -0.57772  -0.56923
 Alpha  occ. eigenvalues --   -0.56703  -0.56070  -0.54264  -0.54060  -0.53120
 Alpha  occ. eigenvalues --   -0.52746  -0.52252  -0.51976  -0.51832  -0.51386
 Alpha  occ. eigenvalues --   -0.51261  -0.50740  -0.50197  -0.49456  -0.49219
 Alpha  occ. eigenvalues --   -0.48422  -0.47733  -0.47294  -0.46843  -0.46447
 Alpha  occ. eigenvalues --   -0.46062  -0.45858  -0.45190  -0.44135  -0.43630
 Alpha  occ. eigenvalues --   -0.43273  -0.42826  -0.42125  -0.41773  -0.41531
 Alpha  occ. eigenvalues --   -0.40046  -0.39524  -0.37642  -0.36602  -0.35969
 Alpha  occ. eigenvalues --   -0.33053  -0.32369  -0.31777  -0.30788  -0.29756
 Alpha virt. eigenvalues --   -0.14924  -0.09457  -0.08593  -0.08322  -0.07793
 Alpha virt. eigenvalues --   -0.06495  -0.06081  -0.05890  -0.05473  -0.02801
 Alpha virt. eigenvalues --   -0.01850  -0.00949   0.00341   0.00685   0.01859

 Mulliken charges:
               1
     1  N   -0.741907
     2  H    0.307983
     3  H    0.327415
     4  C   -0.046794
     5  H    0.132060
     6  C    0.606085
     7  C   -0.361022
     8  H    0.141719
     9  H    0.175263
    10  O   -0.518049
    11  C    0.151269
    12  C   -0.188318
    13  H    0.155214
    14  C   -0.190923
    15  H    0.121666
    16  C   -0.133253
    17  H    0.140518
    18  C   -0.130329
    19  H    0.134604
    20  C   -0.131896
    21  H    0.138259
    22  N   -0.492282
    23  C   -0.037817
    24  H    0.199200
    25  C    0.605740
    26  C   -0.298245
    27  H    0.139414
    28  H    0.176623
    29  O   -0.572979
    30  C   -0.309174
    31  H    0.145111
    32  H    0.169378
    33  C   -0.110415
    34  H    0.176632
    35  H    0.187114
    36  N   -0.609753
    37  H    0.385984
    38  C   -0.016690
    39  H    0.204788
    40  C    0.589655
    41  C   -0.293319
    42  H    0.166732
    43  H    0.182118
    44  O   -0.448893
    45  C   -0.280525
    46  H    0.170763
    47  H    0.180153
    48  C   -0.296780
    49  H    0.159070
    50  H    0.173802
    51  C   -0.244475
    52  H    0.285344
    53  H    0.215619
    54  N   -0.731290
    55  H    0.430776
    56  H    0.425166
    57  H    0.422126
    58  O   -0.568684
    59  H    0.430451
 Sum of Mulliken charges =   1.00000

 Dipole moment (field-independent basis, Debye):
    X=              5.2298    Y=            -12.5485    Z=             13.3778  Tot=             19.0730
 Quadrupole moment (field-independent basis, Debye-Ang):
   XX=           -130.6001   YY=           -101.8257   ZZ=           -113.1369
   XY=            -12.2111   XZ=              8.0411   YZ=            -48.3384

 Normal termination of Gaussian 16 at Fri May 27 03:53:52 2022.
