 Gaussian 16, Revision C.01,
 Gaussian 16:  ES64L-G16RevC.01  3-Jul-2019

 -------------------------------------------------------------------
 # B3LYP/6-31G* guess=read geom=check nosymm integral(ultrafinegrid)
 -------------------------------------------------------------------

 ------------------------------------------------------
 Candidate Structure: Conf:102 Charge calc in gas phase
 ------------------------------------------------------
 Structure from the checkpoint file:  "conf-102.chk"
 Charge =  1 Multiplicity = 1

                          Input orientation:
 ---------------------------------------------------------------------
 Center     Atomic      Atomic             Coordinates (Angstroms)
 Number     Number       Type             X           Y           Z
 ---------------------------------------------------------------------
      1          7           0       -3.521769   -1.880301    3.109016
      2          1           0       -3.823852   -2.141047    4.045476
      3          1           0       -2.798000   -2.534174    2.817271
      4          6           0       -2.967132   -0.529391    3.117225
      5          1           0       -3.787956    0.164518    3.311830
      6          6           0       -2.368685   -0.314487    1.719944
      7          6           0       -1.868315   -0.275836    4.199865
      8          1           0       -2.262319   -0.666110    5.146299
      9          1           0       -0.993787   -0.884757    3.938954
     10          8           0       -1.624684   -1.209415    1.271316
     11          6           0       -1.488661    1.178837    4.371515
     12          6           0       -0.500964    1.772850    3.573225
     13          1           0        0.026920    1.163188    2.842907
     14          6           0       -2.157687    1.983370    5.304838
     15          1           0       -2.920957    1.541202    5.941784
     16          6           0       -0.194845    3.129029    3.694573
     17          1           0        0.570664    3.570796    3.062027
     18          6           0       -1.852433    3.338905    5.435278
     19          1           0       -2.379043    3.942275    6.169522
     20          6           0       -0.871341    3.917286    4.627881
     21          1           0       -0.632471    4.972223    4.727916
     22          7           0       -2.622641    0.813812    1.018105
     23          6           0       -2.170477    0.939158   -0.394536
     24          1           0       -2.374335   -0.017991   -0.887355
     25          6           0       -0.651033    1.223256   -0.534817
     26          6           0       -3.014599    2.091574   -0.973292
     27          1           0       -2.397671    2.993523   -1.005637
     28          1           0       -3.340027    1.872626   -1.993598
     29          8           0       -0.193332    2.320348   -0.816889
     30          6           0       -4.183066    2.260059    0.008866
     31          1           0       -4.602375    3.269821   -0.004045
     32          1           0       -4.990446    1.553734   -0.215024
     33          6           0       -3.552879    1.911738    1.359328
     34          1           0       -4.284052    1.590235    2.099549
     35          1           0       -2.988141    2.754887    1.774305
     36          7           0        0.132065    0.107256   -0.365855
     37          1           0       -0.326149   -0.684669    0.098704
     38          6           0        1.574553    0.189820   -0.462723
     39          1           0        1.794207    1.229526   -0.736907
     40          6           0        2.025117   -0.695810   -1.627545
     41          6           0        2.288184   -0.188074    0.842905
     42          1           0        2.067178   -1.240794    1.066744
     43          1           0        1.821861    0.381243    1.652167
     44          8           0        2.693905   -1.727326   -1.532189
     45          6           0        3.810288    0.090335    0.831938
     46          1           0        4.205348    0.053560   -0.191783
     47          1           0        3.975983    1.117649    1.170963
     48          6           0        4.639136   -0.863016    1.718900
     49          1           0        4.080087   -1.133765    2.624939
     50          1           0        5.543606   -0.353086    2.070340
     51          6           0        5.143642   -2.123660    1.016704
     52          1           0        5.761200   -1.873447    0.150059
     53          1           0        5.727932   -2.754384    1.691189
     54          7           0        4.017972   -2.986928    0.474148
     55          1           0        4.385758   -3.830746    0.021959
     56          1           0        3.441927   -2.463863   -0.250482
     57          1           0        3.389343   -3.292569    1.223989
     58          8           0        1.596201   -0.257619   -2.801392
     59          1           0        1.878822   -0.886047   -3.494797
 ---------------------------------------------------------------------

 SCF Done:  E(RB3LYP) =  -1300.53337604     A.U. after    1 cycles

 Alpha  occ. eigenvalues --  -19.33111 -19.29258 -19.21125 -19.20684 -14.60256
 Alpha  occ. eigenvalues --  -14.45818 -14.45068 -14.38603 -10.46375 -10.40170
 Alpha  occ. eigenvalues --  -10.37912 -10.37401 -10.35574 -10.33987 -10.32248
 Alpha  occ. eigenvalues --  -10.32012 -10.31908 -10.30329 -10.30290 -10.26957
 Alpha  occ. eigenvalues --  -10.26777 -10.26571 -10.26345 -10.26303 -10.26179
 Alpha  occ. eigenvalues --  -10.25922 -10.25869 -10.25804  -1.24866  -1.15946
 Alpha  occ. eigenvalues --   -1.14607  -1.13178  -1.12087  -1.02805  -1.02532
 Alpha  occ. eigenvalues --   -0.96210  -0.94784  -0.92524  -0.90311  -0.87588
 Alpha  occ. eigenvalues --   -0.85529  -0.84935  -0.82772  -0.81438  -0.79558
 Alpha  occ. eigenvalues --   -0.78627  -0.75564  -0.74624  -0.74064  -0.73007
 Alpha  occ. eigenvalues --   -0.71447  -0.70653  -0.68766  -0.67636  -0.66695
 Alpha  occ. eigenvalues --   -0.65981  -0.65013  -0.64790  -0.63019  -0.62101
 Alpha  occ. eigenvalues --   -0.61318  -0.60171  -0.59401  -0.59322  -0.58249
 Alpha  occ. eigenvalues --   -0.57467  -0.56578  -0.55628  -0.55252  -0.53921
 Alpha  occ. eigenvalues --   -0.53747  -0.53133  -0.53073  -0.52406  -0.52075
 Alpha  occ. eigenvalues --   -0.51077  -0.50974  -0.50603  -0.49846  -0.49263
 Alpha  occ. eigenvalues --   -0.49055  -0.48523  -0.48021  -0.47805  -0.47326
 Alpha  occ. eigenvalues --   -0.46954  -0.46517  -0.45635  -0.45420  -0.44693
 Alpha  occ. eigenvalues --   -0.44009  -0.43634  -0.43066  -0.42461  -0.42242
 Alpha  occ. eigenvalues --   -0.41235  -0.41036  -0.40844  -0.36103  -0.35495
 Alpha  occ. eigenvalues --   -0.34505  -0.32735  -0.32285  -0.31994  -0.29972
 Alpha virt. eigenvalues --   -0.13695  -0.11869  -0.07769  -0.07370  -0.07254
 Alpha virt. eigenvalues --   -0.06487  -0.06358  -0.04315  -0.03854  -0.02914
 Alpha virt. eigenvalues --   -0.02111  -0.00696   0.00557   0.00819   0.01247

 Mulliken charges:
               1
     1  N   -0.707805
     2  H    0.305039
     3  H    0.313905
     4  C   -0.047268
     5  H    0.152389
     6  C    0.645067
     7  C   -0.370383
     8  H    0.150183
     9  H    0.142288
    10  O   -0.595538
    11  C    0.168769
    12  C   -0.198137
    13  H    0.120184
    14  C   -0.189385
    15  H    0.134127
    16  C   -0.133862
    17  H    0.133170
    18  C   -0.125598
    19  H    0.147016
    20  C   -0.132604
    21  H    0.145399
    22  N   -0.447423
    23  C   -0.057134
    24  H    0.181160
    25  C    0.606551
    26  C   -0.316800
    27  H    0.196424
    28  H    0.167586
    29  O   -0.491677
    30  C   -0.294551
    31  H    0.169367
    32  H    0.163116
    33  C   -0.143783
    34  H    0.179547
    35  H    0.185194
    36  N   -0.636611
    37  H    0.384920
    38  C   -0.038716
    39  H    0.223920
    40  C    0.629587
    41  C   -0.300020
    42  H    0.112714
    43  H    0.203326
    44  O   -0.537102
    45  C   -0.294234
    46  H    0.154268
    47  H    0.191840
    48  C   -0.292370
    49  H    0.173404
    50  H    0.201158
    51  C   -0.201777
    52  H    0.219031
    53  H    0.215611
    54  N   -0.770919
    55  H    0.413366
    56  H    0.464811
    57  H    0.405589
    58  O   -0.512072
    59  H    0.435744
 Sum of Mulliken charges =   1.00000

 Dipole moment (field-independent basis, Debye):
    X=             12.9242    Y=             -8.0922    Z=              4.3303  Tot=             15.8515
 Quadrupole moment (field-independent basis, Debye-Ang):
   XX=            -75.0614   YY=           -127.9058   ZZ=           -131.9670
   XY=            -51.1602   XZ=             -1.8503   YZ=              2.4653

 Normal termination of Gaussian 16 at Fri May 27 03:52:35 2022.
