 Gaussian 16, Revision C.01,
 Gaussian 16:  ES64L-G16RevC.01  3-Jul-2019

 -------------------------------------------------------------------
 # B3LYP/6-31G* guess=read geom=check nosymm integral(ultrafinegrid)
 -------------------------------------------------------------------

 ------------------------------------------------------
 Candidate Structure: Conf:684 Charge calc in gas phase
 ------------------------------------------------------
 Structure from the checkpoint file:  "conf-684.chk"
 Charge =  1 Multiplicity = 1

                          Input orientation:
 ---------------------------------------------------------------------
 Center     Atomic      Atomic             Coordinates (Angstroms)
 Number     Number       Type             X           Y           Z
 ---------------------------------------------------------------------
      1          7           0       -1.429433    3.671654    1.725640
      2          1           0       -0.744828    3.657671    0.971709
      3          1           0       -0.930108    3.598835    2.609082
      4          6           0       -2.388809    2.586946    1.568529
      5          1           0       -1.915244    1.582821    1.532332
      6          6           0       -3.114718    2.852360    0.226691
      7          6           0       -3.400638    2.587018    2.736610
      8          1           0       -2.861614    2.799618    3.668583
      9          1           0       -4.093233    3.416944    2.568092
     10          8           0       -3.947670    3.741217    0.138635
     11          6           0       -4.122908    1.261984    2.857892
     12          6           0       -5.090017    0.872094    1.917674
     13          1           0       -5.388976    1.572963    1.143098
     14          6           0       -3.802532    0.358960    3.886902
     15          1           0       -3.118179    0.673475    4.675319
     16          6           0       -5.688768   -0.388458    1.983959
     17          1           0       -6.443597   -0.662913    1.252306
     18          6           0       -4.401411   -0.906676    3.957540
     19          1           0       -4.170498   -1.571905    4.786526
     20          6           0       -5.339416   -1.287914    2.993944
     21          1           0       -5.817913   -2.261170    3.051293
     22          7           0       -2.716210    2.143660   -0.882785
     23          6           0       -2.144316    0.801928   -0.908589
     24          1           0       -2.686078    0.128907   -0.228237
     25          6           0       -0.658460    0.750181   -0.522808
     26          6           0       -2.363267    0.336338   -2.384050
     27          1           0       -1.565316   -0.318762   -2.743604
     28          1           0       -3.304895   -0.220311   -2.438102
     29          8           0        0.077243    1.712143   -0.440329
     30          6           0       -2.475511    1.652252   -3.167280
     31          1           0       -1.480845    2.064372   -3.369472
     32          1           0       -2.992582    1.525742   -4.121863
     33          6           0       -3.236905    2.557552   -2.201414
     34          1           0       -4.321739    2.397546   -2.251585
     35          1           0       -3.053413    3.623709   -2.347549
     36          7           0       -0.210128   -0.556930   -0.199054
     37          1           0       -0.789266   -1.279490   -0.623573
     38          6           0        1.234776   -0.850917   -0.342650
     39          1           0        1.732985    0.120478   -0.435210
     40          6           0        1.570209   -1.628286   -1.620181
     41          6           0        1.813712   -1.591820    0.879192
     42          1           0        2.820506   -1.923618    0.614627
     43          1           0        1.230057   -2.508524    1.041238
     44          8           0        2.680896   -2.011989   -1.885128
     45          6           0        1.854729   -0.709015    2.149242
     46          1           0        2.888104   -0.412478    2.354311
     47          1           0        1.328465    0.237383    1.960812
     48          6           0        1.299433   -1.364458    3.427509
     49          1           0        1.407725   -0.663924    4.265700
     50          1           0        1.892530   -2.247664    3.692503
     51          6           0       -0.160379   -1.820256    3.346086
     52          1           0       -0.295120   -2.698770    2.711650
     53          1           0       -0.567657   -2.046488    4.333806
     54          7           0       -1.028530   -0.737986    2.738865
     55          1           0       -2.042075   -0.892346    2.887471
     56          1           0       -0.830468   -0.645646    1.712839
     57          1           0       -0.831985    0.174550    3.163219
     58          8           0        0.490579   -1.848588   -2.411136
     59          1           0        0.807583   -2.341311   -3.193900
 ---------------------------------------------------------------------

 SCF Done:  E(RB3LYP) =  -1300.50618926     A.U. after    1 cycles

 Alpha  occ. eigenvalues --  -19.32708 -19.26780 -19.26263 -19.20836 -14.60602
 Alpha  occ. eigenvalues --  -14.50942 -14.46314 -14.41303 -10.44699 -10.42935
 Alpha  occ. eigenvalues --  -10.40534 -10.37880 -10.37294 -10.36214 -10.34450
 Alpha  occ. eigenvalues --  -10.33365 -10.32973 -10.32608 -10.31150 -10.31033
 Alpha  occ. eigenvalues --  -10.30949 -10.30916 -10.30839 -10.30159 -10.30093
 Alpha  occ. eigenvalues --  -10.29723 -10.28983 -10.28895  -1.23224  -1.18398
 Alpha  occ. eigenvalues --   -1.15390  -1.14261  -1.13079  -1.06600  -1.04477
 Alpha  occ. eigenvalues --   -0.99010  -0.96693  -0.95502  -0.91572  -0.89680
 Alpha  occ. eigenvalues --   -0.88641  -0.86963  -0.85752  -0.84891  -0.81924
 Alpha  occ. eigenvalues --   -0.79907  -0.77028  -0.74823  -0.74499  -0.73820
 Alpha  occ. eigenvalues --   -0.72824  -0.72700  -0.71715  -0.71307  -0.70066
 Alpha  occ. eigenvalues --   -0.68669  -0.67113  -0.64796  -0.64126  -0.63151
 Alpha  occ. eigenvalues --   -0.62288  -0.61712  -0.61268  -0.60520  -0.59686
 Alpha  occ. eigenvalues --   -0.58883  -0.58205  -0.57600  -0.57235  -0.56597
 Alpha  occ. eigenvalues --   -0.56198  -0.55695  -0.54889  -0.54601  -0.54466
 Alpha  occ. eigenvalues --   -0.54229  -0.53191  -0.53066  -0.52293  -0.51988
 Alpha  occ. eigenvalues --   -0.51298  -0.50885  -0.50429  -0.49740  -0.49034
 Alpha  occ. eigenvalues --   -0.48269  -0.47762  -0.47506  -0.47128  -0.46807
 Alpha  occ. eigenvalues --   -0.46105  -0.45748  -0.45299  -0.44759  -0.44593
 Alpha  occ. eigenvalues --   -0.44133  -0.43312  -0.43188  -0.39562  -0.38967
 Alpha  occ. eigenvalues --   -0.36789  -0.35779  -0.35100  -0.33874  -0.32920
 Alpha virt. eigenvalues --   -0.13522  -0.12623  -0.12074  -0.11620  -0.10899
 Alpha virt. eigenvalues --   -0.08543  -0.06913  -0.06138  -0.05017  -0.03697
 Alpha virt. eigenvalues --   -0.02340  -0.02081  -0.01578  -0.01223  -0.00173

 Mulliken charges:
               1
     1  N   -0.706942
     2  H    0.333306
     3  H    0.297265
     4  C   -0.016775
     5  H    0.029792
     6  C    0.610014
     7  C   -0.360918
     8  H    0.138082
     9  H    0.223211
    10  O   -0.489292
    11  C    0.169476
    12  C   -0.195196
    13  H    0.180246
    14  C   -0.272241
    15  H    0.134272
    16  C   -0.130646
    17  H    0.162680
    18  C   -0.154873
    19  H    0.152174
    20  C   -0.131332
    21  H    0.160767
    22  N   -0.448402
    23  C   -0.066077
    24  H    0.148709
    25  C    0.599714
    26  C   -0.329711
    27  H    0.177414
    28  H    0.172816
    29  O   -0.462093
    30  C   -0.299644
    31  H    0.174713
    32  H    0.177528
    33  C   -0.114171
    34  H    0.168975
    35  H    0.196774
    36  N   -0.670793
    37  H    0.355465
    38  C   -0.080954
    39  H    0.239529
    40  C    0.598178
    41  C   -0.289034
    42  H    0.217191
    43  H    0.140254
    44  O   -0.422170
    45  C   -0.304440
    46  H    0.199546
    47  H    0.145362
    48  C   -0.301497
    49  H    0.176963
    50  H    0.201990
    51  C   -0.189182
    52  H    0.209769
    53  H    0.219835
    54  N   -0.787755
    55  H    0.411529
    56  H    0.438960
    57  H    0.405705
    58  O   -0.582737
    59  H    0.438676
 Sum of Mulliken charges =   1.00000

 Dipole moment (field-independent basis, Debye):
    X=             -4.6355    Y=             -7.9044    Z=              7.7065  Tot=             11.9732
 Quadrupole moment (field-independent basis, Debye-Ang):
   XX=           -149.3125   YY=           -167.9077   ZZ=           -106.7963
   XY=             17.4434   XZ=              3.0952   YZ=            -11.3392

 Normal termination of Gaussian 16 at Fri May 27 03:52:37 2022.
