 Gaussian 16, Revision C.01,
 Gaussian 16:  ES64L-G16RevC.01  3-Jul-2019

 -------------------------------------------------------------------
 # B3LYP/6-31G* guess=read geom=check nosymm integral(ultrafinegrid)
 -------------------------------------------------------------------

 ------------------------------------------------------
 Candidate Structure: Conf:876 Charge calc in gas phase
 ------------------------------------------------------
 Structure from the checkpoint file:  "conf-876.chk"
 Charge =  1 Multiplicity = 1

                          Input orientation:
 ---------------------------------------------------------------------
 Center     Atomic      Atomic             Coordinates (Angstroms)
 Number     Number       Type             X           Y           Z
 ---------------------------------------------------------------------
      1          7           0       -4.425000    3.310601    0.080906
      2          1           0       -3.772627    3.080132    0.828905
      3          1           0       -5.301719    2.855748    0.329230
      4          6           0       -3.913712    2.757526   -1.170798
      5          1           0       -4.770861    2.585001   -1.830230
      6          6           0       -3.189806    1.415990   -0.938129
      7          6           0       -3.014450    3.793915   -1.911485
      8          1           0       -2.793777    3.423282   -2.918913
      9          1           0       -3.644349    4.682306   -2.030068
     10          8           0       -2.641248    1.181827    0.159443
     11          6           0       -1.711417    4.190503   -1.245421
     12          6           0       -1.695365    4.913928   -0.039391
     13          1           0       -2.637506    5.178208    0.430991
     14          6           0       -0.485636    3.899698   -1.863528
     15          1           0       -0.476210    3.352837   -2.802978
     16          6           0       -0.489082    5.313686    0.538161
     17          1           0       -0.498559    5.880782    1.465003
     18          6           0        0.724351    4.320525   -1.301323
     19          1           0        1.659179    4.113159   -1.815862
     20          6           0        0.728026    5.021939   -0.090817
     21          1           0        1.663572    5.369486    0.339300
     22          7           0       -3.175081    0.489601   -1.918120
     23          6           0       -2.582748   -0.831659   -1.683311
     24          1           0       -2.965885   -1.237542   -0.740812
     25          6           0       -1.044623   -0.773356   -1.568284
     26          6           0       -3.056763   -1.660286   -2.904327
     27          1           0       -2.358058   -2.458610   -3.167566
     28          1           0       -4.020359   -2.125414   -2.670707
     29          8           0       -0.380125    0.221997   -1.884254
     30          6           0       -3.220579   -0.605967   -4.008924
     31          1           0       -2.246441   -0.347414   -4.437756
     32          1           0       -3.873530   -0.935920   -4.820517
     33          6           0       -3.796006    0.599124   -3.256957
     34          1           0       -4.888405    0.532657   -3.173711
     35          1           0       -3.542197    1.548954   -3.731214
     36          7           0       -0.496684   -1.911792   -1.088846
     37          1           0       -1.094430   -2.721909   -0.939246
     38          6           0        0.925298   -2.253391   -1.135439
     39          1           0        1.374119   -1.787406   -2.020186
     40          6           0        0.976334   -3.771833   -1.328400
     41          6           0        1.724992   -1.824884    0.126515
     42          1           0        2.563524   -2.515719    0.250675
     43          1           0        1.071986   -1.977357    0.994428
     44          8           0        0.005484   -4.495173   -1.260931
     45          6           0        2.273664   -0.374472    0.073354
     46          1           0        3.356633   -0.409817   -0.084904
     47          1           0        1.869688    0.141878   -0.804116
     48          6           0        2.013266    0.456159    1.343906
     49          1           0        2.606909    1.379350    1.306394
     50          1           0        2.365748   -0.091404    2.226724
     51          6           0        0.547692    0.814735    1.590951
     52          1           0       -0.094006   -0.069660    1.617573
     53          1           0        0.421342    1.351950    2.534181
     54          7           0       -0.009591    1.691973    0.507137
     55          1           0       -1.044694    1.787196    0.589495
     56          1           0        0.100919    1.258183   -0.429931
     57          1           0        0.414792    2.628983    0.478956
     58          8           0        2.222723   -4.198778   -1.570564
     59          1           0        2.190208   -5.170200   -1.671464
 ---------------------------------------------------------------------

 SCF Done:  E(RB3LYP) =  -1300.56372033     A.U. after    1 cycles

 Alpha  occ. eigenvalues --  -19.31324 -19.26036 -19.24889 -19.24044 -14.54401
 Alpha  occ. eigenvalues --  -14.48817 -14.48655 -14.41305 -10.44034 -10.41865
 Alpha  occ. eigenvalues --  -10.40419 -10.36572 -10.36249 -10.35491 -10.33893
 Alpha  occ. eigenvalues --  -10.33384 -10.31635 -10.30940 -10.30932 -10.30366
 Alpha  occ. eigenvalues --  -10.30178 -10.30171 -10.29538 -10.29440 -10.29364
 Alpha  occ. eigenvalues --  -10.29312 -10.29211 -10.28794  -1.22499  -1.16719
 Alpha  occ. eigenvalues --   -1.15281  -1.13695  -1.10024  -1.06257  -1.05204
 Alpha  occ. eigenvalues --   -0.99059  -0.95673  -0.93053  -0.91446  -0.89605
 Alpha  occ. eigenvalues --   -0.87925  -0.86567  -0.84574  -0.83200  -0.82163
 Alpha  occ. eigenvalues --   -0.77945  -0.77265  -0.75322  -0.72916  -0.71520
 Alpha  occ. eigenvalues --   -0.70770  -0.70598  -0.70404  -0.68968  -0.68378
 Alpha  occ. eigenvalues --   -0.67829  -0.67030  -0.64399  -0.62798  -0.61424
 Alpha  occ. eigenvalues --   -0.61280  -0.60348  -0.60211  -0.59199  -0.58946
 Alpha  occ. eigenvalues --   -0.58521  -0.57733  -0.57536  -0.56410  -0.55830
 Alpha  occ. eigenvalues --   -0.55570  -0.54937  -0.54481  -0.54156  -0.53746
 Alpha  occ. eigenvalues --   -0.52743  -0.52389  -0.52232  -0.51811  -0.51366
 Alpha  occ. eigenvalues --   -0.50992  -0.50735  -0.50215  -0.49247  -0.48464
 Alpha  occ. eigenvalues --   -0.47770  -0.47212  -0.46764  -0.46412  -0.46252
 Alpha  occ. eigenvalues --   -0.45777  -0.45566  -0.45355  -0.45115  -0.43856
 Alpha  occ. eigenvalues --   -0.43400  -0.43384  -0.39800  -0.38742  -0.38440
 Alpha  occ. eigenvalues --   -0.38189  -0.36587  -0.35521  -0.35266  -0.33706
 Alpha virt. eigenvalues --   -0.11609  -0.11330  -0.10990  -0.10632  -0.10138
 Alpha virt. eigenvalues --   -0.04795  -0.03212  -0.03103  -0.01550  -0.01317
 Alpha virt. eigenvalues --   -0.00778  -0.00569   0.00049   0.00520   0.00981

 Mulliken charges:
               1
     1  N   -0.697899
     2  H    0.313743
     3  H    0.318831
     4  C   -0.090700
     5  H    0.160951
     6  C    0.611298
     7  C   -0.341856
     8  H    0.153195
     9  H    0.196086
    10  O   -0.598295
    11  C    0.141444
    12  C   -0.191453
    13  H    0.178241
    14  C   -0.196039
    15  H    0.150845
    16  C   -0.137096
    17  H    0.160486
    18  C   -0.163599
    19  H    0.155234
    20  C   -0.169682
    21  H    0.157603
    22  N   -0.426948
    23  C   -0.066533
    24  H    0.192500
    25  C    0.628915
    26  C   -0.311972
    27  H    0.178531
    28  H    0.180487
    29  O   -0.562961
    30  C   -0.304284
    31  H    0.177470
    32  H    0.183944
    33  C   -0.137172
    34  H    0.178385
    35  H    0.184009
    36  N   -0.605446
    37  H    0.368224
    38  C   -0.041679
    39  H    0.208262
    40  C    0.579968
    41  C   -0.284426
    42  H    0.193579
    43  H    0.159365
    44  O   -0.455004
    45  C   -0.299926
    46  H    0.177129
    47  H    0.165074
    48  C   -0.290931
    49  H    0.164061
    50  H    0.183825
    51  C   -0.186122
    52  H    0.201399
    53  H    0.202347
    54  N   -0.805007
    55  H    0.436206
    56  H    0.442987
    57  H    0.394729
    58  O   -0.551542
    59  H    0.437218
 Sum of Mulliken charges =   1.00000

 Dipole moment (field-independent basis, Debye):
    X=             -2.8299    Y=              1.1623    Z=             -3.3026  Tot=              4.5018
 Quadrupole moment (field-independent basis, Debye-Ang):
   XX=           -122.8275   YY=           -130.0228   ZZ=           -138.1737
   XY=             -8.0455   XZ=             19.4539   YZ=             10.3228

 Normal termination of Gaussian 16 at Fri May 27 03:53:41 2022.
