 Gaussian 16, Revision C.01,
 Gaussian 16:  ES64L-G16RevC.01  3-Jul-2019

 -------------------------------------------------------------------
 # B3LYP/6-31G* guess=read geom=check nosymm integral(ultrafinegrid)
 -------------------------------------------------------------------

 ------------------------------------------------------
 Candidate Structure: Conf:304 Charge calc in gas phase
 ------------------------------------------------------
 Structure from the checkpoint file:  "conf-304.chk"
 Charge =  1 Multiplicity = 1

                          Input orientation:
 ---------------------------------------------------------------------
 Center     Atomic      Atomic             Coordinates (Angstroms)
 Number     Number       Type             X           Y           Z
 ---------------------------------------------------------------------
      1          7           0       -1.375410   -0.768078    3.865572
      2          1           0       -2.106712   -1.177815    4.460890
      3          1           0       -1.121669    0.150566    4.295150
      4          6           0       -1.939524   -0.394516    2.524964
      5          1           0       -1.363253   -0.924101    1.763329
      6          6           0       -1.708142    1.135381    2.415964
      7          6           0       -3.439974   -0.808248    2.417937
      8          1           0       -3.867918   -0.294611    1.551379
      9          1           0       -3.476762   -1.880926    2.195994
     10          8           0       -1.447545    1.755747    3.452127
     11          6           0       -4.256565   -0.522141    3.662033
     12          6           0       -4.553176   -1.562421    4.557426
     13          1           0       -4.251065   -2.581612    4.319989
     14          6           0       -4.703864    0.773604    3.961020
     15          1           0       -4.494868    1.591468    3.276813
     16          6           0       -5.275690   -1.313887    5.728176
     17          1           0       -5.507379   -2.131915    6.403938
     18          6           0       -5.427021    1.020745    5.126643
     19          1           0       -5.772846    2.027490    5.341464
     20          6           0       -5.711338   -0.020752    6.014423
     21          1           0       -6.277998    0.175606    6.919633
     22          7           0       -1.855550    1.724307    1.216251
     23          6           0       -1.853359    1.056745   -0.092199
     24          1           0       -2.595064    0.252100   -0.131493
     25          6           0       -0.442285    0.513785   -0.426402
     26          6           0       -2.230258    2.213210   -1.049201
     27          1           0       -1.911513    2.020687   -2.077425
     28          1           0       -3.319514    2.330867   -1.050723
     29          8           0        0.563894    1.039913    0.033338
     30          6           0       -1.544259    3.434876   -0.414782
     31          1           0       -0.490428    3.466615   -0.702535
     32          1           0       -2.009912    4.375605   -0.718275
     33          6           0       -1.665990    3.192501    1.096950
     34          1           0       -2.533081    3.695687    1.538027
     35          1           0       -0.778128    3.492464    1.656900
     36          7           0       -0.429483   -0.558510   -1.266811
     37          1           0       -1.302144   -0.843909   -1.694126
     38          6           0        0.785949   -1.004867   -1.965056
     39          1           0        1.199486   -0.149279   -2.521142
     40          6           0        0.425513   -2.043525   -3.031665
     41          6           0        1.913118   -1.536867   -1.056544
     42          1           0        2.332883   -0.682613   -0.520738
     43          1           0        2.685982   -1.909376   -1.733782
     44          8           0        1.220498   -2.790354   -3.543928
     45          6           0        1.492185   -2.641013   -0.058937
     46          1           0        0.503675   -3.040300   -0.325906
     47          1           0        2.186020   -3.486362   -0.130414
     48          6           0        1.459083   -2.134060    1.390677
     49          1           0        0.833430   -1.235015    1.449425
     50          1           0        2.468733   -1.808690    1.679689
     51          6           0        0.963054   -3.177083    2.389810
     52          1           0       -0.004332   -3.584991    2.070955
     53          1           0        1.665338   -4.020540    2.434588
     54          7           0        0.764081   -2.567470    3.733482
     55          1           0        0.592665   -3.304311    4.419954
     56          1           0       -0.520546   -1.437823    3.815266
     57          1           0        1.635015   -2.121735    4.029124
     58          8           0       -0.888434   -2.009854   -3.376721
     59          1           0       -1.013106   -2.672422   -4.083521
 ---------------------------------------------------------------------

 SCF Done:  E(RB3LYP) =  -1300.54857051     A.U. after    2 cycles

 Alpha  occ. eigenvalues --  -19.30675 -19.24861 -19.24354 -19.23073 -14.54379
 Alpha  occ. eigenvalues --  -14.48873 -14.47685 -14.47317 -10.42719 -10.41649
 Alpha  occ. eigenvalues --  -10.40182 -10.38665 -10.35865 -10.34878 -10.33412
 Alpha  occ. eigenvalues --  -10.33261 -10.32226 -10.31274 -10.30668 -10.30123
 Alpha  occ. eigenvalues --  -10.29664 -10.29455 -10.29389 -10.29263 -10.29118
 Alpha  occ. eigenvalues --  -10.28964 -10.28681 -10.28141  -1.21275  -1.17138
 Alpha  occ. eigenvalues --   -1.14989  -1.12275  -1.09778  -1.06492  -1.03948
 Alpha  occ. eigenvalues --   -1.02461  -0.96590  -0.92253  -0.90922  -0.90104
 Alpha  occ. eigenvalues --   -0.87717  -0.85626  -0.85014  -0.84628  -0.80611
 Alpha  occ. eigenvalues --   -0.78843  -0.75968  -0.74965  -0.72015  -0.71430
 Alpha  occ. eigenvalues --   -0.70995  -0.70590  -0.69793  -0.68871  -0.68076
 Alpha  occ. eigenvalues --   -0.67578  -0.66876  -0.64708  -0.62286  -0.62135
 Alpha  occ. eigenvalues --   -0.61273  -0.61114  -0.60397  -0.59784  -0.58546
 Alpha  occ. eigenvalues --   -0.58210  -0.57462  -0.56867  -0.56481  -0.56337
 Alpha  occ. eigenvalues --   -0.55708  -0.55113  -0.53656  -0.53268  -0.53101
 Alpha  occ. eigenvalues --   -0.52613  -0.52287  -0.51909  -0.51708  -0.51364
 Alpha  occ. eigenvalues --   -0.51079  -0.50168  -0.49998  -0.49260  -0.48375
 Alpha  occ. eigenvalues --   -0.47941  -0.46998  -0.46472  -0.46113  -0.45805
 Alpha  occ. eigenvalues --   -0.44819  -0.44663  -0.44417  -0.43940  -0.43763
 Alpha  occ. eigenvalues --   -0.42856  -0.42507  -0.40173  -0.39059  -0.38072
 Alpha  occ. eigenvalues --   -0.37573  -0.37125  -0.35726  -0.35710  -0.35204
 Alpha virt. eigenvalues --   -0.12090  -0.11289  -0.10661  -0.10145  -0.09449
 Alpha virt. eigenvalues --   -0.06567  -0.04641  -0.03378  -0.02875  -0.02304
 Alpha virt. eigenvalues --   -0.00687  -0.00128   0.00274   0.00507   0.00859

 Mulliken charges:
               1
     1  N   -0.807491
     2  H    0.383894
     3  H    0.413477
     4  C   -0.078295
     5  H    0.194526
     6  C    0.630546
     7  C   -0.388603
     8  H    0.194033
     9  H    0.177396
    10  O   -0.527768
    11  C    0.128084
    12  C   -0.216143
    13  H    0.138083
    14  C   -0.163320
    15  H    0.146358
    16  C   -0.121234
    17  H    0.160526
    18  C   -0.124174
    19  H    0.163590
    20  C   -0.123372
    21  H    0.164815
    22  N   -0.435589
    23  C   -0.109964
    24  H    0.155019
    25  C    0.630091
    26  C   -0.291669
    27  H    0.175385
    28  H    0.174418
    29  O   -0.509581
    30  C   -0.318947
    31  H    0.190748
    32  H    0.178365
    33  C   -0.110207
    34  H    0.175602
    35  H    0.202380
    36  N   -0.640865
    37  H    0.362052
    38  C   -0.046529
    39  H    0.207819
    40  C    0.593263
    41  C   -0.284802
    42  H    0.187004
    43  H    0.188933
    44  O   -0.432949
    45  C   -0.264043
    46  H    0.131349
    47  H    0.165895
    48  C   -0.290111
    49  H    0.149906
    50  H    0.159761
    51  C   -0.144239
    52  H    0.150079
    53  H    0.170783
    54  N   -0.784382
    55  H    0.340432
    56  H    0.445619
    57  H    0.343079
    58  O   -0.592730
    59  H    0.433695
 Sum of Mulliken charges =   1.00000

 Dipole moment (field-independent basis, Debye):
    X=             -8.8827    Y=             -5.2922    Z=              9.6727  Tot=             14.1588
 Quadrupole moment (field-independent basis, Debye-Ang):
   XX=           -127.5114   YY=           -135.9206   ZZ=            -95.1383
   XY=             -4.3402   XZ=            -16.9589   YZ=            -25.7249

 Normal termination of Gaussian 16 at Fri May 27 03:52:48 2022.
