 Gaussian 16, Revision C.01,
 Gaussian 16:  ES64L-G16RevC.01  3-Jul-2019

 -------------------------------------------------------------------
 # B3LYP/6-31G* guess=read geom=check nosymm integral(ultrafinegrid)
 -------------------------------------------------------------------

 -----------------------------------------------------
 Candidate Structure: Conf:34 Charge calc in gas phase
 -----------------------------------------------------
 Structure from the checkpoint file:  "conf-34.chk"
 Charge =  1 Multiplicity = 1

                          Input orientation:
 ---------------------------------------------------------------------
 Center     Atomic      Atomic             Coordinates (Angstroms)
 Number     Number       Type             X           Y           Z
 ---------------------------------------------------------------------
      1          7           0       -4.850549    0.859312    3.189659
      2          1           0       -5.342023    1.334164    3.945440
      3          1           0       -5.014768   -0.139075    3.315371
      4          6           0       -3.417491    1.155814    3.275040
      5          1           0       -3.317993    2.245335    3.196930
      6          6           0       -2.732451    0.544584    2.041595
      7          6           0       -2.721823    0.718322    4.588075
      8          1           0       -2.837119   -0.368757    4.695461
      9          1           0       -1.647308    0.930662    4.504151
     10          8           0       -1.995643   -0.472480    2.124946
     11          6           0       -3.289617    1.419334    5.803850
     12          6           0       -4.306689    0.831373    6.568476
     13          1           0       -4.665826   -0.163759    6.313181
     14          6           0       -2.831317    2.694540    6.165356
     15          1           0       -2.036868    3.164477    5.588685
     16          6           0       -4.854306    1.499863    7.665635
     17          1           0       -5.638167    1.026405    8.250060
     18          6           0       -3.375873    3.364785    7.260458
     19          1           0       -3.005012    4.349823    7.529190
     20          6           0       -4.390424    2.768936    8.013220
     21          1           0       -4.812335    3.288913    8.868263
     22          7           0       -2.954171    1.108183    0.852099
     23          6           0       -2.313588    0.581562   -0.366297
     24          1           0       -2.627042   -0.459278   -0.509167
     25          6           0       -0.780395    0.676638   -0.263668
     26          6           0       -2.852323    1.501700   -1.490156
     27          1           0       -2.137903    2.313244   -1.664267
     28          1           0       -2.986566    0.957703   -2.428337
     29          8           0       -0.237188    1.642007    0.261971
     30          6           0       -4.161197    2.069108   -0.919029
     31          1           0       -4.460690    3.004506   -1.398726
     32          1           0       -4.979689    1.350049   -1.036172
     33          6           0       -3.841595    2.257009    0.566566
     34          1           0       -4.718526    2.211299    1.212627
     35          1           0       -3.293501    3.191495    0.740880
     36          7           0       -0.111848   -0.349355   -0.851162
     37          1           0       -0.614826   -1.143585   -1.231342
     38          6           0        1.337515   -0.426484   -0.966250
     39          1           0        1.709587    0.386469   -1.602733
     40          6           0        1.643289   -1.745629   -1.667417
     41          6           0        2.075372   -0.318938    0.394668
     42          1           0        1.923132    0.706538    0.737198
     43          1           0        3.145902   -0.450807    0.212625
     44          8           0        0.820148   -2.610998   -1.884816
     45          6           0        1.564876   -1.309976    1.464223
     46          1           0        0.597689   -1.707089    1.128505
     47          1           0        2.248254   -2.163866    1.560722
     48          6           0        1.382740   -0.614891    2.822916
     49          1           0        0.721288    0.249070    2.691480
     50          1           0        2.344444   -0.223747    3.177280
     51          6           0        0.835651   -1.502497    3.937670
     52          1           0        1.496092   -2.344219    4.165073
     53          1           0        0.672874   -0.931386    4.854850
     54          7           0       -0.511328   -2.089464    3.561498
     55          1           0       -0.954112   -2.550218    4.361072
     56          1           0       -0.406365   -2.791597    2.823291
     57          1           0       -1.180457   -1.348535    3.160105
     58          8           0        2.939633   -1.843158   -1.999120
     59          1           0        3.065295   -2.704394   -2.442483
 ---------------------------------------------------------------------

 SCF Done:  E(RB3LYP) =  -1300.55062630     A.U. after    1 cycles

 Alpha  occ. eigenvalues --  -19.30272 -19.24960 -19.24827 -19.21185 -14.57889
 Alpha  occ. eigenvalues --  -14.48000 -14.46145 -14.42529 -10.42867 -10.40589
 Alpha  occ. eigenvalues --  -10.38729 -10.38280 -10.34491 -10.33673 -10.33553
 Alpha  occ. eigenvalues --  -10.31636 -10.31606 -10.30472 -10.29877 -10.29247
 Alpha  occ. eigenvalues --  -10.28969 -10.28717 -10.28452 -10.27647 -10.27484
 Alpha  occ. eigenvalues --  -10.27256 -10.27189 -10.26981  -1.21404  -1.15862
 Alpha  occ. eigenvalues --   -1.13272  -1.12605  -1.12428  -1.05392  -1.02742
 Alpha  occ. eigenvalues --   -0.99896  -0.93979  -0.92850  -0.90174  -0.88812
 Alpha  occ. eigenvalues --   -0.87185  -0.85309  -0.83130  -0.82777  -0.81418
 Alpha  occ. eigenvalues --   -0.77156  -0.76691  -0.74128  -0.72797  -0.71848
 Alpha  occ. eigenvalues --   -0.71352  -0.70491  -0.69238  -0.68944  -0.66951
 Alpha  occ. eigenvalues --   -0.66857  -0.65798  -0.63589  -0.63081  -0.61893
 Alpha  occ. eigenvalues --   -0.60317  -0.59521  -0.59225  -0.58833  -0.58171
 Alpha  occ. eigenvalues --   -0.57630  -0.57063  -0.56041  -0.55855  -0.55231
 Alpha  occ. eigenvalues --   -0.54466  -0.53959  -0.53839  -0.52868  -0.52313
 Alpha  occ. eigenvalues --   -0.51742  -0.51444  -0.51172  -0.50858  -0.50362
 Alpha  occ. eigenvalues --   -0.50108  -0.49768  -0.48687  -0.48606  -0.47930
 Alpha  occ. eigenvalues --   -0.47405  -0.46691  -0.45724  -0.45483  -0.45002
 Alpha  occ. eigenvalues --   -0.44897  -0.44083  -0.43868  -0.43479  -0.42540
 Alpha  occ. eigenvalues --   -0.42502  -0.42425  -0.38872  -0.38463  -0.36507
 Alpha  occ. eigenvalues --   -0.35652  -0.35061  -0.34564  -0.33374  -0.32759
 Alpha virt. eigenvalues --   -0.10851  -0.10310  -0.09913  -0.08772  -0.08570
 Alpha virt. eigenvalues --   -0.07446  -0.04870  -0.03422  -0.02352  -0.01711
 Alpha virt. eigenvalues --   -0.00873  -0.00241   0.00621   0.00974   0.01230

 Mulliken charges:
               1
     1  N   -0.715429
     2  H    0.333088
     3  H    0.307783
     4  C   -0.082238
     5  H    0.179545
     6  C    0.668730
     7  C   -0.362218
     8  H    0.113730
     9  H    0.142644
    10  O   -0.629798
    11  C    0.158940
    12  C   -0.195777
    13  H    0.119567
    14  C   -0.181217
    15  H    0.131427
    16  C   -0.126208
    17  H    0.150234
    18  C   -0.126600
    19  H    0.151864
    20  C   -0.126473
    21  H    0.154075
    22  N   -0.426776
    23  C   -0.036447
    24  H    0.161293
    25  C    0.645951
    26  C   -0.317059
    27  H    0.184405
    28  H    0.173729
    29  O   -0.534873
    30  C   -0.300243
    31  H    0.177223
    32  H    0.168579
    33  C   -0.145645
    34  H    0.214244
    35  H    0.178827
    36  N   -0.641323
    37  H    0.357638
    38  C   -0.019978
    39  H    0.205340
    40  C    0.581679
    41  C   -0.294510
    42  H    0.205106
    43  H    0.180844
    44  O   -0.467053
    45  C   -0.290454
    46  H    0.140544
    47  H    0.155122
    48  C   -0.297880
    49  H    0.196457
    50  H    0.186839
    51  C   -0.196921
    52  H    0.203322
    53  H    0.210169
    54  N   -0.773016
    55  H    0.401458
    56  H    0.404287
    57  H    0.468536
    58  O   -0.556464
    59  H    0.431381
 Sum of Mulliken charges =   1.00000

 Dipole moment (field-independent basis, Debye):
    X=             -5.1812    Y=             -4.7283    Z=             12.9008  Tot=             14.6845
 Quadrupole moment (field-independent basis, Debye-Ang):
   XX=           -119.8903   YY=           -136.1140   ZZ=            -81.4784
   XY=            -16.8305   XZ=            -27.5552   YZ=            -11.3453

 Normal termination of Gaussian 16 at Fri May 27 03:52:35 2022.
