 Gaussian 16, Revision C.01,
 Gaussian 16:  ES64L-G16RevC.01  3-Jul-2019

 -------------------------------------------------------------------
 # B3LYP/6-31G* guess=read geom=check nosymm integral(ultrafinegrid)
 -------------------------------------------------------------------

 ------------------------------------------------------
 Candidate Structure: Conf:445 Charge calc in gas phase
 ------------------------------------------------------
 Structure from the checkpoint file:  "conf-445.chk"
 Charge =  1 Multiplicity = 1

                          Input orientation:
 ---------------------------------------------------------------------
 Center     Atomic      Atomic             Coordinates (Angstroms)
 Number     Number       Type             X           Y           Z
 ---------------------------------------------------------------------
      1          7           0       -4.402955   -0.878440    3.563732
      2          1           0       -3.795985   -1.616399    3.204270
      3          1           0       -5.289019   -0.992677    3.074112
      4          6           0       -3.797175    0.396373    3.185086
      5          1           0       -4.595889    1.140018    3.095827
      6          6           0       -3.047550    0.290845    1.841537
      7          6           0       -2.857731    0.913841    4.317023
      8          1           0       -2.386123    1.848417    3.995037
      9          1           0       -3.514975    1.160438    5.158180
     10          8           0       -2.583950   -0.800544    1.485430
     11          6           0       -1.776748   -0.017600    4.832622
     12          6           0       -2.099198   -1.093171    5.678968
     13          1           0       -3.144536   -1.317822    5.864723
     14          6           0       -0.421402    0.259753    4.589636
     15          1           0       -0.155129    1.072900    3.919061
     16          6           0       -1.098472   -1.832773    6.311042
     17          1           0       -1.372877   -2.621002    7.007936
     18          6           0        0.585055   -0.464587    5.232221
     19          1           0        1.624655   -0.176757    5.092191
     20          6           0        0.252053   -1.506354    6.111642
     21          1           0        1.023686   -1.975959    6.722716
     22          7           0       -2.902290    1.403850    1.080136
     23          6           0       -2.143308    1.332790   -0.175696
     24          1           0       -2.551272    0.534226   -0.804401
     25          6           0       -0.659905    1.046350    0.120858
     26          6           0       -2.350086    2.731389   -0.802941
     27          1           0       -1.502375    3.038230   -1.421607
     28          1           0       -3.240689    2.712416   -1.440958
     29          8           0       -0.084100    1.536767    1.087785
     30          6           0       -2.572553    3.643150    0.413385
     31          1           0       -1.612453    3.885917    0.877940
     32          1           0       -3.084869    4.575386    0.161419
     33          6           0       -3.396705    2.765497    1.363455
     34          1           0       -4.470638    2.834364    1.142271
     35          1           0       -3.245406    3.035912    2.410594
     36          7           0       -0.041116    0.230329   -0.781877
     37          1           0       -0.581486   -0.172716   -1.535222
     38          6           0        1.314826   -0.249162   -0.576687
     39          1           0        1.793597    0.484536    0.080576
     40          6           0        2.142974   -0.304755   -1.856010
     41          6           0        1.363447   -1.635446    0.126180
     42          1           0        2.417609   -1.858332    0.328935
     43          1           0        1.003732   -2.409661   -0.566685
     44          8           0        3.287475   -0.694155   -1.880997
     45          6           0        0.498030   -1.622721    1.388206
     46          1           0        0.812258   -0.804589    2.046725
     47          1           0       -0.531788   -1.392870    1.110703
     48          6           0        0.435660   -2.915905    2.210047
     49          1           0        0.187236   -3.777931    1.577747
     50          1           0       -0.396736   -2.788325    2.915375
     51          6           0        1.712346   -3.203487    3.002999
     52          1           0        2.420391   -3.855319    2.487009
     53          1           0        2.222804   -2.284207    3.298695
     54          7           0        1.346150   -3.890281    4.313133
     55          1           0        2.170278   -4.194845    4.843253
     56          1           0        0.754410   -4.712651    4.149929
     57          1           0        0.810745   -3.216435    4.907640
     58          8           0        1.463895    0.093835   -2.953447
     59          1           0        2.080246    0.010812   -3.707031
 ---------------------------------------------------------------------

 SCF Done:  E(RB3LYP) =  -1300.52271176     A.U. after    2 cycles

 Alpha  occ. eigenvalues --  -19.28746 -19.22577 -19.20534 -19.20534 -14.61581
 Alpha  occ. eigenvalues --  -14.45439 -14.45428 -14.39771 -10.41017 -10.39544
 Alpha  occ. eigenvalues --  -10.37734 -10.37038 -10.33280 -10.32264 -10.32251
 Alpha  occ. eigenvalues --  -10.31444 -10.31252 -10.30434 -10.30193 -10.30128
 Alpha  occ. eigenvalues --  -10.30089 -10.29066 -10.29023 -10.28759 -10.28270
 Alpha  occ. eigenvalues --  -10.28197 -10.28100 -10.27367  -1.19492  -1.15797
 Alpha  occ. eigenvalues --   -1.12936  -1.11788  -1.10430  -1.03083  -1.01948
 Alpha  occ. eigenvalues --   -0.97481  -0.95692  -0.93192  -0.88869  -0.87966
 Alpha  occ. eigenvalues --   -0.87431  -0.84785  -0.84479  -0.82502  -0.81189
 Alpha  occ. eigenvalues --   -0.77850  -0.75425  -0.74439  -0.73868  -0.72238
 Alpha  occ. eigenvalues --   -0.70770  -0.70174  -0.69548  -0.68701  -0.68443
 Alpha  occ. eigenvalues --   -0.66828  -0.64544  -0.64146  -0.61847  -0.61447
 Alpha  occ. eigenvalues --   -0.60283  -0.59915  -0.58917  -0.57522  -0.57132
 Alpha  occ. eigenvalues --   -0.56729  -0.56011  -0.55373  -0.55233  -0.54986
 Alpha  occ. eigenvalues --   -0.53964  -0.53423  -0.52880  -0.52250  -0.52098
 Alpha  occ. eigenvalues --   -0.51536  -0.51185  -0.50593  -0.49901  -0.49743
 Alpha  occ. eigenvalues --   -0.49065  -0.48554  -0.48080  -0.47505  -0.47020
 Alpha  occ. eigenvalues --   -0.46583  -0.46086  -0.45320  -0.44801  -0.44135
 Alpha  occ. eigenvalues --   -0.44047  -0.43722  -0.43262  -0.42962  -0.42790
 Alpha  occ. eigenvalues --   -0.42503  -0.40463  -0.37163  -0.35683  -0.35600
 Alpha  occ. eigenvalues --   -0.34795  -0.34422  -0.34164  -0.32911  -0.32292
 Alpha virt. eigenvalues --   -0.12992  -0.11396  -0.10810  -0.07993  -0.07302
 Alpha virt. eigenvalues --   -0.06839  -0.06276  -0.04631  -0.03067  -0.01877
 Alpha virt. eigenvalues --   -0.01685  -0.01228  -0.00641   0.00248   0.01021

 Mulliken charges:
               1
     1  N   -0.709545
     2  H    0.314375
     3  H    0.314257
     4  C   -0.081698
     5  H    0.155539
     6  C    0.600707
     7  C   -0.349153
     8  H    0.164127
     9  H    0.182431
    10  O   -0.553856
    11  C    0.159870
    12  C   -0.169534
    13  H    0.181479
    14  C   -0.183888
    15  H    0.181765
    16  C   -0.132184
    17  H    0.153123
    18  C   -0.136167
    19  H    0.149059
    20  C   -0.243572
    21  H    0.147033
    22  N   -0.432556
    23  C   -0.060641
    24  H    0.161770
    25  C    0.652594
    26  C   -0.307235
    27  H    0.175948
    28  H    0.167604
    29  O   -0.537844
    30  C   -0.298328
    31  H    0.184603
    32  H    0.168638
    33  C   -0.133854
    34  H    0.166158
    35  H    0.172046
    36  N   -0.605097
    37  H    0.343154
    38  C   -0.060484
    39  H    0.216302
    40  C    0.595100
    41  C   -0.273117
    42  H    0.163697
    43  H    0.145976
    44  O   -0.452753
    45  C   -0.313052
    46  H    0.163192
    47  H    0.226477
    48  C   -0.308631
    49  H    0.170863
    50  H    0.177593
    51  C   -0.189412
    52  H    0.219202
    53  H    0.215668
    54  N   -0.747740
    55  H    0.413671
    56  H    0.414851
    57  H    0.403312
    58  O   -0.568168
    59  H    0.426329
 Sum of Mulliken charges =   1.00000

 Dipole moment (field-independent basis, Debye):
    X=             -0.3177    Y=            -10.6851    Z=             13.6122  Tot=             17.3080
 Quadrupole moment (field-independent basis, Debye-Ang):
   XX=           -138.4436   YY=            -95.1670   ZZ=            -79.8990
   XY=            -31.9616   XZ=             16.9136   YZ=            -59.1212

 Normal termination of Gaussian 16 at Fri May 27 03:52:49 2022.
