 Gaussian 16, Revision C.01,
 Gaussian 16:  ES64L-G16RevC.01  3-Jul-2019

 -------------------------------------------------------------------
 # B3LYP/6-31G* guess=read geom=check nosymm integral(ultrafinegrid)
 -------------------------------------------------------------------

 ------------------------------------------------------
 Candidate Structure: Conf:879 Charge calc in gas phase
 ------------------------------------------------------
 Structure from the checkpoint file:  "conf-879.chk"
 Charge =  1 Multiplicity = 1

                          Input orientation:
 ---------------------------------------------------------------------
 Center     Atomic      Atomic             Coordinates (Angstroms)
 Number     Number       Type             X           Y           Z
 ---------------------------------------------------------------------
      1          7           0       -1.075160   -2.219661   -3.280349
      2          1           0       -1.742522   -2.973908   -3.447553
      3          1           0       -0.366089   -2.630775   -2.673571
      4          6           0       -1.772121   -1.172330   -2.538193
      5          1           0       -1.029280   -0.410830   -2.277577
      6          6           0       -2.426050   -1.719095   -1.250687
      7          6           0       -2.824158   -0.485370   -3.458652
      8          1           0       -3.303551    0.332702   -2.906537
      9          1           0       -2.257799   -0.030577   -4.278218
     10          8           0       -2.793687   -2.886941   -1.174150
     11          6           0       -3.887458   -1.406025   -4.021355
     12          6           0       -3.659933   -2.113769   -5.210712
     13          1           0       -2.712435   -1.990975   -5.729066
     14          6           0       -5.120555   -1.565796   -3.375390
     15          1           0       -5.321769   -1.013960   -2.459370
     16          6           0       -4.634968   -2.964883   -5.733144
     17          1           0       -4.442411   -3.501587   -6.658304
     18          6           0       -6.098344   -2.413231   -3.895853
     19          1           0       -7.050143   -2.519589   -3.382397
     20          6           0       -5.857176   -3.117467   -5.076754
     21          1           0       -6.619575   -3.774322   -5.486307
     22          7           0       -2.574138   -0.874049   -0.169991
     23          6           0       -2.224471    0.549295   -0.088835
     24          1           0       -2.400466    1.069947   -1.033631
     25          6           0       -0.749844    0.826377    0.263019
     26          6           0       -3.167177    1.083837    1.013100
     27          1           0       -2.761302    1.976790    1.493433
     28          1           0       -4.128556    1.348175    0.559600
     29          8           0       -0.312381    1.966816    0.295048
     30          6           0       -3.330626   -0.123095    1.950698
     31          1           0       -2.466196   -0.199668    2.621640
     32          1           0       -4.227100   -0.059799    2.573037
     33          6           0       -3.373777   -1.321447    0.992472
     34          1           0       -4.392963   -1.555023    0.662767
     35          1           0       -2.957303   -2.240070    1.415187
     36          7           0        0.023440   -0.274392    0.550606
     37          1           0       -0.397963   -1.180783    0.395059
     38          6           0        1.457248   -0.142334    0.703094
     39          1           0        1.649139    0.929363    0.543786
     40          6           0        2.235956   -0.877210   -0.391607
     41          6           0        1.981477   -0.518614    2.097781
     42          1           0        1.509813    0.152043    2.822509
     43          1           0        3.052368   -0.285348    2.111716
     44          8           0        3.312193   -1.423793   -0.223212
     45          6           0        1.741447   -1.989142    2.514436
     46          1           0        0.844132   -2.061367    3.135918
     47          1           0        1.552464   -2.621300    1.637146
     48          6           0        2.923174   -2.593577    3.302753
     49          1           0        2.597468   -3.493604    3.840072
     50          1           0        3.260060   -1.868560    4.057759
     51          6           0        4.071131   -2.947830    2.361460
     52          1           0        3.838342   -3.814205    1.738153
     53          1           0        4.351651   -2.125543    1.701312
     54          7           0        5.326406   -3.331384    3.152807
     55          1           0        6.102541   -3.591100    2.531783
     56          1           0        5.147686   -4.126550    3.778515
     57          1           0        5.645930   -2.550171    3.738335
     58          8           0        1.619720   -0.830472   -1.581240
     59          1           0        2.199253   -1.254925   -2.243466
 ---------------------------------------------------------------------

 SCF Done:  E(RB3LYP) =  -1300.50317028     A.U. after    3 cycles

 Alpha  occ. eigenvalues --  -19.31351 -19.26184 -19.20602 -19.18236 -14.65416
 Alpha  occ. eigenvalues --  -14.45966 -14.43928 -14.37652 -10.44042 -10.41637
 Alpha  occ. eigenvalues --  -10.37657 -10.35517 -10.34954 -10.34865 -10.32618
 Alpha  occ. eigenvalues --  -10.31813 -10.31112 -10.29425 -10.28906 -10.27173
 Alpha  occ. eigenvalues --  -10.26909 -10.25258 -10.24411 -10.23527 -10.23388
 Alpha  occ. eigenvalues --  -10.23352 -10.23259 -10.23237  -1.22439  -1.19243
 Alpha  occ. eigenvalues --   -1.13391  -1.12773  -1.10316  -1.02988  -1.01348
 Alpha  occ. eigenvalues --   -0.96253  -0.95189  -0.90089  -0.89862  -0.87058
 Alpha  occ. eigenvalues --   -0.85490  -0.83100  -0.82464  -0.80226  -0.78768
 Alpha  occ. eigenvalues --   -0.77871  -0.77347  -0.77250  -0.73786  -0.73277
 Alpha  occ. eigenvalues --   -0.71189  -0.69112  -0.67918  -0.67516  -0.66826
 Alpha  occ. eigenvalues --   -0.64997  -0.64959  -0.63274  -0.62886  -0.62447
 Alpha  occ. eigenvalues --   -0.60210  -0.59132  -0.58788  -0.57825  -0.57447
 Alpha  occ. eigenvalues --   -0.55617  -0.55422  -0.55143  -0.54565  -0.53593
 Alpha  occ. eigenvalues --   -0.53173  -0.52705  -0.51582  -0.51340  -0.51164
 Alpha  occ. eigenvalues --   -0.50358  -0.50242  -0.49480  -0.49194  -0.48418
 Alpha  occ. eigenvalues --   -0.48283  -0.46945  -0.46667  -0.46464  -0.46165
 Alpha  occ. eigenvalues --   -0.45996  -0.45849  -0.43766  -0.43629  -0.43438
 Alpha  occ. eigenvalues --   -0.42969  -0.42499  -0.42288  -0.41343  -0.40269
 Alpha  occ. eigenvalues --   -0.39812  -0.38415  -0.38167  -0.35479  -0.35191
 Alpha  occ. eigenvalues --   -0.32431  -0.31301  -0.30498  -0.29341  -0.28619
 Alpha virt. eigenvalues --   -0.15880  -0.11470  -0.09338  -0.09003  -0.07121
 Alpha virt. eigenvalues --   -0.06496  -0.05778  -0.04771  -0.04273  -0.03700
 Alpha virt. eigenvalues --   -0.03036  -0.01627  -0.00958  -0.00174   0.00203

 Mulliken charges:
               1
     1  N   -0.700286
     2  H    0.327251
     3  H    0.279394
     4  C   -0.079215
     5  H    0.144797
     6  C    0.553181
     7  C   -0.353575
     8  H    0.146927
     9  H    0.172060
    10  O   -0.508909
    11  C    0.160946
    12  C   -0.188235
    13  H    0.140967
    14  C   -0.168651
    15  H    0.112940
    16  C   -0.127258
    17  H    0.136518
    18  C   -0.126001
    19  H    0.134487
    20  C   -0.127937
    21  H    0.137642
    22  N   -0.492875
    23  C   -0.054269
    24  H    0.194302
    25  C    0.609565
    26  C   -0.296180
    27  H    0.185210
    28  H    0.168842
    29  O   -0.501602
    30  C   -0.310294
    31  H    0.142246
    32  H    0.171363
    33  C   -0.107897
    34  H    0.176893
    35  H    0.160413
    36  N   -0.612795
    37  H    0.349822
    38  C   -0.069010
    39  H    0.235785
    40  C    0.593405
    41  C   -0.264169
    42  H    0.182444
    43  H    0.143347
    44  O   -0.496514
    45  C   -0.275056
    46  H    0.184420
    47  H    0.154857
    48  C   -0.302043
    49  H    0.173455
    50  H    0.166534
    51  C   -0.214500
    52  H    0.226677
    53  H    0.261264
    54  N   -0.732928
    55  H    0.433348
    56  H    0.425332
    57  H    0.425938
    58  O   -0.535926
    59  H    0.433552
 Sum of Mulliken charges =   1.00000

 Dipole moment (field-independent basis, Debye):
    X=             19.1920    Y=            -14.0816    Z=             14.1524  Tot=             27.6932
 Quadrupole moment (field-independent basis, Debye-Ang):
   XX=            -36.1431   YY=           -125.4905   ZZ=           -109.8653
   XY=            -74.5705   XZ=             64.7643   YZ=            -42.0914

 Normal termination of Gaussian 16 at Fri May 27 03:54:00 2022.
