 Gaussian 16, Revision C.01,
 Gaussian 16:  ES64L-G16RevC.01  3-Jul-2019

 -------------------------------------------------------------------
 # B3LYP/6-31G* guess=read geom=check nosymm integral(ultrafinegrid)
 -------------------------------------------------------------------

 ------------------------------------------------------
 Candidate Structure: Conf:474 Charge calc in gas phase
 ------------------------------------------------------
 Structure from the checkpoint file:  "conf-474.chk"
 Charge =  1 Multiplicity = 1

                          Input orientation:
 ---------------------------------------------------------------------
 Center     Atomic      Atomic             Coordinates (Angstroms)
 Number     Number       Type             X           Y           Z
 ---------------------------------------------------------------------
      1          7           0       -4.418425    2.675554   -0.232065
      2          1           0       -4.759563    3.634004   -0.176728
      3          1           0       -4.162688    2.396997    0.714699
      4          6           0       -3.250967    2.616529   -1.115445
      5          1           0       -3.581878    2.968559   -2.099579
      6          6           0       -2.852951    1.135414   -1.258649
      7          6           0       -2.052247    3.500211   -0.691172
      8          1           0       -1.721198    3.172482    0.303480
      9          1           0       -1.227776    3.329908   -1.398446
     10          8           0       -1.854209    0.657290   -0.663103
     11          6           0       -2.396761    4.974081   -0.660677
     12          6           0       -2.805660    5.595472    0.527359
     13          1           0       -2.836100    5.023129    1.452518
     14          6           0       -2.349204    5.737940   -1.835841
     15          1           0       -2.027583    5.274918   -2.766868
     16          6           0       -3.160527    6.946159    0.541996
     17          1           0       -3.470305    7.412733    1.472797
     18          6           0       -2.702478    7.087041   -1.824285
     19          1           0       -2.654929    7.665131   -2.742714
     20          6           0       -3.110394    7.694490   -0.634473
     21          1           0       -3.382300    8.745857   -0.624322
     22          7           0       -3.644237    0.359522   -2.007412
     23          6           0       -3.360601   -1.070957   -2.206379
     24          1           0       -3.416512   -1.580173   -1.236239
     25          6           0       -1.972963   -1.287720   -2.834608
     26          6           0       -4.489771   -1.539862   -3.155650
     27          1           0       -4.148564   -1.454341   -4.193328
     28          1           0       -4.767220   -2.581272   -2.974097
     29          8           0       -1.466390   -0.470844   -3.593198
     30          6           0       -5.630516   -0.546755   -2.892665
     31          1           0       -6.346297   -0.494984   -3.717124
     32          1           0       -6.178656   -0.819143   -1.983771
     33          6           0       -4.895202    0.779407   -2.681528
     34          1           0       -5.436601    1.480094   -2.045479
     35          1           0       -4.651474    1.255408   -3.639877
     36          7           0       -1.398304   -2.472715   -2.495968
     37          1           0       -1.900263   -3.121426   -1.905486
     38          6           0       -0.085699   -2.891844   -2.982718
     39          1           0       -0.121998   -2.979523   -4.078737
     40          6           0        0.254820   -4.292054   -2.468831
     41          6           0        1.040639   -1.893514   -2.634781
     42          1           0        0.929408   -1.031454   -3.297142
     43          1           0        1.993221   -2.381488   -2.862910
     44          8           0        1.373225   -4.743766   -2.432101
     45          6           0        0.997915   -1.420248   -1.178113
     46          1           0       -0.004174   -1.030507   -0.970437
     47          1           0        1.152731   -2.265428   -0.494123
     48          6           0        2.049285   -0.339138   -0.878326
     49          1           0        2.192226    0.313985   -1.752324
     50          1           0        3.027955   -0.794563   -0.689101
     51          6           0        1.702863    0.525788    0.331661
     52          1           0        1.327112   -0.068347    1.168749
     53          1           0        2.559509    1.111402    0.675360
     54          7           0        0.614702    1.529693   -0.003505
     55          1           0        0.449344    2.164901    0.782974
     56          1           0       -0.341768    1.122985   -0.265362
     57          1           0        0.905097    2.112099   -0.795773
     58          8           0       -0.840850   -4.991391   -2.083814
     59          1           0       -0.530206   -5.874954   -1.806295
 ---------------------------------------------------------------------

 SCF Done:  E(RB3LYP) =  -1300.54514071     A.U. after    1 cycles

 Alpha  occ. eigenvalues --  -19.30075 -19.24682 -19.23898 -19.21203 -14.58345
 Alpha  occ. eigenvalues --  -14.48049 -14.46203 -14.42687 -10.42269 -10.40632
 Alpha  occ. eigenvalues --  -10.38676 -10.38488 -10.34265 -10.33799 -10.33744
 Alpha  occ. eigenvalues --  -10.32054 -10.31827 -10.30531 -10.29432 -10.29283
 Alpha  occ. eigenvalues --  -10.29136 -10.28684 -10.28397 -10.28021 -10.27873
 Alpha  occ. eigenvalues --  -10.27596 -10.27537 -10.27321  -1.20775  -1.15679
 Alpha  occ. eigenvalues --   -1.13239  -1.12865  -1.11752  -1.05492  -1.02779
 Alpha  occ. eigenvalues --   -1.00091  -0.94361  -0.92841  -0.90388  -0.88605
 Alpha  occ. eigenvalues --   -0.87597  -0.85367  -0.83146  -0.82850  -0.81635
 Alpha  occ. eigenvalues --   -0.77349  -0.77108  -0.73732  -0.73259  -0.71628
 Alpha  occ. eigenvalues --   -0.70703  -0.70086  -0.69399  -0.69121  -0.67496
 Alpha  occ. eigenvalues --   -0.67167  -0.65760  -0.63698  -0.63402  -0.62091
 Alpha  occ. eigenvalues --   -0.61107  -0.59665  -0.59350  -0.58556  -0.57977
 Alpha  occ. eigenvalues --   -0.57690  -0.56609  -0.56263  -0.55811  -0.54977
 Alpha  occ. eigenvalues --   -0.54438  -0.54211  -0.53995  -0.52743  -0.52046
 Alpha  occ. eigenvalues --   -0.51729  -0.51571  -0.51437  -0.50855  -0.50733
 Alpha  occ. eigenvalues --   -0.50590  -0.50186  -0.49012  -0.48467  -0.47835
 Alpha  occ. eigenvalues --   -0.47345  -0.47068  -0.45505  -0.45263  -0.45061
 Alpha  occ. eigenvalues --   -0.44406  -0.44169  -0.43823  -0.43702  -0.42921
 Alpha  occ. eigenvalues --   -0.42800  -0.41923  -0.38530  -0.37626  -0.36453
 Alpha  occ. eigenvalues --   -0.35512  -0.35244  -0.34614  -0.33732  -0.33116
 Alpha virt. eigenvalues --   -0.10968  -0.10327  -0.09285  -0.09097  -0.08907
 Alpha virt. eigenvalues --   -0.07293  -0.05739  -0.03076  -0.02853  -0.01498
 Alpha virt. eigenvalues --   -0.00850  -0.00350   0.00364   0.00740   0.01098

 Mulliken charges:
               1
     1  N   -0.715598
     2  H    0.332886
     3  H    0.310321
     4  C   -0.077928
     5  H    0.177924
     6  C    0.663202
     7  C   -0.364986
     8  H    0.114412
     9  H    0.126455
    10  O   -0.612417
    11  C    0.158016
    12  C   -0.196980
    13  H    0.121750
    14  C   -0.181599
    15  H    0.131982
    16  C   -0.125884
    17  H    0.151918
    18  C   -0.126352
    19  H    0.153363
    20  C   -0.126151
    21  H    0.155650
    22  N   -0.430133
    23  C   -0.043097
    24  H    0.164764
    25  C    0.648389
    26  C   -0.314158
    27  H    0.182268
    28  H    0.172126
    29  O   -0.532744
    30  C   -0.301566
    31  H    0.177672
    32  H    0.169203
    33  C   -0.144842
    34  H    0.214319
    35  H    0.176422
    36  N   -0.644385
    37  H    0.357988
    38  C   -0.023861
    39  H    0.211699
    40  C    0.583217
    41  C   -0.287024
    42  H    0.178122
    43  H    0.184962
    44  O   -0.441211
    45  C   -0.299602
    46  H    0.168460
    47  H    0.159068
    48  C   -0.284349
    49  H    0.157722
    50  H    0.195768
    51  C   -0.191475
    52  H    0.213091
    53  H    0.204494
    54  N   -0.778447
    55  H    0.403447
    56  H    0.473222
    57  H    0.399740
    58  O   -0.581173
    59  H    0.431921
 Sum of Mulliken charges =   1.00000

 Dipole moment (field-independent basis, Debye):
    X=             -5.6598    Y=              4.8643    Z=             -2.1342  Tot=              7.7620
 Quadrupole moment (field-independent basis, Debye-Ang):
   XX=           -122.4255   YY=           -100.5738   ZZ=           -150.9686
   XY=             -2.0224   XZ=             16.8554   YZ=              4.9152

 Normal termination of Gaussian 16 at Fri May 27 03:52:34 2022.
