 Gaussian 16, Revision C.01,
 Gaussian 16:  ES64L-G16RevC.01  3-Jul-2019

 -------------------------------------------------------------------
 # B3LYP/6-31G* guess=read geom=check nosymm integral(ultrafinegrid)
 -------------------------------------------------------------------

 ------------------------------------------------------
 Candidate Structure: Conf:123 Charge calc in gas phase
 ------------------------------------------------------
 Structure from the checkpoint file:  "conf-123.chk"
 Charge =  1 Multiplicity = 1

                          Input orientation:
 ---------------------------------------------------------------------
 Center     Atomic      Atomic             Coordinates (Angstroms)
 Number     Number       Type             X           Y           Z
 ---------------------------------------------------------------------
      1          7           0       -4.017918    3.817792    1.057543
      2          1           0       -3.407866    3.502901    1.811129
      3          1           0       -4.927846    3.391671    1.221340
      4          6           0       -3.461731    3.377013   -0.216558
      5          1           0       -4.265128    3.383463   -0.955592
      6          6           0       -2.819938    1.983938   -0.118274
      7          6           0       -2.362166    4.372705   -0.700561
      8          1           0       -1.721631    4.582415    0.168668
      9          1           0       -1.735029    3.877913   -1.454808
     10          8           0       -2.137742    1.694972    0.889980
     11          6           0       -2.911106    5.660607   -1.275605
     12          6           0       -2.861138    5.885429   -2.657687
     13          1           0       -2.407412    5.139812   -3.308600
     14          6           0       -3.485393    6.640570   -0.452944
     15          1           0       -3.541482    6.471486    0.617374
     16          6           0       -3.375110    7.059042   -3.211488
     17          1           0       -3.323273    7.218275   -4.284991
     18          6           0       -4.000049    7.813349   -1.005550
     19          1           0       -4.441739    8.564346   -0.356354
     20          6           0       -3.946886    8.026626   -2.384846
     21          1           0       -4.344708    8.942989   -2.811491
     22          7           0       -2.955744    1.113243   -1.141287
     23          6           0       -2.280442   -0.196516   -1.135717
     24          1           0       -2.796545   -0.864785   -0.433699
     25          6           0       -0.808724   -0.083944   -0.737714
     26          6           0       -2.442644   -0.692482   -2.590098
     27          1           0       -1.615644   -0.306295   -3.196112
     28          1           0       -2.435106   -1.783409   -2.653144
     29          8           0       -0.104864    0.863384   -1.126515
     30          6           0       -3.769683   -0.061171   -3.031450
     31          1           0       -3.872934   -0.007189   -4.117968
     32          1           0       -4.616042   -0.636749   -2.640694
     33          6           0       -3.733498    1.328912   -2.385903
     34          1           0       -4.732953    1.707020   -2.160142
     35          1           0       -3.223015    2.057795   -3.026382
     36          7           0       -0.332632   -1.099112    0.010748
     37          1           0       -0.955727   -1.857148    0.260433
     38          6           0        1.037694   -1.171443    0.500892
     39          1           0        1.564349   -0.315039    0.078710
     40          6           0        1.785148   -2.409931    0.003221
     41          6           0        1.093912   -1.158738    2.053189
     42          1           0        2.149347   -1.187974    2.348010
     43          1           0        0.656751   -2.103671    2.400431
     44          8           0        2.988296   -2.486572   -0.021174
     45          6           0        0.350199    0.000333    2.747819
     46          1           0       -0.579651    0.225295    2.212002
     47          1           0        0.033195   -0.359887    3.732981
     48          6           0        1.142205    1.294928    3.017024
     49          1           0        2.036134    1.060488    3.608789
     50          1           0        0.526115    1.945527    3.651745
     51          6           0        1.633695    2.119573    1.826258
     52          1           0        2.114113    3.032524    2.185023
     53          1           0        2.361694    1.581020    1.214983
     54          7           0        0.515254    2.539349    0.891785
     55          1           0        0.651607    3.489807    0.538070
     56          1           0       -0.438379    2.485187    1.300972
     57          1           0        0.432718    1.902191    0.055308
     58          8           0        0.947049   -3.415415   -0.331212
     59          1           0        1.500813   -4.178870   -0.587335
 ---------------------------------------------------------------------

 SCF Done:  E(RB3LYP) =  -1300.54883016     A.U. after    1 cycles

 Alpha  occ. eigenvalues --  -19.31030 -19.25622 -19.24942 -19.24536 -14.56411
 Alpha  occ. eigenvalues --  -14.50124 -14.49345 -14.41601 -10.43322 -10.42944
 Alpha  occ. eigenvalues --  -10.40657 -10.37989 -10.36482 -10.36225 -10.34129
 Alpha  occ. eigenvalues --  -10.33173 -10.32359 -10.31515 -10.31187 -10.30821
 Alpha  occ. eigenvalues --  -10.30492 -10.29535 -10.27313 -10.26310 -10.25894
 Alpha  occ. eigenvalues --  -10.25731 -10.25681 -10.25651  -1.21751  -1.17685
 Alpha  occ. eigenvalues --   -1.15534  -1.12863  -1.11475  -1.06637  -1.06452
 Alpha  occ. eigenvalues --   -0.99181  -0.93558  -0.92646  -0.91938  -0.90327
 Alpha  occ. eigenvalues --   -0.87307  -0.86320  -0.84206  -0.81286  -0.80796
 Alpha  occ. eigenvalues --   -0.78250  -0.77373  -0.74597  -0.73283  -0.72668
 Alpha  occ. eigenvalues --   -0.71522  -0.71019  -0.70553  -0.69034  -0.67733
 Alpha  occ. eigenvalues --   -0.67407  -0.65779  -0.64034  -0.63452  -0.62968
 Alpha  occ. eigenvalues --   -0.62220  -0.59914  -0.59507  -0.59475  -0.58794
 Alpha  occ. eigenvalues --   -0.58376  -0.58009  -0.57244  -0.56473  -0.55184
 Alpha  occ. eigenvalues --   -0.55005  -0.54536  -0.54432  -0.53506  -0.53045
 Alpha  occ. eigenvalues --   -0.52795  -0.52543  -0.52247  -0.51658  -0.51071
 Alpha  occ. eigenvalues --   -0.50584  -0.50268  -0.50000  -0.48842  -0.47915
 Alpha  occ. eigenvalues --   -0.47508  -0.46943  -0.46616  -0.46334  -0.45992
 Alpha  occ. eigenvalues --   -0.45810  -0.45574  -0.45426  -0.42818  -0.42597
 Alpha  occ. eigenvalues --   -0.41492  -0.41157  -0.41024  -0.39827  -0.38710
 Alpha  occ. eigenvalues --   -0.37368  -0.37098  -0.34088  -0.31850  -0.31452
 Alpha virt. eigenvalues --   -0.12220  -0.11142  -0.10290  -0.08745  -0.07154
 Alpha virt. eigenvalues --   -0.06948  -0.04772  -0.04175  -0.03014  -0.02045
 Alpha virt. eigenvalues --   -0.01742  -0.01393  -0.00424   0.00292   0.00567

 Mulliken charges:
               1
     1  N   -0.690990
     2  H    0.306869
     3  H    0.317587
     4  C   -0.069980
     5  H    0.165363
     6  C    0.607188
     7  C   -0.355997
     8  H    0.121667
     9  H    0.148077
    10  O   -0.600895
    11  C    0.161136
    12  C   -0.192293
    13  H    0.116240
    14  C   -0.162858
    15  H    0.147890
    16  C   -0.127537
    17  H    0.142915
    18  C   -0.131049
    19  H    0.145230
    20  C   -0.125922
    21  H    0.147310
    22  N   -0.445372
    23  C   -0.025210
    24  H    0.170242
    25  C    0.659994
    26  C   -0.311907
    27  H    0.186979
    28  H    0.179062
    29  O   -0.587772
    30  C   -0.308721
    31  H    0.186207
    32  H    0.174050
    33  C   -0.133648
    34  H    0.187041
    35  H    0.182959
    36  N   -0.578388
    37  H    0.357750
    38  C   -0.078713
    39  H    0.190992
    40  C    0.602802
    41  C   -0.287142
    42  H    0.186665
    43  H    0.168013
    44  O   -0.432911
    45  C   -0.308228
    46  H    0.179336
    47  H    0.178743
    48  C   -0.297459
    49  H    0.187747
    50  H    0.172721
    51  C   -0.181216
    52  H    0.207410
    53  H    0.208707
    54  N   -0.803538
    55  H    0.400796
    56  H    0.427393
    57  H    0.452970
    58  O   -0.572796
    59  H    0.434493
 Sum of Mulliken charges =   1.00000

 Dipole moment (field-independent basis, Debye):
    X=             -5.1327    Y=              4.6112    Z=              0.9833  Tot=              6.9695
 Quadrupole moment (field-independent basis, Debye-Ang):
   XX=           -136.4695   YY=           -116.5482   ZZ=           -136.8385
   XY=             -3.2133   XZ=             20.5025   YZ=              3.0300

 Normal termination of Gaussian 16 at Fri May 27 03:52:35 2022.
