 Gaussian 16, Revision C.01,
 Gaussian 16:  ES64L-G16RevC.01  3-Jul-2019

 -------------------------------------------------------------------
 # B3LYP/6-31G* guess=read geom=check nosymm integral(ultrafinegrid)
 -------------------------------------------------------------------

 ------------------------------------------------------
 Candidate Structure: Conf:535 Charge calc in gas phase
 ------------------------------------------------------
 Structure from the checkpoint file:  "conf-535.chk"
 Charge =  1 Multiplicity = 1

                          Input orientation:
 ---------------------------------------------------------------------
 Center     Atomic      Atomic             Coordinates (Angstroms)
 Number     Number       Type             X           Y           Z
 ---------------------------------------------------------------------
      1          7           0       -4.699847    0.530786    3.602434
      2          1           0       -4.371000   -0.435223    3.585043
      3          1           0       -5.485647    0.568849    2.953955
      4          6           0       -3.613069    1.386294    3.121018
      5          1           0       -4.031494    2.377523    2.926662
      6          6           0       -2.976573    0.794236    1.846938
      7          6           0       -2.550750    1.509967    4.243712
      8          1           0       -3.104690    1.736807    5.159863
      9          1           0       -2.091893    0.522383    4.377300
     10          8           0       -2.696016   -0.419938    1.839328
     11          6           0       -1.489574    2.558955    3.992594
     12          6           0       -1.682119    3.882038    4.416959
     13          1           0       -2.589279    4.140882    4.958653
     14          6           0       -0.304759    2.247477    3.311013
     15          1           0       -0.140581    1.225650    2.976447
     16          6           0       -0.725282    4.865795    4.162518
     17          1           0       -0.893306    5.883467    4.504124
     18          6           0        0.654146    3.228582    3.052434
     19          1           0        1.566188    2.969891    2.518988
     20          6           0        0.447058    4.542385    3.476311
     21          1           0        1.192679    5.306988    3.276991
     22          7           0       -2.763539    1.581451    0.766695
     23          6           0       -2.413212    1.000523   -0.555013
     24          1           0       -2.986343    0.075688   -0.682724
     25          6           0       -0.911641    0.636867   -0.682158
     26          6           0       -2.817302    2.101018   -1.543732
     27          1           0       -2.222639    2.054955   -2.456848
     28          1           0       -3.875918    1.987717   -1.802706
     29          8           0       -0.147166    1.207886   -1.452038
     30          6           0       -2.588052    3.393939   -0.747061
     31          1           0       -1.520346    3.635024   -0.738837
     32          1           0       -3.130397    4.252924   -1.150965
     33          6           0       -3.061930    3.030347    0.665242
     34          1           0       -4.141224    3.199937    0.772030
     35          1           0       -2.542559    3.587776    1.447911
     36          7           0       -0.523603   -0.411519    0.101203
     37          1           0       -1.207102   -0.765314    0.776794
     38          6           0        0.828669   -0.922367    0.020266
     39          1           0        1.172957   -0.688782   -0.996930
     40          6           0        0.829265   -2.443372    0.165849
     41          6           0        1.796344   -0.266383    1.023368
     42          1           0        1.536137   -0.612475    2.031825
     43          1           0        1.598942    0.808892    0.999295
     44          8           0        1.564157   -3.069485    0.912094
     45          6           0        3.288936   -0.524743    0.709913
     46          1           0        3.401366   -1.383209    0.038348
     47          1           0        3.705447    0.334888    0.175489
     48          6           0        4.154538   -0.768940    1.962719
     49          1           0        3.935600    0.003914    2.713943
     50          1           0        5.217097   -0.674108    1.700503
     51          6           0        3.901997   -2.153554    2.548905
     52          1           0        2.855449   -2.336188    2.790150
     53          1           0        4.236273   -2.953644    1.885896
     54          7           0        4.690445   -2.330887    3.854084
     55          1           0        4.548854   -3.262981    4.261622
     56          1           0        4.402682   -1.637238    4.554888
     57          1           0        5.698550   -2.206414    3.700459
     58          8           0       -0.064296   -3.035434   -0.635808
     59          1           0        0.005057   -3.998796   -0.490648
 ---------------------------------------------------------------------

 SCF Done:  E(RB3LYP) =  -1300.51722059     A.U. after    2 cycles

 Alpha  occ. eigenvalues --  -19.29959 -19.25034 -19.19614 -19.19514 -14.64600
 Alpha  occ. eigenvalues --  -14.44740 -14.43427 -14.38188 -10.42855 -10.40746
 Alpha  occ. eigenvalues --  -10.36348 -10.36053 -10.34474 -10.33503 -10.31123
 Alpha  occ. eigenvalues --  -10.30856 -10.29742 -10.29639 -10.29578 -10.26793
 Alpha  occ. eigenvalues --  -10.26444 -10.26199 -10.26015 -10.25952 -10.25883
 Alpha  occ. eigenvalues --  -10.25826 -10.25824 -10.25765  -1.21259  -1.18434
 Alpha  occ. eigenvalues --   -1.12137  -1.11706  -1.10821  -1.01882  -1.00682
 Alpha  occ. eigenvalues --   -0.95655  -0.95154  -0.92498  -0.88945  -0.86913
 Alpha  occ. eigenvalues --   -0.84733  -0.84435  -0.81940  -0.81483  -0.79246
 Alpha  occ. eigenvalues --   -0.78278  -0.77078  -0.76339  -0.73587  -0.72115
 Alpha  occ. eigenvalues --   -0.70383  -0.69047  -0.67645  -0.67612  -0.66583
 Alpha  occ. eigenvalues --   -0.66023  -0.64993  -0.63449  -0.61698  -0.61145
 Alpha  occ. eigenvalues --   -0.59696  -0.58955  -0.58497  -0.57999  -0.57220
 Alpha  occ. eigenvalues --   -0.56782  -0.54715  -0.54511  -0.53641  -0.53212
 Alpha  occ. eigenvalues --   -0.53069  -0.52667  -0.52337  -0.52173  -0.51273
 Alpha  occ. eigenvalues --   -0.50669  -0.49751  -0.49277  -0.48946  -0.48796
 Alpha  occ. eigenvalues --   -0.48416  -0.47768  -0.47233  -0.46620  -0.45869
 Alpha  occ. eigenvalues --   -0.45633  -0.45183  -0.44511  -0.43877  -0.43192
 Alpha  occ. eigenvalues --   -0.42729  -0.42314  -0.42156  -0.41135  -0.40923
 Alpha  occ. eigenvalues --   -0.40834  -0.40524  -0.38696  -0.34927  -0.33921
 Alpha  occ. eigenvalues --   -0.33398  -0.32243  -0.31722  -0.31283  -0.30234
 Alpha virt. eigenvalues --   -0.15165  -0.10280  -0.08571  -0.08380  -0.07532
 Alpha virt. eigenvalues --   -0.07375  -0.06508  -0.05734  -0.05449  -0.02046
 Alpha virt. eigenvalues --   -0.01914  -0.01321  -0.00150   0.00879   0.01701

 Mulliken charges:
               1
     1  N   -0.696142
     2  H    0.315347
     3  H    0.305701
     4  C   -0.060044
     5  H    0.150607
     6  C    0.601933
     7  C   -0.347687
     8  H    0.175695
     9  H    0.148639
    10  O   -0.584274
    11  C    0.157865
    12  C   -0.188909
    13  H    0.141763
    14  C   -0.191079
    15  H    0.118768
    16  C   -0.128110
    17  H    0.146852
    18  C   -0.135532
    19  H    0.115000
    20  C   -0.131176
    21  H    0.140312
    22  N   -0.444395
    23  C   -0.077041
    24  H    0.184570
    25  C    0.625112
    26  C   -0.293770
    27  H    0.189455
    28  H    0.153797
    29  O   -0.519828
    30  C   -0.309982
    31  H    0.177825
    32  H    0.165120
    33  C   -0.136205
    34  H    0.161827
    35  H    0.186988
    36  N   -0.634535
    37  H    0.384652
    38  C   -0.032982
    39  H    0.212265
    40  C    0.582211
    41  C   -0.276225
    42  H    0.134194
    43  H    0.191043
    44  O   -0.503454
    45  C   -0.270094
    46  H    0.165325
    47  H    0.183073
    48  C   -0.303940
    49  H    0.164544
    50  H    0.166534
    51  C   -0.199709
    52  H    0.248501
    53  H    0.231301
    54  N   -0.734199
    55  H    0.431111
    56  H    0.424375
    57  H    0.423385
    58  O   -0.531690
    59  H    0.425312
 Sum of Mulliken charges =   1.00000

 Dipole moment (field-independent basis, Debye):
    X=             15.6226    Y=             -6.8776    Z=             14.6886  Tot=             22.5194
 Quadrupole moment (field-independent basis, Debye-Ang):
   XX=            -54.9844   YY=           -117.8920   ZZ=           -110.5662
   XY=            -52.3441   XZ=             73.7320   YZ=            -24.1151

 Normal termination of Gaussian 16 at Fri May 27 03:52:51 2022.
