 Gaussian 16, Revision C.01,
 Gaussian 16:  ES64L-G16RevC.01  3-Jul-2019

 -------------------------------------------------------------------
 # B3LYP/6-31G* guess=read geom=check nosymm integral(ultrafinegrid)
 -------------------------------------------------------------------

 ------------------------------------------------------
 Candidate Structure: Conf:497 Charge calc in gas phase
 ------------------------------------------------------
 Structure from the checkpoint file:  "conf-497.chk"
 Charge =  1 Multiplicity = 1

                          Input orientation:
 ---------------------------------------------------------------------
 Center     Atomic      Atomic             Coordinates (Angstroms)
 Number     Number       Type             X           Y           Z
 ---------------------------------------------------------------------
      1          7           0       -3.782242   -1.502440    3.713438
      2          1           0       -4.083985   -1.591123    4.681585
      3          1           0       -3.076728   -2.214682    3.535949
      4          6           0       -3.194043   -0.184863    3.487553
      5          1           0       -3.995192    0.553732    3.562376
      6          6           0       -2.599108   -0.228419    2.072975
      7          6           0       -2.080915    0.221375    4.507262
      8          1           0       -2.478080    0.012640    5.508256
      9          1           0       -1.226295   -0.449184    4.352610
     10          8           0       -1.868247   -1.198337    1.788277
     11          6           0       -1.658407    1.672116    4.423142
     12          6           0       -2.275109    2.641151    5.227032
     13          1           0       -3.028346    2.335276    5.950108
     14          6           0       -0.683377    2.094242    3.508036
     15          1           0       -0.196571    1.355957    2.874613
     16          6           0       -1.931347    3.989563    5.119157
     17          1           0       -2.417927    4.722890    5.756319
     18          6           0       -0.340155    3.441757    3.390013
     19          1           0        0.411515    3.748061    2.667232
     20          6           0       -0.964468    4.394972    4.197440
     21          1           0       -0.697106    5.444242    4.110808
     22          7           0       -2.841246    0.763621    1.186472
     23          6           0       -2.369870    0.649510   -0.220866
     24          1           0       -2.591097   -0.369051   -0.558351
     25          6           0       -0.842233    0.879066   -0.375921
     26          6           0       -3.178113    1.712854   -0.989068
     27          1           0       -2.542099    2.588541   -1.143914
     28          1           0       -3.487005    1.345239   -1.971015
     29          8           0       -0.354920    1.924931   -0.775273
     30          6           0       -4.361661    2.050054   -0.070807
     31          1           0       -4.763933    3.050643   -0.251359
     32          1           0       -5.176318    1.328147   -0.197739
     33          6           0       -3.763119    1.911359    1.331060
     34          1           0       -4.514474    1.715923    2.095024
     35          1           0       -3.196056    2.803653    1.621372
     36          7           0       -0.092339   -0.231082   -0.065965
     37          1           0       -0.572964   -0.935117    0.503603
     38          6           0        1.354320   -0.206869   -0.150776
     39          1           0        1.618727    0.750212   -0.610314
     40          6           0        1.752925   -1.284074   -1.163028
     41          6           0        2.020956   -0.361106    1.225565
     42          1           0        1.623251   -1.273086    1.688875
     43          1           0        1.680360    0.465657    1.857071
     44          8           0        1.819610   -1.161518   -2.352341
     45          6           0        3.560000   -0.372479    1.168533
     46          1           0        3.905888   -0.882722    0.257510
     47          1           0        3.931915    0.652582    1.068710
     48          6           0        4.245144   -1.011162    2.391491
     49          1           0        4.045905   -0.420101    3.293519
     50          1           0        5.333556   -0.994222    2.251845
     51          6           0        3.796703   -2.437593    2.714047
     52          1           0        4.450085   -2.911538    3.449810
     53          1           0        2.770112   -2.483988    3.081065
     54          7           0        3.821412   -3.324626    1.473362
     55          1           0        3.586006   -4.294951    1.709267
     56          1           0        4.753597   -3.331200    1.043685
     57          1           0        3.137732   -2.997841    0.747577
     58          8           0        1.972917   -2.547050   -0.582238
     59          1           0        2.034951   -3.152795   -1.348571
 ---------------------------------------------------------------------

 SCF Done:  E(RB3LYP) =  -1300.51551461     A.U. after    2 cycles

 Alpha  occ. eigenvalues --  -19.34085 -19.27158 -19.20859 -19.20579 -14.62807
 Alpha  occ. eigenvalues --  -14.45695 -14.44926 -14.38640 -10.44794 -10.41519
 Alpha  occ. eigenvalues --  -10.37710 -10.37294 -10.35336 -10.34937 -10.33233
 Alpha  occ. eigenvalues --  -10.32081 -10.31707 -10.30299 -10.30184 -10.26960
 Alpha  occ. eigenvalues --  -10.26815 -10.26438 -10.26276 -10.26160 -10.26149
 Alpha  occ. eigenvalues --  -10.25918 -10.25861 -10.25788  -1.23471  -1.17165
 Alpha  occ. eigenvalues --   -1.14821  -1.12948  -1.11927  -1.02674  -1.02360
 Alpha  occ. eigenvalues --   -0.96229  -0.95933  -0.92514  -0.90707  -0.87496
 Alpha  occ. eigenvalues --   -0.85809  -0.84938  -0.82826  -0.81424  -0.79704
 Alpha  occ. eigenvalues --   -0.78602  -0.75718  -0.75632  -0.74920  -0.74055
 Alpha  occ. eigenvalues --   -0.72419  -0.70997  -0.68746  -0.67615  -0.66354
 Alpha  occ. eigenvalues --   -0.65601  -0.65230  -0.64079  -0.63002  -0.61606
 Alpha  occ. eigenvalues --   -0.61098  -0.60471  -0.59788  -0.59293  -0.58732
 Alpha  occ. eigenvalues --   -0.58217  -0.56439  -0.56132  -0.54804  -0.54536
 Alpha  occ. eigenvalues --   -0.53777  -0.53199  -0.53083  -0.52585  -0.52314
 Alpha  occ. eigenvalues --   -0.51412  -0.51214  -0.50488  -0.50076  -0.49297
 Alpha  occ. eigenvalues --   -0.49137  -0.48702  -0.48190  -0.48060  -0.47554
 Alpha  occ. eigenvalues --   -0.46974  -0.46514  -0.45728  -0.45383  -0.44503
 Alpha  occ. eigenvalues --   -0.43946  -0.43297  -0.42692  -0.42202  -0.41198
 Alpha  occ. eigenvalues --   -0.40982  -0.40840  -0.40560  -0.35901  -0.35280
 Alpha  occ. eigenvalues --   -0.34316  -0.32613  -0.32255  -0.31928  -0.29981
 Alpha virt. eigenvalues --   -0.13840  -0.12757  -0.07857  -0.07728  -0.07280
 Alpha virt. eigenvalues --   -0.07061  -0.06629  -0.06242  -0.05238  -0.03893
 Alpha virt. eigenvalues --   -0.02981  -0.01518  -0.01031   0.00078   0.00878

 Mulliken charges:
               1
     1  N   -0.707611
     2  H    0.304592
     3  H    0.312652
     4  C   -0.046336
     5  H    0.152273
     6  C    0.644693
     7  C   -0.369042
     8  H    0.148856
     9  H    0.139063
    10  O   -0.597753
    11  C    0.167915
    12  C   -0.189075
    13  H    0.133835
    14  C   -0.197971
    15  H    0.117946
    16  C   -0.125749
    17  H    0.146910
    18  C   -0.134094
    19  H    0.135580
    20  C   -0.132575
    21  H    0.145622
    22  N   -0.447043
    23  C   -0.054917
    24  H    0.180314
    25  C    0.606445
    26  C   -0.317086
    27  H    0.197047
    28  H    0.169148
    29  O   -0.489944
    30  C   -0.295611
    31  H    0.169440
    32  H    0.162954
    33  C   -0.143197
    34  H    0.179349
    35  H    0.185236
    36  N   -0.636940
    37  H    0.384780
    38  C   -0.024112
    39  H    0.223387
    40  C    0.586526
    41  C   -0.304292
    42  H    0.137147
    43  H    0.201017
    44  O   -0.394754
    45  C   -0.305782
    46  H    0.132928
    47  H    0.201094
    48  C   -0.292647
    49  H    0.206518
    50  H    0.179383
    51  C   -0.206339
    52  H    0.223601
    53  H    0.228343
    54  N   -0.775061
    55  H    0.419526
    56  H    0.413776
    57  H    0.458371
    58  O   -0.636963
    59  H    0.428628
 Sum of Mulliken charges =   1.00000

 Dipole moment (field-independent basis, Debye):
    X=             12.4945    Y=            -10.9121    Z=             10.5673  Tot=             19.6685
 Quadrupole moment (field-independent basis, Debye-Ang):
   XX=            -79.8920   YY=           -108.7436   ZZ=           -135.0487
   XY=            -62.1962   XZ=             18.6885   YZ=             -8.9377

 Normal termination of Gaussian 16 at Fri May 27 03:52:47 2022.
