 Gaussian 16, Revision C.01,
 Gaussian 16:  ES64L-G16RevC.01  3-Jul-2019

 -------------------------------------------------------------------
 # B3LYP/6-31G* guess=read geom=check nosymm integral(ultrafinegrid)
 -------------------------------------------------------------------

 ------------------------------------------------------
 Candidate Structure: Conf:222 Charge calc in gas phase
 ------------------------------------------------------
 Structure from the checkpoint file:  "conf-222.chk"
 Charge =  1 Multiplicity = 1

                          Input orientation:
 ---------------------------------------------------------------------
 Center     Atomic      Atomic             Coordinates (Angstroms)
 Number     Number       Type             X           Y           Z
 ---------------------------------------------------------------------
      1          7           0       -1.852005   -0.347181   -4.026194
      2          1           0       -2.788582   -0.540648   -4.385683
      3          1           0       -1.410618   -1.265015   -3.963317
      4          6           0       -1.999739    0.211974   -2.684000
      5          1           0       -0.999331    0.242252   -2.241183
      6          6           0       -2.905277   -0.678015   -1.794812
      7          6           0       -2.522361    1.672279   -2.789827
      8          1           0       -3.234583    1.704739   -3.624341
      9          1           0       -3.097156    1.947475   -1.898612
     10          8           0       -3.743953   -1.409800   -2.301035
     11          6           0       -1.421270    2.697516   -3.000892
     12          6           0       -1.378706    3.860070   -2.217229
     13          1           0       -2.145499    4.027066   -1.464626
     14          6           0       -0.422838    2.509303   -3.971959
     15          1           0       -0.460173    1.618260   -4.592063
     16          6           0       -0.379287    4.819417   -2.399626
     17          1           0       -0.387058    5.727107   -1.801492
     18          6           0        0.587650    3.458085   -4.148765
     19          1           0        1.335794    3.307863   -4.923264
     20          6           0        0.613924    4.621736   -3.366630
     21          1           0        1.371295    5.382777   -3.539570
     22          7           0       -2.681027   -0.692521   -0.429932
     23          6           0       -2.005142    0.358205    0.342256
     24          1           0       -2.344563    1.359485    0.062008
     25          6           0       -0.489640    0.412806    0.143491
     26          6           0       -2.408517    0.058718    1.817961
     27          1           0       -1.594032    0.258758    2.519673
     28          1           0       -3.241975    0.714364    2.088564
     29          8           0        0.084110    1.517117    0.207706
     30          6           0       -2.866909   -1.408891    1.801244
     31          1           0       -2.008450   -2.085544    1.888660
     32          1           0       -3.554157   -1.638495    2.619507
     33          6           0       -3.522420   -1.555081    0.427509
     34          1           0       -4.560019   -1.197297    0.426140
     35          1           0       -3.524143   -2.573618    0.035190
     36          7           0        0.160744   -0.737405   -0.087203
     37          1           0       -0.374513   -1.590123   -0.233778
     38          6           0        1.564404   -0.784427   -0.473624
     39          1           0        1.721568   -0.083281   -1.305189
     40          6           0        1.801212   -2.188032   -1.034678
     41          6           0        2.528555   -0.428197    0.693751
     42          1           0        2.653844   -1.320334    1.317086
     43          1           0        2.022206    0.312392    1.320407
     44          8           0        0.963765   -3.061668   -1.037685
     45          6           0        3.916329    0.101204    0.273390
     46          1           0        4.615059   -0.141322    1.081739
     47          1           0        4.281027   -0.447166   -0.601911
     48          6           0        4.068423    1.619063    0.029610
     49          1           0        5.142287    1.819186   -0.054535
     50          1           0        3.740102    2.176070    0.919241
     51          6           0        3.415109    2.233392   -1.224153
     52          1           0        4.041545    3.024859   -1.642429
     53          1           0        3.248043    1.495926   -2.013298
     54          7           0        2.079199    2.874091   -0.939137
     55          1           0        1.652308    3.281681   -1.791412
     56          1           0        2.185105    3.643684   -0.270904
     57          1           0        1.365839    2.212153   -0.514422
     58          8           0        3.042153   -2.330096   -1.526550
     59          1           0        3.127052   -3.248367   -1.851643
 ---------------------------------------------------------------------

 SCF Done:  E(RB3LYP) =  -1300.53876891     A.U. after    1 cycles

 Alpha  occ. eigenvalues --  -19.32674 -19.27183 -19.26264 -19.21051 -14.57323
 Alpha  occ. eigenvalues --  -14.49619 -14.46444 -14.40870 -10.45296 -10.42480
 Alpha  occ. eigenvalues --  -10.38807 -10.37841 -10.37757 -10.35029 -10.33197
 Alpha  occ. eigenvalues --  -10.32467 -10.31932 -10.31302 -10.31134 -10.30332
 Alpha  occ. eigenvalues --  -10.30293 -10.29956 -10.29893 -10.29828 -10.29450
 Alpha  occ. eigenvalues --  -10.29357 -10.28908 -10.28764  -1.23747  -1.17667
 Alpha  occ. eigenvalues --   -1.14930  -1.13104  -1.12377  -1.06558  -1.04115
 Alpha  occ. eigenvalues --   -0.98528  -0.95874  -0.94007  -0.90869  -0.89521
 Alpha  occ. eigenvalues --   -0.87943  -0.86145  -0.84811  -0.84373  -0.81663
 Alpha  occ. eigenvalues --   -0.79103  -0.76870  -0.75514  -0.73362  -0.72353
 Alpha  occ. eigenvalues --   -0.71431  -0.71229  -0.70908  -0.69740  -0.69061
 Alpha  occ. eigenvalues --   -0.68241  -0.67238  -0.64352  -0.63768  -0.62331
 Alpha  occ. eigenvalues --   -0.62121  -0.60945  -0.60496  -0.60041  -0.59106
 Alpha  occ. eigenvalues --   -0.58633  -0.58269  -0.56698  -0.55871  -0.55727
 Alpha  occ. eigenvalues --   -0.55193  -0.55047  -0.54829  -0.54133  -0.53794
 Alpha  occ. eigenvalues --   -0.53280  -0.53004  -0.52222  -0.52130  -0.51602
 Alpha  occ. eigenvalues --   -0.51253  -0.50917  -0.50318  -0.49170  -0.47654
 Alpha  occ. eigenvalues --   -0.47544  -0.47117  -0.46590  -0.46494  -0.46146
 Alpha  occ. eigenvalues --   -0.45595  -0.45153  -0.44765  -0.44683  -0.44301
 Alpha  occ. eigenvalues --   -0.43842  -0.43275  -0.40954  -0.40158  -0.39717
 Alpha  occ. eigenvalues --   -0.35874  -0.35793  -0.35218  -0.34128  -0.33012
 Alpha virt. eigenvalues --   -0.12688  -0.11525  -0.11413  -0.10946  -0.08787
 Alpha virt. eigenvalues --   -0.08060  -0.04957  -0.04417  -0.03324  -0.03010
 Alpha virt. eigenvalues --   -0.02509  -0.01757  -0.00300   0.00039   0.00322

 Mulliken charges:
               1
     1  N   -0.698745
     2  H    0.328940
     3  H    0.308923
     4  C   -0.089353
     5  H    0.130286
     6  C    0.566456
     7  C   -0.337315
     8  H    0.192341
     9  H    0.156158
    10  O   -0.488114
    11  C    0.148596
    12  C   -0.183345
    13  H    0.145018
    14  C   -0.182546
    15  H    0.191813
    16  C   -0.147529
    17  H    0.154599
    18  C   -0.153733
    19  H    0.155435
    20  C   -0.200902
    21  H    0.153911
    22  N   -0.490700
    23  C   -0.027903
    24  H    0.180063
    25  C    0.619886
    26  C   -0.313358
    27  H    0.173495
    28  H    0.180717
    29  O   -0.590314
    30  C   -0.302813
    31  H    0.157393
    32  H    0.181189
    33  C   -0.120256
    34  H    0.175932
    35  H    0.192508
    36  N   -0.593210
    37  H    0.379708
    38  C   -0.036365
    39  H    0.166051
    40  C    0.588964
    41  C   -0.287501
    42  H    0.180170
    43  H    0.175119
    44  O   -0.443112
    45  C   -0.289958
    46  H    0.177794
    47  H    0.181578
    48  C   -0.297138
    49  H    0.192794
    50  H    0.160985
    51  C   -0.190316
    52  H    0.208077
    53  H    0.206790
    54  N   -0.789478
    55  H    0.410469
    56  H    0.395306
    57  H    0.455250
    58  O   -0.558498
    59  H    0.439787
 Sum of Mulliken charges =   1.00000

 Dipole moment (field-independent basis, Debye):
    X=              8.4490    Y=              7.0385    Z=             -2.0862  Tot=             11.1928
 Quadrupole moment (field-independent basis, Debye-Ang):
   XX=           -121.5049   YY=           -125.4767   ZZ=           -150.8078
   XY=              9.3967   XZ=            -18.6626   YZ=             -9.6376

 Normal termination of Gaussian 16 at Fri May 27 03:52:37 2022.
