 Gaussian 16, Revision C.01,
 Gaussian 16:  ES64L-G16RevC.01  3-Jul-2019

 -------------------------------------------------------------------
 # B3LYP/6-31G* guess=read geom=check nosymm integral(ultrafinegrid)
 -------------------------------------------------------------------

 -----------------------------------------------------
 Candidate Structure: Conf:62 Charge calc in gas phase
 -----------------------------------------------------
 Structure from the checkpoint file:  "conf-62.chk"
 Charge =  1 Multiplicity = 1

                          Input orientation:
 ---------------------------------------------------------------------
 Center     Atomic      Atomic             Coordinates (Angstroms)
 Number     Number       Type             X           Y           Z
 ---------------------------------------------------------------------
      1          7           0       -3.638271    2.889448    2.332452
      2          1           0       -3.338710    2.020187    2.778473
      3          1           0       -4.650929    2.930067    2.425574
      4          6           0       -3.261124    2.804182    0.928473
      5          1           0       -3.960737    3.389471    0.326056
      6          6           0       -3.129723    1.343471    0.447249
      7          6           0       -1.812107    3.351764    0.727928
      8          1           0       -1.191221    2.707810    1.365725
      9          1           0       -1.503861    3.152661   -0.306175
     10          8           0       -2.730718    0.496490    1.254147
     11          6           0       -1.572726    4.805333    1.065626
     12          6           0       -1.409193    5.758780    0.044520
     13          1           0       -1.507251    5.450531   -0.994762
     14          6           0       -1.448044    5.230210    2.402803
     15          1           0       -1.618750    4.513227    3.199906
     16          6           0       -1.138895    7.095334    0.345118
     17          1           0       -1.027814    7.817917   -0.458636
     18          6           0       -1.173629    6.568934    2.702251
     19          1           0       -1.095839    6.882272    3.739664
     20          6           0       -1.016774    7.503149    1.676278
     21          1           0       -0.808378    8.542818    1.911358
     22          7           0       -3.262641    1.054329   -0.871769
     23          6           0       -2.664670   -0.194910   -1.371353
     24          1           0       -3.088850   -1.051712   -0.840618
     25          6           0       -1.141604   -0.115627   -1.136013
     26          6           0       -3.033629   -0.194423   -2.869319
     27          1           0       -2.296877   -0.723351   -3.479685
     28          1           0       -3.997895   -0.698351   -2.997003
     29          8           0       -0.485091    0.853058   -1.531301
     30          6           0       -3.145371    1.297653   -3.225700
     31          1           0       -2.149618    1.705718   -3.415390
     32          1           0       -3.771070    1.478168   -4.103868
     33          6           0       -3.734115    1.934559   -1.957115
     34          1           0       -4.831400    1.944907   -1.980537
     35          1           0       -3.388692    2.962826   -1.817594
     36          7           0       -0.593011   -1.164015   -0.479279
     37          1           0       -1.207485   -1.860177   -0.079337
     38          6           0        0.814528   -1.221925   -0.107619
     39          1           0        1.386575   -0.821499   -0.953351
     40          6           0        1.293819   -2.665296    0.065647
     41          6           0        1.161249   -0.395708    1.167210
     42          1           0        1.952288   -0.915252    1.717138
     43          1           0        0.268568   -0.369833    1.803536
     44          8           0        2.411824   -2.946883    0.426059
     45          6           0        1.628402    1.037423    0.855649
     46          1           0        2.595139    0.989037    0.333700
     47          1           0        0.911386    1.481288    0.155006
     48          6           0        1.778160    1.885524    2.128856
     49          1           0        2.448828    1.382151    2.836747
     50          1           0        0.812930    1.981213    2.644074
     51          6           0        2.378991    3.270717    1.896731
     52          1           0        2.486818    3.838757    2.823477
     53          1           0        3.352735    3.210230    1.403517
     54          7           0        1.501028    4.119005    0.986510
     55          1           0        1.957455    4.998384    0.721350
     56          1           0        0.590398    4.379333    1.419358
     57          1           0        1.274810    3.610871    0.122968
     58          8           0        0.346170   -3.582823   -0.222145
     59          1           0        0.751990   -4.460547   -0.082654
 ---------------------------------------------------------------------

 SCF Done:  E(RB3LYP) =  -1300.52504954     A.U. after    2 cycles

 Alpha  occ. eigenvalues --  -19.29537 -19.23334 -19.21467 -19.20928 -14.61166
 Alpha  occ. eigenvalues --  -14.46113 -14.45851 -14.40366 -10.41873 -10.40013
 Alpha  occ. eigenvalues --  -10.38548 -10.37519 -10.34342 -10.33120 -10.32676
 Alpha  occ. eigenvalues --  -10.32425 -10.31847 -10.31082 -10.30660 -10.30192
 Alpha  occ. eigenvalues --  -10.30110 -10.29977 -10.29893 -10.29787 -10.29710
 Alpha  occ. eigenvalues --  -10.29571 -10.28369 -10.27791  -1.20315  -1.15533
 Alpha  occ. eigenvalues --   -1.13666  -1.12436  -1.11258  -1.03536  -1.02630
 Alpha  occ. eigenvalues --   -0.98288  -0.96282  -0.94044  -0.89499  -0.88716
 Alpha  occ. eigenvalues --   -0.88160  -0.85314  -0.85272  -0.83169  -0.82058
 Alpha  occ. eigenvalues --   -0.77874  -0.75784  -0.74142  -0.73517  -0.72746
 Alpha  occ. eigenvalues --   -0.71646  -0.71238  -0.70470  -0.69348  -0.68856
 Alpha  occ. eigenvalues --   -0.67594  -0.65067  -0.64579  -0.62668  -0.61917
 Alpha  occ. eigenvalues --   -0.60858  -0.60442  -0.59649  -0.58141  -0.57965
 Alpha  occ. eigenvalues --   -0.57083  -0.56367  -0.56234  -0.55960  -0.55549
 Alpha  occ. eigenvalues --   -0.55043  -0.54202  -0.53867  -0.53270  -0.52641
 Alpha  occ. eigenvalues --   -0.51978  -0.51683  -0.51165  -0.50524  -0.50355
 Alpha  occ. eigenvalues --   -0.49658  -0.49446  -0.48915  -0.48110  -0.47861
 Alpha  occ. eigenvalues --   -0.46836  -0.46731  -0.46292  -0.45497  -0.45167
 Alpha  occ. eigenvalues --   -0.44815  -0.44570  -0.44467  -0.43999  -0.43624
 Alpha  occ. eigenvalues --   -0.43216  -0.41136  -0.37731  -0.36389  -0.36128
 Alpha  occ. eigenvalues --   -0.35680  -0.35369  -0.34862  -0.33180  -0.32667
 Alpha virt. eigenvalues --   -0.12006  -0.11906  -0.11473  -0.09058  -0.08160
 Alpha virt. eigenvalues --   -0.07250  -0.05791  -0.04640  -0.03058  -0.02459
 Alpha virt. eigenvalues --   -0.01862  -0.01474  -0.00581   0.00036   0.00878

 Mulliken charges:
               1
     1  N   -0.715395
     2  H    0.323783
     3  H    0.319116
     4  C   -0.060226
     5  H    0.154835
     6  C    0.589953
     7  C   -0.383133
     8  H    0.141647
     9  H    0.169074
    10  O   -0.552370
    11  C    0.105320
    12  C   -0.208222
    13  H    0.144300
    14  C   -0.196636
    15  H    0.169837
    16  C   -0.132559
    17  H    0.160421
    18  C   -0.129861
    19  H    0.162082
    20  C   -0.135260
    21  H    0.163043
    22  N   -0.430496
    23  C   -0.057616
    24  H    0.169192
    25  C    0.650069
    26  C   -0.304251
    27  H    0.174988
    28  H    0.170958
    29  O   -0.560652
    30  C   -0.298879
    31  H    0.179288
    32  H    0.167174
    33  C   -0.127656
    34  H    0.172247
    35  H    0.155634
    36  N   -0.597212
    37  H    0.359814
    38  C   -0.043272
    39  H    0.208124
    40  C    0.579900
    41  C   -0.280849
    42  H    0.187907
    43  H    0.177115
    44  O   -0.444292
    45  C   -0.317854
    46  H    0.156461
    47  H    0.177544
    48  C   -0.295644
    49  H    0.196948
    50  H    0.180103
    51  C   -0.202867
    52  H    0.219960
    53  H    0.216094
    54  N   -0.751518
    55  H    0.418817
    56  H    0.417287
    57  H    0.424631
    58  O   -0.568262
    59  H    0.431316
 Sum of Mulliken charges =   1.00000

 Dipole moment (field-independent basis, Debye):
    X=              0.6337    Y=             14.7203    Z=              2.1758  Tot=             14.8937
 Quadrupole moment (field-independent basis, Debye-Ang):
   XX=           -132.9483   YY=            -66.1692   ZZ=           -146.0949
   XY=             18.8331   XZ=             17.3098   YZ=             18.5474

 Normal termination of Gaussian 16 at Fri May 27 03:52:50 2022.
