 Gaussian 16, Revision C.01,
 Gaussian 16:  ES64L-G16RevC.01  3-Jul-2019

 -------------------------------------------------------------------
 # B3LYP/6-31G* guess=read geom=check nosymm integral(ultrafinegrid)
 -------------------------------------------------------------------

 ------------------------------------------------------
 Candidate Structure: Conf:472 Charge calc in gas phase
 ------------------------------------------------------
 Structure from the checkpoint file:  "conf-472.chk"
 Charge =  1 Multiplicity = 1

                          Input orientation:
 ---------------------------------------------------------------------
 Center     Atomic      Atomic             Coordinates (Angstroms)
 Number     Number       Type             X           Y           Z
 ---------------------------------------------------------------------
      1          7           0       -3.472488   -2.283598   -2.537282
      2          1           0       -2.724379   -1.806853   -3.042112
      3          1           0       -4.211047   -1.593474   -2.413002
      4          6           0       -2.948159   -2.699920   -1.243269
      5          1           0       -3.793138   -2.862646   -0.565837
      6          6           0       -1.996055   -1.644775   -0.650151
      7          6           0       -2.174993   -4.046044   -1.390711
      8          1           0       -1.488863   -3.925316   -2.238952
      9          1           0       -1.547246   -4.206563   -0.504081
     10          8           0       -1.360826   -0.876230   -1.369022
     11          6           0       -3.071680   -5.250671   -1.580876
     12          6           0       -3.248853   -6.164758   -0.533537
     13          1           0       -2.721034   -6.013202    0.407273
     14          6           0       -3.747163   -5.476678   -2.789238
     15          1           0       -3.629331   -4.768876   -3.602662
     16          6           0       -4.081499   -7.275619   -0.680234
     17          1           0       -4.202152   -7.974543    0.143149
     18          6           0       -4.579971   -6.585707   -2.937833
     19          1           0       -5.096082   -6.746876   -3.880443
     20          6           0       -4.750605   -7.488378   -1.885637
     21          1           0       -5.397157   -8.353091   -2.006436
     22          7           0       -1.806999   -1.616580    0.716829
     23          6           0       -1.048066   -0.493648    1.280373
     24          1           0       -1.352293    0.447693    0.813215
     25          6           0        0.455256   -0.579645    1.012424
     26          6           0       -1.396920   -0.525138    2.792436
     27          1           0       -0.550412   -0.237774    3.422026
     28          1           0       -2.204342    0.188977    2.983655
     29          8           0        1.140638    0.459306    1.094714
     30          6           0       -1.885425   -1.963004    3.039444
     31          1           0       -1.034769   -2.639076    3.185433
     32          1           0       -2.533461   -2.046681    3.915609
     33          6           0       -2.615767   -2.312635    1.737931
     34          1           0       -3.646302   -1.932009    1.748505
     35          1           0       -2.653028   -3.387521    1.544246
     36          7           0        0.968777   -1.793499    0.750768
     37          1           0        0.303116   -2.534746    0.561695
     38          6           0        2.338562   -1.968079    0.276855
     39          1           0        2.473263   -1.296946   -0.584968
     40          6           0        2.580059   -3.369200   -0.278348
     41          6           0        3.402631   -1.611943    1.349542
     42          1           0        3.785188   -2.524054    1.816464
     43          1           0        2.886283   -1.053561    2.133624
     44          8           0        3.685018   -3.810500   -0.478685
     45          6           0        4.569556   -0.792755    0.766320
     46          1           0        5.314970   -1.468542    0.336251
     47          1           0        4.204615   -0.197197   -0.083759
     48          6           0        5.269464    0.149041    1.761491
     49          1           0        6.071503    0.685621    1.238940
     50          1           0        5.758405   -0.422048    2.559831
     51          6           0        4.354782    1.165990    2.454983
     52          1           0        3.717279    0.708221    3.213939
     53          1           0        4.937071    1.958275    2.930744
     54          7           0        3.397807    1.829931    1.481418
     55          1           0        2.946721    2.646242    1.906632
     56          1           0        2.605454    1.174242    1.202037
     57          1           0        3.880144    2.154050    0.637072
     58          8           0        1.436289   -4.034729   -0.544972
     59          1           0        1.678857   -4.901988   -0.924596
 ---------------------------------------------------------------------

 SCF Done:  E(RB3LYP) =  -1300.53415903     A.U. after    3 cycles

 Alpha  occ. eigenvalues --  -19.31773 -19.25826 -19.25570 -19.21259 -14.59429
 Alpha  occ. eigenvalues --  -14.48913 -14.46608 -14.38822 -10.44095 -10.41974
 Alpha  occ. eigenvalues --  -10.39576 -10.37585 -10.36744 -10.34187 -10.33477
 Alpha  occ. eigenvalues --  -10.32664 -10.31887 -10.31608 -10.30676 -10.30335
 Alpha  occ. eigenvalues --  -10.29644 -10.26959 -10.25566 -10.24823 -10.24490
 Alpha  occ. eigenvalues --  -10.24247 -10.24174 -10.23969  -1.22470  -1.16932
 Alpha  occ. eigenvalues --   -1.14037  -1.13535  -1.13245  -1.06013  -1.04130
 Alpha  occ. eigenvalues --   -0.96570  -0.94544  -0.90971  -0.90825  -0.89699
 Alpha  occ. eigenvalues --   -0.86390  -0.84468  -0.84073  -0.79748  -0.79658
 Alpha  occ. eigenvalues --   -0.78831  -0.75763  -0.74178  -0.73515  -0.72267
 Alpha  occ. eigenvalues --   -0.71634  -0.71224  -0.70745  -0.69355  -0.66717
 Alpha  occ. eigenvalues --   -0.65905  -0.65276  -0.63918  -0.63680  -0.61569
 Alpha  occ. eigenvalues --   -0.60921  -0.60423  -0.59830  -0.59375  -0.58031
 Alpha  occ. eigenvalues --   -0.56863  -0.56708  -0.56184  -0.55428  -0.55321
 Alpha  occ. eigenvalues --   -0.54299  -0.53928  -0.53761  -0.52771  -0.52624
 Alpha  occ. eigenvalues --   -0.51910  -0.51384  -0.51136  -0.50806  -0.50113
 Alpha  occ. eigenvalues --   -0.49771  -0.48690  -0.48135  -0.47545  -0.47284
 Alpha  occ. eigenvalues --   -0.46939  -0.46618  -0.46253  -0.45892  -0.44860
 Alpha  occ. eigenvalues --   -0.44718  -0.44268  -0.43650  -0.43450  -0.40895
 Alpha  occ. eigenvalues --   -0.40183  -0.39876  -0.39427  -0.39167  -0.39095
 Alpha  occ. eigenvalues --   -0.35174  -0.34700  -0.31662  -0.30258  -0.29778
 Alpha virt. eigenvalues --   -0.11695  -0.10729  -0.10494  -0.08240  -0.05735
 Alpha virt. eigenvalues --   -0.05702  -0.05484  -0.04450  -0.03824  -0.02908
 Alpha virt. eigenvalues --   -0.02048  -0.00881  -0.00427   0.00129   0.00394

 Mulliken charges:
               1
     1  N   -0.691397
     2  H    0.318884
     3  H    0.310179
     4  C   -0.074324
     5  H    0.157007
     6  C    0.563997
     7  C   -0.352565
     8  H    0.159643
     9  H    0.127771
    10  O   -0.520313
    11  C    0.164686
    12  C   -0.194771
    13  H    0.105191
    14  C   -0.159421
    15  H    0.151737
    16  C   -0.127249
    17  H    0.135234
    18  C   -0.131865
    19  H    0.141278
    20  C   -0.127622
    21  H    0.141188
    22  N   -0.492394
    23  C   -0.020640
    24  H    0.196567
    25  C    0.658696
    26  C   -0.313889
    27  H    0.161494
    28  H    0.178707
    29  O   -0.606494
    30  C   -0.297092
    31  H    0.156661
    32  H    0.179821
    33  C   -0.138181
    34  H    0.173725
    35  H    0.181803
    36  N   -0.617860
    37  H    0.387954
    38  C   -0.025773
    39  H    0.205179
    40  C    0.585447
    41  C   -0.284244
    42  H    0.191152
    43  H    0.148225
    44  O   -0.433101
    45  C   -0.296178
    46  H    0.209015
    47  H    0.128581
    48  C   -0.298247
    49  H    0.177401
    50  H    0.197282
    51  C   -0.195343
    52  H    0.215004
    53  H    0.214922
    54  N   -0.767276
    55  H    0.412316
    56  H    0.460086
    57  H    0.404377
    58  O   -0.575518
    59  H    0.440547
 Sum of Mulliken charges =   1.00000

 Dipole moment (field-independent basis, Debye):
    X=              9.6437    Y=              0.2667    Z=              8.8450  Tot=             13.0884
 Quadrupole moment (field-independent basis, Debye-Ang):
   XX=            -97.8023   YY=           -125.4580   ZZ=           -141.2641
   XY=             30.9806   XZ=             18.2838   YZ=              5.0445

 Normal termination of Gaussian 16 at Fri May 27 03:52:56 2022.
