 Gaussian 16, Revision C.01,
 Gaussian 16:  ES64L-G16RevC.01  3-Jul-2019

 -------------------------------------------------------------------
 # B3LYP/6-31G* guess=read geom=check nosymm integral(ultrafinegrid)
 -------------------------------------------------------------------

 ------------------------------------------------------
 Candidate Structure: Conf:578 Charge calc in gas phase
 ------------------------------------------------------
 Structure from the checkpoint file:  "conf-578.chk"
 Charge =  1 Multiplicity = 1

                          Input orientation:
 ---------------------------------------------------------------------
 Center     Atomic      Atomic             Coordinates (Angstroms)
 Number     Number       Type             X           Y           Z
 ---------------------------------------------------------------------
      1          7           0       -0.780696    0.901412    3.344634
      2          1           0       -0.260799    1.387952    2.614930
      3          1           0       -0.180479    0.188949    3.752573
      4          6           0       -1.990468    0.298215    2.776133
      5          1           0       -1.779078   -0.476566    2.015572
      6          6           0       -2.800439    1.455110    2.145836
      7          6           0       -2.845302   -0.340505    3.894694
      8          1           0       -3.147180    0.473917    4.558217
      9          1           0       -3.757409   -0.750172    3.445640
     10          8           0       -3.456696    2.206144    2.854519
     11          6           0       -2.134050   -1.426638    4.669449
     12          6           0       -2.308574   -2.783751    4.345647
     13          1           0       -2.976570   -3.052497    3.530419
     14          6           0       -1.291465   -1.109712    5.749557
     15          1           0       -1.162660   -0.067607    6.028683
     16          6           0       -1.680800   -3.793817    5.078853
     17          1           0       -1.866667   -4.836214    4.833194
     18          6           0       -0.656778   -2.114969    6.490001
     19          1           0       -0.050672   -1.847372    7.352392
     20          6           0       -0.852997   -3.465019    6.160709
     21          1           0       -0.405916   -4.248277    6.768283
     22          7           0       -2.721737    1.652643    0.792222
     23          6           0       -2.137580    0.786267   -0.226535
     24          1           0       -2.493437   -0.246860   -0.121796
     25          6           0       -0.594782    0.752276   -0.180971
     26          6           0       -2.663812    1.398896   -1.555363
     27          1           0       -1.991153    1.218414   -2.399312
     28          1           0       -3.632219    0.946854   -1.795738
     29          8           0        0.083624    1.489978    0.526857
     30          6           0       -2.836142    2.886715   -1.216654
     31          1           0       -1.868804    3.399800   -1.254196
     32          1           0       -3.517734    3.397497   -1.901641
     33          6           0       -3.362177    2.854595    0.219611
     34          1           0       -4.453775    2.751659    0.259843
     35          1           0       -3.092443    3.731780    0.811199
     36          7           0       -0.027233   -0.205357   -0.977505
     37          1           0       -0.593595   -0.650161   -1.688398
     38          6           0        1.424383   -0.263786   -1.141935
     39          1           0        1.796064    0.767926   -1.222453
     40          6           0        1.816530   -0.958232   -2.443084
     41          6           0        2.131457   -0.902959    0.069892
     42          1           0        1.856036   -0.289386    0.933807
     43          1           0        3.211554   -0.796938   -0.074494
     44          8           0        2.894331   -1.468616   -2.634163
     45          6           0        1.787739   -2.383630    0.292924
     46          1           0        0.712640   -2.550367    0.138845
     47          1           0        2.309071   -2.989840   -0.453870
     48          6           0        2.178916   -2.892920    1.695778
     49          1           0        3.170945   -2.502922    1.963910
     50          1           0        2.255902   -3.988223    1.684608
     51          6           0        1.148019   -2.478213    2.741223
     52          1           0        0.976894   -1.399654    2.768210
     53          1           0        0.186219   -2.972986    2.591711
     54          7           0        1.586984   -2.868100    4.144856
     55          1           0        0.835742   -2.708548    4.852246
     56          1           0        2.421440   -2.345594    4.434522
     57          1           0        1.824200   -3.865792    4.187059
     58          8           0        0.833342   -0.917011   -3.372525
     59          1           0        1.181822   -1.348053   -4.177289
 ---------------------------------------------------------------------

 SCF Done:  E(RB3LYP) =  -1300.51326734     A.U. after    1 cycles

 Alpha  occ. eigenvalues --  -19.30917 -19.24838 -19.22827 -19.18785 -14.62360
 Alpha  occ. eigenvalues --  -14.47215 -14.44508 -14.40638 -10.43213 -10.40613
 Alpha  occ. eigenvalues --  -10.39508 -10.36137 -10.35230 -10.34427 -10.33693
 Alpha  occ. eigenvalues --  -10.31864 -10.31646 -10.31589 -10.31476 -10.31470
 Alpha  occ. eigenvalues --  -10.31467 -10.30904 -10.30667 -10.30308 -10.29329
 Alpha  occ. eigenvalues --  -10.29000 -10.27949 -10.27205  -1.21645  -1.16656
 Alpha  occ. eigenvalues --   -1.14676  -1.12670  -1.11079  -1.03677  -1.02467
 Alpha  occ. eigenvalues --   -0.98433  -0.97035  -0.95149  -0.90127  -0.88639
 Alpha  occ. eigenvalues --   -0.87916  -0.86444  -0.85377  -0.83150  -0.81929
 Alpha  occ. eigenvalues --   -0.79362  -0.75683  -0.75565  -0.75348  -0.72996
 Alpha  occ. eigenvalues --   -0.72435  -0.71990  -0.70491  -0.69086  -0.68479
 Alpha  occ. eigenvalues --   -0.67527  -0.66157  -0.65576  -0.62742  -0.62246
 Alpha  occ. eigenvalues --   -0.61431  -0.60473  -0.60120  -0.59627  -0.58473
 Alpha  occ. eigenvalues --   -0.58272  -0.57452  -0.57288  -0.55755  -0.55459
 Alpha  occ. eigenvalues --   -0.55061  -0.54681  -0.53778  -0.53589  -0.53108
 Alpha  occ. eigenvalues --   -0.52721  -0.52226  -0.51772  -0.51229  -0.50761
 Alpha  occ. eigenvalues --   -0.50061  -0.49958  -0.49342  -0.48480  -0.47466
 Alpha  occ. eigenvalues --   -0.47178  -0.46895  -0.46331  -0.46028  -0.45678
 Alpha  occ. eigenvalues --   -0.44881  -0.44665  -0.44147  -0.43660  -0.43251
 Alpha  occ. eigenvalues --   -0.42732  -0.41956  -0.38624  -0.37605  -0.37048
 Alpha  occ. eigenvalues --   -0.36699  -0.36288  -0.33330  -0.32089  -0.31875
 Alpha virt. eigenvalues --   -0.13082  -0.12942  -0.12717  -0.10265  -0.09261
 Alpha virt. eigenvalues --   -0.07695  -0.06748  -0.05922  -0.04908  -0.03455
 Alpha virt. eigenvalues --   -0.02172  -0.01765  -0.01021  -0.00130   0.00130

 Mulliken charges:
               1
     1  N   -0.736071
     2  H    0.354159
     3  H    0.274056
     4  C   -0.061263
     5  H    0.090367
     6  C    0.622815
     7  C   -0.343688
     8  H    0.212756
     9  H    0.157451
    10  O   -0.499274
    11  C    0.147445
    12  C   -0.192092
    13  H    0.153453
    14  C   -0.187662
    15  H    0.188413
    16  C   -0.140286
    17  H    0.161829
    18  C   -0.183176
    19  H    0.166943
    20  C   -0.200368
    21  H    0.161651
    22  N   -0.448955
    23  C   -0.076928
    24  H    0.161337
    25  C    0.620952
    26  C   -0.310728
    27  H    0.161594
    28  H    0.171745
    29  O   -0.519887
    30  C   -0.306074
    31  H    0.171049
    32  H    0.172656
    33  C   -0.108698
    34  H    0.169344
    35  H    0.191440
    36  N   -0.624675
    37  H    0.356733
    38  C   -0.040392
    39  H    0.219088
    40  C    0.586548
    41  C   -0.276979
    42  H    0.161669
    43  H    0.182656
    44  O   -0.444819
    45  C   -0.284072
    46  H    0.147739
    47  H    0.192983
    48  C   -0.291793
    49  H    0.167614
    50  H    0.168599
    51  C   -0.208441
    52  H    0.214696
    53  H    0.221211
    54  N   -0.749969
    55  H    0.423855
    56  H    0.413149
    57  H    0.411386
    58  O   -0.576893
    59  H    0.433800
 Sum of Mulliken charges =   1.00000

 Dipole moment (field-independent basis, Debye):
    X=              4.0326    Y=            -14.0872    Z=              9.8350  Tot=             17.6476
 Quadrupole moment (field-independent basis, Debye-Ang):
   XX=           -151.0185   YY=           -125.0148   ZZ=            -85.0673
   XY=            -11.1207   XZ=             37.0842   YZ=            -59.4194

 Normal termination of Gaussian 16 at Fri May 27 03:52:36 2022.
