 Gaussian 16, Revision C.01,
 Gaussian 16:  ES64L-G16RevC.01  3-Jul-2019

 -------------------------------------------------------------------
 # B3LYP/6-31G* guess=read geom=check nosymm integral(ultrafinegrid)
 -------------------------------------------------------------------

 ------------------------------------------------------
 Candidate Structure: Conf:950 Charge calc in gas phase
 ------------------------------------------------------
 Structure from the checkpoint file:  "conf-950.chk"
 Charge =  1 Multiplicity = 1

                          Input orientation:
 ---------------------------------------------------------------------
 Center     Atomic      Atomic             Coordinates (Angstroms)
 Number     Number       Type             X           Y           Z
 ---------------------------------------------------------------------
      1          7           0       -4.696856    0.912224   -3.416314
      2          1           0       -5.138348    0.857794   -4.333487
      3          1           0       -4.954142    1.821678   -3.031543
      4          6           0       -3.236394    0.851949   -3.578850
      5          1           0       -3.018826   -0.100163   -4.079164
      6          6           0       -2.649405    0.810885   -2.161156
      7          6           0       -2.598627    1.993665   -4.405637
      8          1           0       -2.783595    2.940489   -3.887168
      9          1           0       -1.510068    1.855063   -4.413426
     10          8           0       -2.125382    1.787484   -1.634232
     11          6           0       -3.129258    2.038333   -5.821957
     12          6           0       -2.586224    1.210009   -6.815254
     13          1           0       -1.746995    0.561142   -6.570847
     14          6           0       -4.198077    2.877240   -6.167932
     15          1           0       -4.620161    3.543123   -5.418232
     16          6           0       -3.095179    1.217033   -8.113785
     17          1           0       -2.654861    0.573597   -8.870746
     18          6           0       -4.711651    2.887448   -7.466664
     19          1           0       -5.535130    3.551053   -7.716003
     20          6           0       -4.162380    2.055741   -8.442986
     21          1           0       -4.556928    2.066145   -9.455025
     22          7           0       -2.742832   -0.382198   -1.466427
     23          6           0       -2.527092   -0.334901   -0.015101
     24          1           0       -2.919603    0.601355    0.393424
     25          6           0       -1.050236   -0.327927    0.405746
     26          6           0       -3.297112   -1.566405    0.522306
     27          1           0       -2.820846   -1.999764    1.405981
     28          1           0       -4.306042   -1.254582    0.810945
     29          8           0       -0.787932   -0.073940    1.598741
     30          6           0       -3.358387   -2.520139   -0.681638
     31          1           0       -2.420906   -3.081991   -0.774628
     32          1           0       -4.174980   -3.243334   -0.610042
     33          6           0       -3.530136   -1.570483   -1.872523
     34          1           0       -4.574014   -1.285456   -2.037528
     35          1           0       -3.141713   -1.992021   -2.804147
     36          7           0       -0.162784   -0.629608   -0.553994
     37          1           0       -0.590569   -0.746322   -1.468800
     38          6           0        1.294962   -0.438361   -0.589434
     39          1           0        1.482302    0.568247   -0.996486
     40          6           0        1.910246   -1.400616   -1.615738
     41          6           0        2.024366   -0.527914    0.757095
     42          1           0        1.678942    0.313474    1.361676
     43          1           0        3.085195   -0.359859    0.544496
     44          8           0        3.013103   -1.881936   -1.525210
     45          6           0        1.860076   -1.860873    1.500619
     46          1           0        0.800572   -2.143024    1.532620
     47          1           0        2.367156   -2.651610    0.939527
     48          6           0        2.438007   -1.852045    2.928755
     49          1           0        3.526642   -1.722354    2.894441
     50          1           0        2.266363   -2.830616    3.396211
     51          6           0        1.907492   -0.752434    3.850896
     52          1           0        2.251968   -0.893265    4.878190
     53          1           0        2.206934    0.244829    3.522886
     54          7           0        0.392834   -0.733475    3.881851
     55          1           0        0.042033   -0.026833    4.536308
     56          1           0        0.017290   -1.638606    4.182639
     57          1           0       -0.021748   -0.507364    2.923051
     58          8           0        1.089282   -1.598207   -2.671124
     59          1           0        1.560742   -2.175806   -3.302490
 ---------------------------------------------------------------------

 SCF Done:  E(RB3LYP) =  -1300.53755944     A.U. after    2 cycles

 Alpha  occ. eigenvalues --  -19.31485 -19.25640 -19.25141 -19.20773 -14.59004
 Alpha  occ. eigenvalues --  -14.48751 -14.45870 -14.39994 -10.43855 -10.41757
 Alpha  occ. eigenvalues --  -10.39148 -10.37389 -10.36686 -10.33548 -10.33132
 Alpha  occ. eigenvalues --  -10.31240 -10.31217 -10.31142 -10.30594 -10.29698
 Alpha  occ. eigenvalues --  -10.28889 -10.25933 -10.25715 -10.25062 -10.24989
 Alpha  occ. eigenvalues --  -10.24942 -10.24879 -10.24701  -1.22323  -1.16316
 Alpha  occ. eigenvalues --   -1.13660  -1.13410  -1.12763  -1.05719  -1.03344
 Alpha  occ. eigenvalues --   -0.97182  -0.94201  -0.91411  -0.90644  -0.88967
 Alpha  occ. eigenvalues --   -0.85584  -0.84207  -0.83925  -0.80339  -0.79506
 Alpha  occ. eigenvalues --   -0.78969  -0.75427  -0.74067  -0.73492  -0.71976
 Alpha  occ. eigenvalues --   -0.71450  -0.70755  -0.69240  -0.68262  -0.66502
 Alpha  occ. eigenvalues --   -0.66053  -0.64696  -0.63810  -0.63326  -0.61285
 Alpha  occ. eigenvalues --   -0.60962  -0.60574  -0.60330  -0.59286  -0.57782
 Alpha  occ. eigenvalues --   -0.56963  -0.55973  -0.55144  -0.54907  -0.54376
 Alpha  occ. eigenvalues --   -0.53751  -0.53426  -0.52722  -0.52618  -0.52214
 Alpha  occ. eigenvalues --   -0.51739  -0.51295  -0.51105  -0.50419  -0.50241
 Alpha  occ. eigenvalues --   -0.49695  -0.49477  -0.47967  -0.47439  -0.47000
 Alpha  occ. eigenvalues --   -0.46422  -0.46341  -0.45946  -0.45545  -0.45168
 Alpha  occ. eigenvalues --   -0.44275  -0.43915  -0.43480  -0.42924  -0.41641
 Alpha  occ. eigenvalues --   -0.40432  -0.39958  -0.39864  -0.39352  -0.37626
 Alpha  occ. eigenvalues --   -0.34425  -0.33913  -0.32561  -0.30950  -0.30177
 Alpha virt. eigenvalues --   -0.11284  -0.10843  -0.10321  -0.07770  -0.06273
 Alpha virt. eigenvalues --   -0.06111  -0.05270  -0.03971  -0.03051  -0.02018
 Alpha virt. eigenvalues --   -0.01552  -0.00311   0.00743   0.01158   0.01400

 Mulliken charges:
               1
     1  N   -0.726236
     2  H    0.326862
     3  H    0.311956
     4  C   -0.077002
     5  H    0.148083
     6  C    0.608114
     7  C   -0.352865
     8  H    0.167862
     9  H    0.145769
    10  O   -0.512587
    11  C    0.163023
    12  C   -0.180305
    13  H    0.115970
    14  C   -0.196714
    15  H    0.126497
    16  C   -0.126514
    17  H    0.139581
    18  C   -0.126402
    19  H    0.143278
    20  C   -0.129144
    21  H    0.144283
    22  N   -0.507195
    23  C   -0.020515
    24  H    0.201962
    25  C    0.651389
    26  C   -0.304878
    27  H    0.146457
    28  H    0.178644
    29  O   -0.611287
    30  C   -0.300827
    31  H    0.149153
    32  H    0.176777
    33  C   -0.123256
    34  H    0.202963
    35  H    0.163649
    36  N   -0.609572
    37  H    0.380941
    38  C   -0.047446
    39  H    0.220156
    40  C    0.605404
    41  C   -0.280109
    42  H    0.152357
    43  H    0.188016
    44  O   -0.438754
    45  C   -0.296236
    46  H    0.137263
    47  H    0.196178
    48  C   -0.293282
    49  H    0.197972
    50  H    0.170030
    51  C   -0.198951
    52  H    0.212328
    53  H    0.218140
    54  N   -0.770798
    55  H    0.410656
    56  H    0.400105
    57  H    0.471317
    58  O   -0.578024
    59  H    0.435761
 Sum of Mulliken charges =   1.00000

 Dipole moment (field-independent basis, Debye):
    X=             -1.5353    Y=             -5.6544    Z=              6.7169  Tot=              8.9132
 Quadrupole moment (field-independent basis, Debye-Ang):
   XX=           -135.6215   YY=           -153.0078   ZZ=            -70.3928
   XY=             -2.2689   XZ=             28.2023   YZ=             -9.7155

 Normal termination of Gaussian 16 at Fri May 27 03:53:48 2022.
