 Gaussian 16, Revision C.01,
 Gaussian 16:  ES64L-G16RevC.01  3-Jul-2019

 -------------------------------------------------------------------
 # B3LYP/6-31G* guess=read geom=check nosymm integral(ultrafinegrid)
 -------------------------------------------------------------------

 ------------------------------------------------------
 Candidate Structure: Conf:635 Charge calc in gas phase
 ------------------------------------------------------
 Structure from the checkpoint file:  "conf-635.chk"
 Charge =  1 Multiplicity = 1

                          Input orientation:
 ---------------------------------------------------------------------
 Center     Atomic      Atomic             Coordinates (Angstroms)
 Number     Number       Type             X           Y           Z
 ---------------------------------------------------------------------
      1          7           0       -0.772888    2.294540    2.009976
      2          1           0       -0.892020    3.258313    2.335977
      3          1           0       -0.273890    2.374868    1.116750
      4          6           0       -2.133638    1.782274    1.679675
      5          1           0       -2.007553    0.754271    1.329504
      6          6           0       -2.731560    2.710395    0.599427
      7          6           0       -3.057928    1.791652    2.915585
      8          1           0       -3.245517    2.836475    3.182528
      9          1           0       -4.024930    1.373288    2.609077
     10          8           0       -2.976849    3.873155    0.911781
     11          6           0       -2.514651    1.025315    4.101498
     12          6           0       -2.445493   -0.377135    4.086593
     13          1           0       -2.833078   -0.923775    3.229273
     14          6           0       -2.049805    1.700960    5.239346
     15          1           0       -2.121975    2.785105    5.283548
     16          6           0       -1.908774   -1.083994    5.164917
     17          1           0       -1.881027   -2.169941    5.140610
     18          6           0       -1.509467    0.999354    6.323650
     19          1           0       -1.170704    1.541107    7.202675
     20          6           0       -1.429072   -0.397005    6.285682
     21          1           0       -1.025367   -0.945004    7.132221
     22          7           0       -2.928809    2.233094   -0.659444
     23          6           0       -2.512362    0.930459   -1.177283
     24          1           0       -3.024199    0.112575   -0.654236
     25          6           0       -0.987100    0.719016   -1.048821
     26          6           0       -2.957216    0.981911   -2.664111
     27          1           0       -2.343181    0.340880   -3.303358
     28          1           0       -3.993407    0.634111   -2.735937
     29          8           0       -0.202407    1.646092   -0.849082
     30          6           0       -2.863215    2.475147   -3.012426
     31          1           0       -1.824374    2.751655   -3.221161
     32          1           0       -3.467876    2.741402   -3.882991
     33          6           0       -3.343702    3.164872   -1.732505
     34          1           0       -4.433289    3.286987   -1.712238
     35          1           0       -2.893698    4.143475   -1.556732
     36          7           0       -0.590453   -0.577354   -1.150324
     37          1           0       -1.274370   -1.267474   -1.435081
     38          6           0        0.814325   -0.977713   -1.247721
     39          1           0        1.361210   -0.136169   -1.692764
     40          6           0        0.990746   -2.150809   -2.217547
     41          6           0        1.459417   -1.315595    0.119870
     42          1           0        2.288941   -2.006507   -0.061316
     43          1           0        0.714599   -1.856538    0.719331
     44          8           0        2.023365   -2.761189   -2.342255
     45          6           0        1.992395   -0.082050    0.868381
     46          1           0        2.842076    0.320642    0.304231
     47          1           0        1.242314    0.713510    0.871582
     48          6           0        2.460169   -0.397598    2.300575
     49          1           0        3.190092    0.353242    2.634949
     50          1           0        3.001725   -1.351723    2.308889
     51          6           0        1.349506   -0.501984    3.348013
     52          1           0        0.487107   -1.069627    2.990853
     53          1           0        1.715376   -0.984578    4.258095
     54          7           0        0.816686    0.848255    3.765691
     55          1           0        0.213498    0.754542    4.595722
     56          1           0        0.199154    1.377258    3.019608
     57          1           0        1.589351    1.469470    4.025367
     58          8           0       -0.129048   -2.422054   -2.929796
     59          1           0        0.087757   -3.166599   -3.524356
 ---------------------------------------------------------------------

 SCF Done:  E(RB3LYP) =  -1300.55451893     A.U. after    2 cycles

 Alpha  occ. eigenvalues --  -19.31023 -19.24754 -19.23864 -19.21012 -14.55836
 Alpha  occ. eigenvalues --  -14.48262 -14.46515 -14.46478 -10.43246 -10.40738
 Alpha  occ. eigenvalues --  -10.38283 -10.37590 -10.35676 -10.34951 -10.34601
 Alpha  occ. eigenvalues --  -10.32189 -10.31508 -10.30850 -10.30840 -10.30767
 Alpha  occ. eigenvalues --  -10.30711 -10.30698 -10.30590 -10.30387 -10.30255
 Alpha  occ. eigenvalues --  -10.30167 -10.29947 -10.28252  -1.21695  -1.15722
 Alpha  occ. eigenvalues --   -1.13201  -1.12695  -1.10859  -1.04675  -1.04314
 Alpha  occ. eigenvalues --   -1.02282  -0.97248  -0.93110  -0.90076  -0.89609
 Alpha  occ. eigenvalues --   -0.88771  -0.86103  -0.85450  -0.83661  -0.82752
 Alpha  occ. eigenvalues --   -0.77756  -0.76902  -0.74171  -0.72612  -0.72066
 Alpha  occ. eigenvalues --   -0.71262  -0.70780  -0.69690  -0.69164  -0.68957
 Alpha  occ. eigenvalues --   -0.68465  -0.66368  -0.63795  -0.63640  -0.62023
 Alpha  occ. eigenvalues --   -0.61862  -0.61445  -0.60894  -0.59163  -0.58565
 Alpha  occ. eigenvalues --   -0.58081  -0.57840  -0.57103  -0.56804  -0.56127
 Alpha  occ. eigenvalues --   -0.54938  -0.54617  -0.54301  -0.53543  -0.53412
 Alpha  occ. eigenvalues --   -0.52904  -0.52770  -0.52440  -0.51473  -0.51173
 Alpha  occ. eigenvalues --   -0.50729  -0.50181  -0.50100  -0.49221  -0.48645
 Alpha  occ. eigenvalues --   -0.47566  -0.47094  -0.46616  -0.46304  -0.45573
 Alpha  occ. eigenvalues --   -0.45463  -0.45216  -0.45035  -0.44812  -0.44641
 Alpha  occ. eigenvalues --   -0.43404  -0.42652  -0.40882  -0.39429  -0.37606
 Alpha  occ. eigenvalues --   -0.37098  -0.36845  -0.36342  -0.34585  -0.34122
 Alpha virt. eigenvalues --   -0.12445  -0.12019  -0.10493  -0.10057  -0.08671
 Alpha virt. eigenvalues --   -0.07645  -0.04728  -0.03610  -0.02463  -0.02000
 Alpha virt. eigenvalues --   -0.01267  -0.01095  -0.00627   0.00034   0.01012

 Mulliken charges:
               1
     1  N   -0.814972
     2  H    0.345464
     3  H    0.384289
     4  C   -0.056362
     5  H    0.140628
     6  C    0.615730
     7  C   -0.376489
     8  H    0.195224
     9  H    0.179795
    10  O   -0.522039
    11  C    0.173785
    12  C   -0.194521
    13  H    0.141032
    14  C   -0.215149
    15  H    0.157320
    16  C   -0.138483
    17  H    0.160591
    18  C   -0.161626
    19  H    0.166141
    20  C   -0.152180
    21  H    0.165419
    22  N   -0.445287
    23  C   -0.081504
    24  H    0.163721
    25  C    0.622072
    26  C   -0.305918
    27  H    0.171362
    28  H    0.176030
    29  O   -0.536538
    30  C   -0.306796
    31  H    0.176031
    32  H    0.176388
    33  C   -0.117535
    34  H    0.174025
    35  H    0.196226
    36  N   -0.613236
    37  H    0.356889
    38  C   -0.047983
    39  H    0.219453
    40  C    0.584455
    41  C   -0.274592
    42  H    0.197052
    43  H    0.138220
    44  O   -0.432436
    45  C   -0.287950
    46  H    0.174033
    47  H    0.154000
    48  C   -0.292215
    49  H    0.158297
    50  H    0.186254
    51  C   -0.180992
    52  H    0.197633
    53  H    0.199647
    54  N   -0.792834
    55  H    0.406104
    56  H    0.458538
    57  H    0.381495
    58  O   -0.580773
    59  H    0.435066
 Sum of Mulliken charges =   1.00000

 Dipole moment (field-independent basis, Debye):
    X=             -1.7753    Y=             -0.6263    Z=              9.3452  Tot=              9.5330
 Quadrupole moment (field-independent basis, Debye-Ang):
   XX=           -147.9018   YY=           -157.5894   ZZ=            -84.0373
   XY=              7.8533   XZ=             21.2181   YZ=              8.5118

 Normal termination of Gaussian 16 at Fri May 27 03:52:52 2022.
