 Gaussian 16, Revision C.01,
 Gaussian 16:  ES64L-G16RevC.01  3-Jul-2019

 -------------------------------------------------------------------
 # B3LYP/6-31G* guess=read geom=check nosymm integral(ultrafinegrid)
 -------------------------------------------------------------------

 ------------------------------------------------------
 Candidate Structure: Conf:962 Charge calc in gas phase
 ------------------------------------------------------
 Structure from the checkpoint file:  "conf-962.chk"
 Charge =  1 Multiplicity = 1

                          Input orientation:
 ---------------------------------------------------------------------
 Center     Atomic      Atomic             Coordinates (Angstroms)
 Number     Number       Type             X           Y           Z
 ---------------------------------------------------------------------
      1          7           0       -0.879107    2.562822   -3.574911
      2          1           0       -0.645737    3.537816   -3.773016
      3          1           0       -1.279170    2.108057   -4.416096
      4          6           0       -1.938718    2.421931   -2.506274
      5          1           0       -1.434876    2.475403   -1.541403
      6          6           0       -2.578321    1.034923   -2.794148
      7          6           0       -2.965013    3.564060   -2.691494
      8          1           0       -2.425254    4.517418   -2.611941
      9          1           0       -3.364653    3.495024   -3.710312
     10          8           0       -2.734233    0.737870   -3.985327
     11          6           0       -4.099511    3.536035   -1.688063
     12          6           0       -5.306150    2.894579   -1.997613
     13          1           0       -5.437576    2.437152   -2.975622
     14          6           0       -3.954555    4.142848   -0.432896
     15          1           0       -3.029683    4.659271   -0.184489
     16          6           0       -6.345038    2.852514   -1.065883
     17          1           0       -7.280119    2.362913   -1.322848
     18          6           0       -4.991409    4.099496    0.499899
     19          1           0       -4.866918    4.577799    1.466920
     20          6           0       -6.188285    3.452334    0.185345
     21          1           0       -6.998967    3.426245    0.907624
     22          7           0       -2.955729    0.231566   -1.770744
     23          6           0       -2.828268    0.501468   -0.320332
     24          1           0       -3.136213    1.523698   -0.097965
     25          6           0       -1.408060    0.348670    0.274399
     26          6           0       -3.806016   -0.518813    0.307006
     27          1           0       -3.511745   -0.782652    1.325553
     28          1           0       -4.804670   -0.071433    0.349688
     29          8           0       -1.125488    0.993312    1.275538
     30          6           0       -3.788846   -1.699945   -0.678252
     31          1           0       -2.907922   -2.327987   -0.506031
     32          1           0       -4.674231   -2.334975   -0.593071
     33          6           0       -3.704018   -1.018424   -2.050893
     34          1           0       -4.694157   -0.761587   -2.444238
     35          1           0       -3.185353   -1.600688   -2.816233
     36          7           0       -0.542782   -0.545952   -0.313539
     37          1           0       -0.781973   -0.815873   -1.259371
     38          6           0        0.893052   -0.448603   -0.056280
     39          1           0        0.983328    0.303493    0.738211
     40          6           0        1.594076    0.118412   -1.322161
     41          6           0        1.522313   -1.766097    0.451600
     42          1           0        1.779980   -2.398848   -0.407417
     43          1           0        0.760133   -2.314564    1.013050
     44          8           0        2.846321    0.028332   -1.452215
     45          6           0        2.749621   -1.518052    1.359445
     46          1           0        3.170684   -0.529586    1.140077
     47          1           0        2.419774   -1.461352    2.402634
     48          6           0        3.868184   -2.571251    1.272590
     49          1           0        3.492863   -3.559273    1.565785
     50          1           0        4.655174   -2.318842    1.995845
     51          6           0        4.496644   -2.726118   -0.114263
     52          1           0        5.404149   -3.334274   -0.072212
     53          1           0        3.810383   -3.189484   -0.826859
     54          7           0        4.843348   -1.384908   -0.699470
     55          1           0        5.347151   -1.484076   -1.584975
     56          1           0        5.443886   -0.846499   -0.068884
     57          1           0        3.912415   -0.782113   -0.920862
     58          8           0        0.833938    0.641887   -2.146366
     59          1           0        0.163580    1.633230   -3.185846
 ---------------------------------------------------------------------

 SCF Done:  E(RB3LYP) =  -1300.50756773     A.U. after    1 cycles

 Alpha  occ. eigenvalues --  -19.23032 -19.22862 -19.22116 -19.20647 -14.54964
 Alpha  occ. eigenvalues --  -14.53806 -14.47548 -14.44892 -10.40191 -10.40078
 Alpha  occ. eigenvalues --  -10.37808 -10.36649 -10.36335 -10.33035 -10.32298
 Alpha  occ. eigenvalues --  -10.31580 -10.31198 -10.30814 -10.29623 -10.29041
 Alpha  occ. eigenvalues --  -10.28933 -10.28540 -10.28271 -10.27624 -10.27597
 Alpha  occ. eigenvalues --  -10.27339 -10.27286 -10.27160  -1.16197  -1.14834
 Alpha  occ. eigenvalues --   -1.12531  -1.10172  -1.07042  -1.06106  -1.04726
 Alpha  occ. eigenvalues --   -1.01047  -0.94466  -0.91866  -0.89972  -0.88306
 Alpha  occ. eigenvalues --   -0.86881  -0.84627  -0.82856  -0.82314  -0.80857
 Alpha  occ. eigenvalues --   -0.77062  -0.75320  -0.73638  -0.69993  -0.69877
 Alpha  occ. eigenvalues --   -0.69364  -0.69095  -0.68734  -0.68184  -0.67601
 Alpha  occ. eigenvalues --   -0.66847  -0.66502  -0.64571  -0.63292  -0.61088
 Alpha  occ. eigenvalues --   -0.60495  -0.59659  -0.59272  -0.58234  -0.57790
 Alpha  occ. eigenvalues --   -0.56131  -0.55842  -0.55496  -0.55140  -0.54822
 Alpha  occ. eigenvalues --   -0.54090  -0.53649  -0.53299  -0.52469  -0.51712
 Alpha  occ. eigenvalues --   -0.51303  -0.50717  -0.50425  -0.50155  -0.49644
 Alpha  occ. eigenvalues --   -0.49286  -0.49066  -0.48620  -0.48489  -0.47254
 Alpha  occ. eigenvalues --   -0.46852  -0.46489  -0.45532  -0.44833  -0.44525
 Alpha  occ. eigenvalues --   -0.44249  -0.43877  -0.43216  -0.42781  -0.42667
 Alpha  occ. eigenvalues --   -0.42493  -0.38317  -0.37830  -0.36996  -0.36808
 Alpha  occ. eigenvalues --   -0.36250  -0.34131  -0.33641  -0.33148  -0.33033
 Alpha virt. eigenvalues --   -0.10628  -0.09344  -0.09047  -0.08553  -0.08056
 Alpha virt. eigenvalues --   -0.07544  -0.06200  -0.02893  -0.02702  -0.01526
 Alpha virt. eigenvalues --   -0.01159   0.00011   0.00781   0.01047   0.01450

 Mulliken charges:
               1
     1  N   -0.768582
     2  H    0.384383
     3  H    0.399958
     4  C   -0.070410
     5  H    0.202756
     6  C    0.625843
     7  C   -0.373393
     8  H    0.166485
     9  H    0.183368
    10  O   -0.535077
    11  C    0.151115
    12  C   -0.185116
    13  H    0.148194
    14  C   -0.186598
    15  H    0.138027
    16  C   -0.133815
    17  H    0.152036
    18  C   -0.124029
    19  H    0.155898
    20  C   -0.128370
    21  H    0.154651
    22  N   -0.477533
    23  C   -0.066450
    24  H    0.201978
    25  C    0.589653
    26  C   -0.304289
    27  H    0.186975
    28  H    0.177247
    29  O   -0.504626
    30  C   -0.312684
    31  H    0.161359
    32  H    0.176871
    33  C   -0.124047
    34  H    0.180634
    35  H    0.183507
    36  N   -0.588325
    37  H    0.333688
    38  C   -0.085641
    39  H    0.209390
    40  C    0.627978
    41  C   -0.272274
    42  H    0.132957
    43  H    0.176175
    44  O   -0.605896
    45  C   -0.293003
    46  H    0.144250
    47  H    0.180596
    48  C   -0.292097
    49  H    0.185121
    50  H    0.165678
    51  C   -0.182457
    52  H    0.201197
    53  H    0.202672
    54  N   -0.772999
    55  H    0.396902
    56  H    0.388944
    57  H    0.472967
    58  O   -0.577854
    59  H    0.426113
 Sum of Mulliken charges =   1.00000

 Dipole moment (field-independent basis, Debye):
    X=              5.4359    Y=             -0.6399    Z=             -5.7830  Tot=              7.9626
 Quadrupole moment (field-independent basis, Debye-Ang):
   XX=            -58.9252   YY=           -122.6970   ZZ=           -147.4216
   XY=            -35.3827   XZ=              2.3043   YZ=            -18.4017

 Normal termination of Gaussian 16 at Fri May 27 03:53:39 2022.
