 Gaussian 16, Revision C.01,
 Gaussian 16:  ES64L-G16RevC.01  3-Jul-2019

 -------------------------------------------------------------------
 # B3LYP/6-31G* guess=read geom=check nosymm integral(ultrafinegrid)
 -------------------------------------------------------------------

 ------------------------------------------------------
 Candidate Structure: Conf:746 Charge calc in gas phase
 ------------------------------------------------------
 Structure from the checkpoint file:  "conf-746.chk"
 Charge =  1 Multiplicity = 1

                          Input orientation:
 ---------------------------------------------------------------------
 Center     Atomic      Atomic             Coordinates (Angstroms)
 Number     Number       Type             X           Y           Z
 ---------------------------------------------------------------------
      1          7           0       -4.029859   -0.995639    3.148079
      2          1           0       -4.411890   -1.158009    4.075740
      3          1           0       -3.402784   -1.752938    2.891669
      4          6           0       -3.343139    0.282779    3.058690
      5          1           0       -4.108438    1.064357    3.105517
      6          6           0       -2.685191    0.314970    1.669635
      7          6           0       -2.342432    0.642787    4.209956
      8          1           0       -1.973410    1.662277    4.042314
      9          1           0       -2.950242    0.695180    5.123832
     10          8           0       -2.161602   -0.719464    1.226390
     11          6           0       -1.160242   -0.262014    4.492391
     12          6           0       -1.330897   -1.572484    4.974032
     13          1           0       -2.330654   -1.983945    5.063295
     14          6           0        0.146541    0.243820    4.415991
     15          1           0        0.304674    1.258821    4.060688
     16          6           0       -0.243136   -2.336865    5.393252
     17          1           0       -0.411664   -3.328927    5.804158
     18          6           0        1.240353   -0.502845    4.859227
     19          1           0        2.228908   -0.049692    4.870396
     20          6           0        1.050888   -1.798559    5.358373
     21          1           0        1.878139   -2.336779    5.820947
     22          7           0       -2.721970    1.472836    0.964389
     23          6           0       -2.405657    1.494673   -0.489842
     24          1           0       -2.842031    0.599224   -0.944195
     25          6           0       -0.881090    1.479920   -0.761842
     26          6           0       -3.064553    2.791062   -0.983360
     27          1           0       -2.527675    3.213439   -1.833961
     28          1           0       -4.096965    2.583609   -1.285275
     29          8           0       -0.234849    2.485102   -1.023896
     30          6           0       -3.032755    3.706127    0.249006
     31          1           0       -2.031165    4.131454    0.363030
     32          1           0       -3.754542    4.525511    0.198051
     33          6           0       -3.339787    2.746124    1.402808
     34          1           0       -4.422565    2.618586    1.530691
     35          1           0       -2.916634    3.079369    2.354779
     36          7           0       -0.351943    0.219874   -0.718612
     37          1           0       -0.915276   -0.467889   -0.212528
     38          6           0        1.079220   -0.014600   -0.832625
     39          1           0        1.485291    0.785670   -1.456757
     40          6           0        1.233392   -1.350196   -1.561451
     41          6           0        1.745648   -0.029764    0.553303
     42          1           0        1.145739   -0.692366    1.189048
     43          1           0        1.628842    0.974354    0.973967
     44          8           0        1.359002   -2.429729   -1.009003
     45          6           0        3.233454   -0.448259    0.589676
     46          1           0        3.518250   -0.988631   -0.320462
     47          1           0        3.877482    0.435702    0.630919
     48          6           0        3.541883   -1.335771    1.812788
     49          1           0        3.133233   -0.845806    2.706350
     50          1           0        4.624449   -1.429103    1.961350
     51          6           0        2.915692   -2.724083    1.654932
     52          1           0        1.947781   -2.691574    1.152982
     53          1           0        3.556847   -3.409320    1.095810
     54          7           0        2.676273   -3.371352    3.014945
     55          1           0        2.251456   -4.300627    2.918581
     56          1           0        2.039438   -2.794889    3.604623
     57          1           0        3.552386   -3.483731    3.537489
     58          8           0        1.172562   -1.211629   -2.891296
     59          1           0        1.210101   -2.105039   -3.285150
 ---------------------------------------------------------------------

 SCF Done:  E(RB3LYP) =  -1300.51919196     A.U. after    2 cycles

 Alpha  occ. eigenvalues --  -19.29656 -19.24587 -19.21187 -19.20035 -14.61793
 Alpha  occ. eigenvalues --  -14.45989 -14.43955 -14.39941 -10.42364 -10.38874
 Alpha  occ. eigenvalues --  -10.37913 -10.36906 -10.33166 -10.33109 -10.31884
 Alpha  occ. eigenvalues --  -10.31679 -10.31247 -10.31238 -10.31221 -10.31169
 Alpha  occ. eigenvalues --  -10.30943 -10.30556 -10.30213 -10.30041 -10.29383
 Alpha  occ. eigenvalues --  -10.29268 -10.26810 -10.26677  -1.20854  -1.15894
 Alpha  occ. eigenvalues --   -1.12929  -1.11797  -1.11622  -1.03183  -1.01255
 Alpha  occ. eigenvalues --   -0.97872  -0.96563  -0.93908  -0.88680  -0.88399
 Alpha  occ. eigenvalues --   -0.87737  -0.85875  -0.84419  -0.82475  -0.81549
 Alpha  occ. eigenvalues --   -0.78250  -0.75827  -0.74763  -0.74269  -0.72771
 Alpha  occ. eigenvalues --   -0.71859  -0.71261  -0.69347  -0.69159  -0.67489
 Alpha  occ. eigenvalues --   -0.66407  -0.64971  -0.64411  -0.63005  -0.61450
 Alpha  occ. eigenvalues --   -0.60898  -0.60562  -0.59390  -0.58378  -0.57387
 Alpha  occ. eigenvalues --   -0.56827  -0.56725  -0.55920  -0.54772  -0.54595
 Alpha  occ. eigenvalues --   -0.54012  -0.53709  -0.53515  -0.53377  -0.52764
 Alpha  occ. eigenvalues --   -0.52296  -0.51330  -0.50756  -0.50546  -0.49875
 Alpha  occ. eigenvalues --   -0.49410  -0.49112  -0.48167  -0.47863  -0.47655
 Alpha  occ. eigenvalues --   -0.47406  -0.46524  -0.45458  -0.45256  -0.45100
 Alpha  occ. eigenvalues --   -0.44924  -0.44452  -0.44176  -0.43260  -0.42943
 Alpha  occ. eigenvalues --   -0.41947  -0.41825  -0.38276  -0.36648  -0.36593
 Alpha  occ. eigenvalues --   -0.35538  -0.35073  -0.33814  -0.32236  -0.31510
 Alpha virt. eigenvalues --   -0.13564  -0.12024  -0.11685  -0.10029  -0.07703
 Alpha virt. eigenvalues --   -0.06461  -0.06283  -0.04394  -0.03194  -0.03059
 Alpha virt. eigenvalues --   -0.01581  -0.01384  -0.00499   0.00349   0.01178

 Mulliken charges:
               1
     1  N   -0.713029
     2  H    0.307123
     3  H    0.322750
     4  C   -0.053807
     5  H    0.163286
     6  C    0.631867
     7  C   -0.390344
     8  H    0.157978
     9  H    0.176141
    10  O   -0.567239
    11  C    0.204938
    12  C   -0.172135
    13  H    0.140073
    14  C   -0.186444
    15  H    0.151986
    16  C   -0.124929
    17  H    0.155398
    18  C   -0.131531
    19  H    0.152722
    20  C   -0.233484
    21  H    0.144424
    22  N   -0.451924
    23  C   -0.070971
    24  H    0.182707
    25  C    0.617735
    26  C   -0.298826
    27  H    0.190969
    28  H    0.159837
    29  O   -0.508201
    30  C   -0.305516
    31  H    0.183270
    32  H    0.168642
    33  C   -0.139893
    34  H    0.175024
    35  H    0.165926
    36  N   -0.632537
    37  H    0.382073
    38  C   -0.026046
    39  H    0.208636
    40  C    0.581717
    41  C   -0.282373
    42  H    0.143223
    43  H    0.177171
    44  O   -0.489469
    45  C   -0.273966
    46  H    0.164343
    47  H    0.177493
    48  C   -0.311063
    49  H    0.162459
    50  H    0.172076
    51  C   -0.209153
    52  H    0.257182
    53  H    0.216838
    54  N   -0.751237
    55  H    0.419164
    56  H    0.410851
    57  H    0.410410
    58  O   -0.536553
    59  H    0.424239
 Sum of Mulliken charges =   1.00000

 Dipole moment (field-independent basis, Debye):
    X=              6.8440    Y=             -9.8042    Z=             13.9812  Tot=             18.3966
 Quadrupole moment (field-independent basis, Debye-Ang):
   XX=           -111.7853   YY=           -114.5172   ZZ=           -101.1058
   XY=            -46.5985   XZ=             17.5093   YZ=            -28.6535

 Normal termination of Gaussian 16 at Fri May 27 03:52:49 2022.
