 Gaussian 16, Revision C.01,
 Gaussian 16:  ES64L-G16RevC.01  3-Jul-2019

 -------------------------------------------------------------------
 # B3LYP/6-31G* guess=read geom=check nosymm integral(ultrafinegrid)
 -------------------------------------------------------------------

 ------------------------------------------------------
 Candidate Structure: Conf:797 Charge calc in gas phase
 ------------------------------------------------------
 Structure from the checkpoint file:  "conf-797.chk"
 Charge =  1 Multiplicity = 1

                          Input orientation:
 ---------------------------------------------------------------------
 Center     Atomic      Atomic             Coordinates (Angstroms)
 Number     Number       Type             X           Y           Z
 ---------------------------------------------------------------------
      1          7           0       -3.926593   -2.538631   -2.626327
      2          1           0       -4.327799   -3.281166   -3.197986
      3          1           0       -4.130655   -1.665063   -3.112788
      4          6           0       -2.468956   -2.720956   -2.552296
      5          1           0       -2.301373   -3.710248   -2.108547
      6          6           0       -1.951267   -1.650770   -1.581742
      7          6           0       -1.708282   -2.656870   -3.897901
      8          1           0       -1.844526   -1.657678   -4.325246
      9          1           0       -0.634574   -2.762889   -3.697887
     10          8           0       -1.381398   -0.632358   -1.962101
     11          6           0       -2.167205   -3.727045   -4.864128
     12          6           0       -1.653349   -5.029921   -4.783827
     13          1           0       -0.887286   -5.258383   -4.044987
     14          6           0       -3.141353   -3.455685   -5.835234
     15          1           0       -3.538250   -2.446934   -5.927752
     16          6           0       -2.099311   -6.031835   -5.645537
     17          1           0       -1.682977   -7.032917   -5.571915
     18          6           0       -3.591291   -4.455789   -6.700130
     19          1           0       -4.341275   -4.222529   -7.451033
     20          6           0       -3.072358   -5.747491   -6.606375
     21          1           0       -3.417382   -6.525557   -7.281403
     22          7           0       -2.161655   -1.862210   -0.231630
     23          6           0       -1.983715   -0.718458    0.668879
     24          1           0       -2.308889    0.204031    0.177429
     25          6           0       -0.523478   -0.439638    1.045772
     26          6           0       -2.865555   -1.061601    1.894009
     27          1           0       -2.457119   -0.657416    2.824410
     28          1           0       -3.857027   -0.620214    1.750705
     29          8           0       -0.265750    0.619858    1.658332
     30          6           0       -2.955778   -2.595973    1.865751
     31          1           0       -2.060908   -3.042716    2.316501
     32          1           0       -3.826815   -2.980834    2.402605
     33          6           0       -3.011599   -2.917571    0.367662
     34          1           0       -4.025492   -2.853218   -0.039883
     35          1           0       -2.614593   -3.910612    0.138735
     36          7           0        0.370279   -1.373039    0.702788
     37          1           0       -0.006450   -2.171360    0.195259
     38          6           0        1.827183   -1.279503    0.673317
     39          1           0        2.126236   -0.677318   -0.198600
     40          6           0        2.331464   -2.697841    0.381341
     41          6           0        2.476367   -0.632565    1.911813
     42          1           0        2.229672    0.430381    1.870866
     43          1           0        3.560912   -0.699071    1.782467
     44          8           0        1.613042   -3.617927    0.061229
     45          6           0        2.074406   -1.257039    3.259442
     46          1           0        1.010619   -1.525815    3.253441
     47          1           0        2.620792   -2.197996    3.387060
     48          6           0        2.364966   -0.349663    4.473200
     49          1           0        3.302443    0.204857    4.326400
     50          1           0        2.525101   -0.967363    5.364545
     51          6           0        1.243700    0.616973    4.858205
     52          1           0        0.308297    0.082650    5.045235
     53          1           0        1.504174    1.183871    5.755586
     54          7           0        0.924700    1.626825    3.775526
     55          1           0        0.216748    2.296140    4.094797
     56          1           0        0.528925    1.161475    2.889719
     57          1           0        1.755123    2.167630    3.514712
     58          8           0        3.667699   -2.780905    0.479890
     59          1           0        3.924966   -3.688161    0.223777
 ---------------------------------------------------------------------

 SCF Done:  E(RB3LYP) =  -1300.53980508     A.U. after    1 cycles

 Alpha  occ. eigenvalues --  -19.31684 -19.26176 -19.25221 -19.20331 -14.58869
 Alpha  occ. eigenvalues --  -14.48504 -14.45481 -14.39607 -10.44293 -10.41644
 Alpha  occ. eigenvalues --  -10.39535 -10.36966 -10.36868 -10.33692 -10.33364
 Alpha  occ. eigenvalues --  -10.32085 -10.31949 -10.30871 -10.30147 -10.29535
 Alpha  occ. eigenvalues --  -10.28685 -10.25581 -10.25318 -10.24692 -10.24664
 Alpha  occ. eigenvalues --  -10.24607 -10.24567 -10.24391  -1.22760  -1.16387
 Alpha  occ. eigenvalues --   -1.13942  -1.13542  -1.12351  -1.05614  -1.03093
 Alpha  occ. eigenvalues --   -0.96785  -0.94580  -0.91154  -0.91054  -0.88760
 Alpha  occ. eigenvalues --   -0.85737  -0.84142  -0.83708  -0.80003  -0.78870
 Alpha  occ. eigenvalues --   -0.78607  -0.75940  -0.74551  -0.73815  -0.72576
 Alpha  occ. eigenvalues --   -0.71378  -0.70597  -0.69401  -0.68409  -0.66175
 Alpha  occ. eigenvalues --   -0.65778  -0.64204  -0.63533  -0.63125  -0.61610
 Alpha  occ. eigenvalues --   -0.60715  -0.60241  -0.59915  -0.59372  -0.57849
 Alpha  occ. eigenvalues --   -0.57124  -0.56618  -0.55510  -0.54854  -0.54506
 Alpha  occ. eigenvalues --   -0.53845  -0.53551  -0.53076  -0.52720  -0.52036
 Alpha  occ. eigenvalues --   -0.51885  -0.51333  -0.50626  -0.50227  -0.50113
 Alpha  occ. eigenvalues --   -0.49462  -0.49203  -0.47636  -0.47382  -0.47170
 Alpha  occ. eigenvalues --   -0.47045  -0.46863  -0.45752  -0.45181  -0.44903
 Alpha  occ. eigenvalues --   -0.44102  -0.43779  -0.43699  -0.42534  -0.41310
 Alpha  occ. eigenvalues --   -0.39918  -0.39707  -0.39517  -0.39337  -0.38598
 Alpha  occ. eigenvalues --   -0.34008  -0.33546  -0.32184  -0.30622  -0.29834
 Alpha virt. eigenvalues --   -0.11706  -0.10655  -0.10307  -0.07329  -0.05944
 Alpha virt. eigenvalues --   -0.05786  -0.05692  -0.04104  -0.03709  -0.02876
 Alpha virt. eigenvalues --   -0.01017  -0.00746   0.00821   0.01312   0.01467

 Mulliken charges:
               1
     1  N   -0.726617
     2  H    0.326227
     3  H    0.311298
     4  C   -0.078157
     5  H    0.151930
     6  C    0.610038
     7  C   -0.352773
     8  H    0.166413
     9  H    0.147313
    10  O   -0.515286
    11  C    0.161824
    12  C   -0.181850
    13  H    0.121311
    14  C   -0.196607
    15  H    0.125932
    16  C   -0.126927
    17  H    0.139156
    18  C   -0.126636
    19  H    0.142087
    20  C   -0.129304
    21  H    0.142997
    22  N   -0.503711
    23  C   -0.020314
    24  H    0.204268
    25  C    0.648147
    26  C   -0.304509
    27  H    0.142779
    28  H    0.179325
    29  O   -0.614134
    30  C   -0.302269
    31  H    0.148129
    32  H    0.175967
    33  C   -0.122919
    34  H    0.201796
    35  H    0.168956
    36  N   -0.608637
    37  H    0.383210
    38  C   -0.028925
    39  H    0.220368
    40  C    0.594950
    41  C   -0.292838
    42  H    0.130522
    43  H    0.195645
    44  O   -0.451422
    45  C   -0.286336
    46  H    0.158776
    47  H    0.181632
    48  C   -0.291639
    49  H    0.169428
    50  H    0.197441
    51  C   -0.196301
    52  H    0.211493
    53  H    0.211780
    54  N   -0.771037
    55  H    0.409850
    56  H    0.471722
    57  H    0.400337
    58  O   -0.560934
    59  H    0.437034
 Sum of Mulliken charges =   1.00000

 Dipole moment (field-independent basis, Debye):
    X=              3.1189    Y=             -2.1606    Z=             13.2310  Tot=             13.7643
 Quadrupole moment (field-independent basis, Debye-Ang):
   XX=           -126.0167   YY=           -127.8865   ZZ=            -86.3796
   XY=              6.3846   XZ=             27.9351   YZ=             28.1052

 Normal termination of Gaussian 16 at Fri May 27 03:53:38 2022.
