 Gaussian 16, Revision C.01,
 Gaussian 16:  ES64L-G16RevC.01  3-Jul-2019

 -------------------------------------------------------------------
 # B3LYP/6-31G* guess=read geom=check nosymm integral(ultrafinegrid)
 -------------------------------------------------------------------

 ------------------------------------------------------
 Candidate Structure: Conf:205 Charge calc in gas phase
 ------------------------------------------------------
 Structure from the checkpoint file:  "conf-205.chk"
 Charge =  1 Multiplicity = 1

                          Input orientation:
 ---------------------------------------------------------------------
 Center     Atomic      Atomic             Coordinates (Angstroms)
 Number     Number       Type             X           Y           Z
 ---------------------------------------------------------------------
      1          7           0       -2.854681    2.441463   -3.258158
      2          1           0       -3.669629    2.123451   -2.736176
      3          1           0       -2.587450    3.334885   -2.841428
      4          6           0       -1.748732    1.507744   -3.068026
      5          1           0       -2.117232    0.490959   -3.262590
      6          6           0       -1.149139    1.590832   -1.653138
      7          6           0       -0.652004    1.842798   -4.101071
      8          1           0       -0.263777    2.842120   -3.872495
      9          1           0       -1.132244    1.883758   -5.082988
     10          8           0       -0.893177    2.672427   -1.129412
     11          6           0        0.521623    0.835255   -4.111097
     12          1           0        0.956186    0.741940   -3.110792
     13          1           0        0.173807   -0.145677   -4.452691
     14          6           0        1.599375    1.321118   -5.034040
     15          8           0        2.534251    2.035404   -4.686617
     16          8           0        1.426969    0.944838   -6.302727
     17          7           0       -0.884891    0.408544   -1.029973
     18          1           0       -1.054333   -0.460801   -1.515112
     19          6           0       -0.194100    0.365844    0.244935
     20          1           0       -0.769424    0.961577    0.962591
     21          6           0        1.206307    1.002393    0.127679
     22          6           0       -0.062815   -1.084130    0.751405
     23          1           0        0.500873   -1.061103    1.692844
     24          1           0        0.559640   -1.638796    0.035389
     25          8           0        1.923932    0.880140   -0.866906
     26          6           0       -1.388738   -1.839017    0.986296
     27          1           0       -1.941867   -1.878753    0.035899
     28          6           0       -1.086235   -3.285460    1.405923
     29          1           0       -0.549580   -3.312047    2.362464
     30          1           0       -2.011473   -3.858252    1.528751
     31          1           0       -0.468366   -3.800864    0.661348
     32          6           0       -2.286160   -1.143719    2.019649
     33          1           0       -1.770986   -1.043524    2.983663
     34          1           0       -2.596362   -0.144028    1.695862
     35          1           0       -3.196815   -1.727078    2.192548
     36          7           0        1.610255    1.670514    1.230973
     37          1           0        1.015067    1.760616    2.045929
     38          6           0        2.946861    2.208219    1.342576
     39          1           0        3.658915    1.433597    1.029693
     40          6           0        3.197671    2.493344    2.818182
     41          6           0        3.165715    3.478549    0.465052
     42          1           0        2.959720    4.373197    1.063081
     43          1           0        2.418316    3.465899   -0.332643
     44          8           0        2.365725    2.383518    3.688502
     45          6           0        4.583279    3.562370   -0.127606
     46          1           0        4.753810    4.573475   -0.519044
     47          1           0        5.325121    3.415139    0.665299
     48          6           0        4.839846    2.520118   -1.235162
     49          1           0        4.317895    1.587234   -1.013807
     50          1           0        5.908788    2.290863   -1.314966
     51          7           0        4.366055    2.939860   -2.565417
     52          1           0        3.506913    2.533175   -2.936538
     53          7           0        6.142275    4.389852   -2.989232
     54          1           0        6.784065    4.785457   -3.658910
     55          1           0        6.421293    4.391982   -2.021286
     56          7           0        4.678256    3.825506   -4.687274
     57          1           0        4.976898    4.618250   -5.236576
     58          1           0        3.897289    3.261740   -5.024263
     59          6           0        5.053568    3.718293   -3.402529
     60          8           0        4.462769    2.900190    3.037255
     61          1           0        4.544981    3.081280    3.993194
     62          1           0        2.143897    1.330797   -6.839267
 ---------------------------------------------------------------------

 SCF Done:  E(RB3LYP) =  -1447.43634464     A.U. after    1 cycles

 Alpha  occ. eigenvalues --  -19.31621 -19.30147 -19.26934 -19.24551 -19.21457
 Alpha  occ. eigenvalues --  -19.19937 -14.51764 -14.50527 -14.50138 -14.45638
 Alpha  occ. eigenvalues --  -14.45059 -14.39267 -10.47341 -10.44456 -10.42552
 Alpha  occ. eigenvalues --  -10.38213 -10.36620 -10.34859 -10.34377 -10.32373
 Alpha  occ. eigenvalues --  -10.31042 -10.30456 -10.29565 -10.29553 -10.28432
 Alpha  occ. eigenvalues --  -10.27767 -10.27271 -10.24696 -10.24558  -1.22961
 Alpha  occ. eigenvalues --   -1.21153  -1.15860  -1.13737  -1.13405  -1.12272
 Alpha  occ. eigenvalues --   -1.11673  -1.04969  -1.03995  -1.02516  -1.01308
 Alpha  occ. eigenvalues --   -0.96959  -0.91461  -0.89504  -0.89057  -0.86481
 Alpha  occ. eigenvalues --   -0.83410  -0.80699  -0.80110  -0.77690  -0.75696
 Alpha  occ. eigenvalues --   -0.74596  -0.73843  -0.73481  -0.72460  -0.71129
 Alpha  occ. eigenvalues --   -0.69715  -0.69033  -0.67774  -0.66665  -0.65551
 Alpha  occ. eigenvalues --   -0.64619  -0.64374  -0.62175  -0.60943  -0.60897
 Alpha  occ. eigenvalues --   -0.60078  -0.59483  -0.59010  -0.58789  -0.58377
 Alpha  occ. eigenvalues --   -0.57651  -0.57425  -0.55681  -0.55362  -0.54726
 Alpha  occ. eigenvalues --   -0.54401  -0.54172  -0.53220  -0.52824  -0.52395
 Alpha  occ. eigenvalues --   -0.51653  -0.51323  -0.50573  -0.50177  -0.49767
 Alpha  occ. eigenvalues --   -0.49164  -0.48692  -0.47874  -0.47396  -0.46549
 Alpha  occ. eigenvalues --   -0.46139  -0.45833  -0.45511  -0.45467  -0.45268
 Alpha  occ. eigenvalues --   -0.44419  -0.44100  -0.43556  -0.42953  -0.42323
 Alpha  occ. eigenvalues --   -0.42222  -0.40802  -0.40509  -0.40381  -0.40319
 Alpha  occ. eigenvalues --   -0.39558  -0.38250  -0.35958  -0.35336  -0.34673
 Alpha  occ. eigenvalues --   -0.33805  -0.31344
 Alpha virt. eigenvalues --   -0.11552  -0.11097  -0.09344  -0.07265  -0.07163
 Alpha virt. eigenvalues --   -0.06135  -0.03958  -0.03750  -0.02149  -0.01829
 Alpha virt. eigenvalues --   -0.01550  -0.00193   0.00400   0.01323   0.01414

 Mulliken charges:
               1
     1  N   -0.697536
     2  H    0.312238
     3  H    0.319081
     4  C   -0.078733
     5  H    0.136534
     6  C    0.611937
     7  C   -0.267456
     8  H    0.163860
     9  H    0.185539
    10  O   -0.538901
    11  C   -0.377199
    12  H    0.220712
    13  H    0.177196
    14  C    0.588249
    15  O   -0.510393
    16  O   -0.517187
    17  N   -0.605166
    18  H    0.335350
    19  C   -0.038636
    20  H    0.171750
    21  C    0.657397
    22  C   -0.300387
    23  H    0.153925
    24  H    0.151803
    25  O   -0.563141
    26  C   -0.075517
    27  H    0.120696
    28  C   -0.444655
    29  H    0.151251
    30  H    0.159959
    31  H    0.145428
    32  C   -0.454664
    33  H    0.149112
    34  H    0.151130
    35  H    0.162604
    36  N   -0.617012
    37  H    0.363589
    38  C   -0.018072
    39  H    0.187721
    40  C    0.579828
    41  C   -0.280378
    42  H    0.170287
    43  H    0.193310
    44  O   -0.448450
    45  C   -0.296499
    46  H    0.146037
    47  H    0.182572
    48  C   -0.195017
    49  H    0.222759
    50  H    0.170737
    51  N   -0.602992
    52  H    0.404067
    53  N   -0.760945
    54  H    0.378774
    55  H    0.386639
    56  N   -0.785342
    57  H    0.366654
    58  H    0.404789
    59  C    0.804894
    60  O   -0.565821
    61  H    0.431839
    62  H    0.419850
 Sum of Mulliken charges =   1.00000

 Dipole moment (field-independent basis, Debye):
    X=             18.4891    Y=             11.8991    Z=            -11.3481  Tot=             24.7430
 Quadrupole moment (field-independent basis, Debye-Ang):
   XX=            -53.7869   YY=           -112.9810   ZZ=            -93.0186
   XY=             85.6298   XZ=            -51.6546   YZ=            -40.3045

 Normal termination of Gaussian 16 at Tue May 24 03:35:26 2022.
