 Gaussian 16, Revision C.01,
 Gaussian 16:  ES64L-G16RevC.01  3-Jul-2019

 -------------------------------------------------------------------
 # B3LYP/6-31G* guess=read geom=check nosymm integral(ultrafinegrid)
 -------------------------------------------------------------------

 ------------------------------------------------------
 Candidate Structure: Conf:112 Charge calc in gas phase
 ------------------------------------------------------
 Structure from the checkpoint file:  "conf-112.chk"
 Charge =  1 Multiplicity = 1

                          Input orientation:
 ---------------------------------------------------------------------
 Center     Atomic      Atomic             Coordinates (Angstroms)
 Number     Number       Type             X           Y           Z
 ---------------------------------------------------------------------
      1          7           0       -1.786346    0.275963   -4.350454
      2          1           0       -1.500979    1.250380   -4.434189
      3          1           0       -1.887045   -0.103025   -5.289994
      4          6           0       -0.765357   -0.454673   -3.605061
      5          1           0       -1.149718   -1.464485   -3.407533
      6          6           0       -0.551290    0.301142   -2.287838
      7          6           0        0.608414   -0.557173   -4.314582
      8          1           0        0.999577    0.461459   -4.407520
      9          1           0        0.453966   -0.950092   -5.327564
     10          8           0       -0.149845    1.465730   -2.296065
     11          6           0        1.624459   -1.438335   -3.564020
     12          1           0        1.624398   -1.201528   -2.488459
     13          1           0        1.381858   -2.500660   -3.657081
     14          6           0        3.046616   -1.224185   -4.007927
     15          8           0        3.571300   -0.138380   -4.240566
     16          8           0        3.742062   -2.361947   -4.097058
     17          7           0       -0.773861   -0.377651   -1.133627
     18          1           0       -1.003176   -1.360953   -1.173940
     19          6           0       -0.352697    0.182713    0.143679
     20          1           0       -0.865897    1.140595    0.278469
     21          6           0        1.169810    0.424821    0.092915
     22          6           0       -0.689007   -0.773057    1.301974
     23          1           0       -0.291526   -0.330116    2.225092
     24          1           0       -0.127787   -1.704087    1.143804
     25          8           0        1.947149   -0.422400   -0.345579
     26          6           0       -2.186960   -1.086978    1.503083
     27          1           0       -2.579281   -1.525410    0.573262
     28          6           0       -2.345788   -2.135785    2.614591
     29          1           0       -1.981679   -1.748799    3.574712
     30          1           0       -3.398064   -2.410246    2.745069
     31          1           0       -1.785337   -3.050644    2.389214
     32          6           0       -3.014155    0.169144    1.812594
     33          1           0       -2.644793    0.669206    2.717543
     34          1           0       -2.994387    0.893765    0.990831
     35          1           0       -4.062966   -0.094207    1.986505
     36          7           0        1.599290    1.613966    0.587626
     37          1           0        0.923808    2.316098    0.854437
     38          6           0        3.006842    1.982574    0.514025
     39          1           0        3.580758    1.129049    0.902110
     40          6           0        3.308244    3.168204    1.427083
     41          6           0        3.457519    2.249065   -0.941420
     42          1           0        3.061452    3.220772   -1.259418
     43          1           0        2.980102    1.483043   -1.558320
     44          8           0        4.209857    3.956626    1.245931
     45          6           0        4.976879    2.190522   -1.145398
     46          1           0        5.465310    2.990798   -0.580102
     47          1           0        5.369605    1.244092   -0.750679
     48          6           0        5.394064    2.257425   -2.619135
     49          1           0        4.995877    1.411719   -3.181740
     50          1           0        6.485495    2.220034   -2.707777
     51          7           0        4.945106    3.506746   -3.264082
     52          1           0        5.254927    4.361035   -2.816353
     53          7           0        3.423046    2.629925   -4.816031
     54          1           0        2.976889    2.754355   -5.713631
     55          1           0        3.420653    1.675296   -4.441740
     56          7           0        3.928939    4.880398   -4.821130
     57          1           0        3.105753    5.094763   -5.365034
     58          1           0        4.497197    5.661268   -4.527525
     59          6           0        4.097989    3.649868   -4.285670
     60          8           0        2.464490    3.244191    2.477160
     61          1           0        2.750405    4.009317    3.013617
     62          1           0        4.658933   -2.136222   -4.347930
 ---------------------------------------------------------------------

 SCF Done:  E(RB3LYP) =  -1447.42454114     A.U. after    2 cycles

 Alpha  occ. eigenvalues --  -19.30628 -19.29813 -19.25819 -19.24118 -19.20775
 Alpha  occ. eigenvalues --  -19.20278 -14.52251 -14.52067 -14.50749 -14.45761
 Alpha  occ. eigenvalues --  -14.45076 -14.39663 -10.48346 -10.43675 -10.42392
 Alpha  occ. eigenvalues --  -10.37774 -10.37121 -10.35209 -10.34183 -10.32157
 Alpha  occ. eigenvalues --  -10.31161 -10.29568 -10.29272 -10.28964 -10.28432
 Alpha  occ. eigenvalues --  -10.27174 -10.26706 -10.24309 -10.24054  -1.21903
 Alpha  occ. eigenvalues --   -1.20782  -1.16585  -1.13095  -1.12549  -1.11830
 Alpha  occ. eigenvalues --   -1.11702  -1.06064  -1.04384  -1.02223  -1.01298
 Alpha  occ. eigenvalues --   -0.97188  -0.91154  -0.89124  -0.88628  -0.86682
 Alpha  occ. eigenvalues --   -0.83234  -0.80766  -0.80013  -0.78079  -0.75251
 Alpha  occ. eigenvalues --   -0.74453  -0.74268  -0.73324  -0.72699  -0.70371
 Alpha  occ. eigenvalues --   -0.69591  -0.68683  -0.67720  -0.66584  -0.65666
 Alpha  occ. eigenvalues --   -0.64787  -0.63989  -0.63061  -0.61558  -0.60179
 Alpha  occ. eigenvalues --   -0.59979  -0.59286  -0.58912  -0.58539  -0.58279
 Alpha  occ. eigenvalues --   -0.57802  -0.57226  -0.56138  -0.55238  -0.54378
 Alpha  occ. eigenvalues --   -0.54229  -0.53842  -0.52291  -0.52055  -0.51735
 Alpha  occ. eigenvalues --   -0.51478  -0.50919  -0.50477  -0.49769  -0.49001
 Alpha  occ. eigenvalues --   -0.48602  -0.48204  -0.48106  -0.47664  -0.46961
 Alpha  occ. eigenvalues --   -0.46184  -0.45433  -0.45271  -0.44837  -0.44742
 Alpha  occ. eigenvalues --   -0.44176  -0.43990  -0.43150  -0.42895  -0.42583
 Alpha  occ. eigenvalues --   -0.41838  -0.40464  -0.40226  -0.39997  -0.39861
 Alpha  occ. eigenvalues --   -0.39574  -0.37699  -0.35703  -0.35202  -0.34306
 Alpha  occ. eigenvalues --   -0.33469  -0.31583
 Alpha virt. eigenvalues --   -0.11969  -0.10512  -0.09511  -0.08450  -0.07332
 Alpha virt. eigenvalues --   -0.06054  -0.04384  -0.03746  -0.02460  -0.02137
 Alpha virt. eigenvalues --   -0.01180  -0.00957   0.00348   0.00638   0.00833

 Mulliken charges:
               1
     1  N   -0.708502
     2  H    0.311669
     3  H    0.306970
     4  C   -0.055791
     5  H    0.139077
     6  C    0.643210
     7  C   -0.281672
     8  H    0.148263
     9  H    0.148356
    10  O   -0.556510
    11  C   -0.397260
    12  H    0.244559
    13  H    0.185313
    14  C    0.604401
    15  O   -0.517191
    16  O   -0.528004
    17  N   -0.595271
    18  H    0.341316
    19  C   -0.038109
    20  H    0.163941
    21  C    0.655925
    22  C   -0.300537
    23  H    0.155435
    24  H    0.158343
    25  O   -0.550257
    26  C   -0.076396
    27  H    0.126641
    28  C   -0.444679
    29  H    0.149624
    30  H    0.158476
    31  H    0.146855
    32  C   -0.454174
    33  H    0.144490
    34  H    0.150885
    35  H    0.162112
    36  N   -0.612252
    37  H    0.349180
    38  C   -0.025265
    39  H    0.209023
    40  C    0.573351
    41  C   -0.265623
    42  H    0.139223
    43  H    0.179837
    44  O   -0.456999
    45  C   -0.294722
    46  H    0.186189
    47  H    0.170091
    48  C   -0.189342
    49  H    0.203292
    50  H    0.191198
    51  N   -0.592879
    52  H    0.360570
    53  N   -0.789611
    54  H    0.369835
    55  H    0.450160
    56  N   -0.765934
    57  H    0.380300
    58  H    0.377906
    59  C    0.818379
    60  O   -0.557314
    61  H    0.428759
    62  H    0.421140
 Sum of Mulliken charges =   1.00000

 Dipole moment (field-independent basis, Debye):
    X=             14.6818    Y=             11.6514    Z=            -14.7652  Tot=             23.8605
 Quadrupole moment (field-independent basis, Debye-Ang):
   XX=            -99.6518   YY=            -98.9419   ZZ=            -73.4431
   XY=             54.4883   XZ=            -61.1776   YZ=            -41.6247

 Normal termination of Gaussian 16 at Tue May 24 03:35:48 2022.
