 Gaussian 16, Revision C.01,
 Gaussian 16:  ES64L-G16RevC.01  3-Jul-2019

 -------------------------------------------------------------------
 # B3LYP/6-31G* guess=read geom=check nosymm integral(ultrafinegrid)
 -------------------------------------------------------------------

 ------------------------------------------------------
 Candidate Structure: Conf:549 Charge calc in gas phase
 ------------------------------------------------------
 Structure from the checkpoint file:  "conf-549.chk"
 Charge =  1 Multiplicity = 1

                          Input orientation:
 ---------------------------------------------------------------------
 Center     Atomic      Atomic             Coordinates (Angstroms)
 Number     Number       Type             X           Y           Z
 ---------------------------------------------------------------------
      1          7           0       -2.119195    0.685252   -4.516090
      2          1           0       -3.030114    0.703074   -4.060881
      3          1           0       -1.830508    1.658922   -4.603416
      4          6           0       -1.156780   -0.029567   -3.687873
      5          1           0       -1.617580   -0.973901   -3.382900
      6          6           0       -0.771182    0.747802   -2.411265
      7          6           0        0.087168   -0.355783   -4.549401
      8          1           0        0.534393    0.585126   -4.897235
      9          1           0       -0.284132   -0.866255   -5.443246
     10          8           0       -0.751795    1.999802   -2.420600
     11          6           0        1.205058   -1.190084   -3.878431
     12          1           0        1.998200   -1.370437   -4.608280
     13          1           0        1.632040   -0.642605   -3.030957
     14          6           0        0.705603   -2.517810   -3.355315
     15          8           0        0.008147   -2.659270   -2.358934
     16          8           0        1.083812   -3.558290   -4.108478
     17          7           0       -0.494332    0.004126   -1.331242
     18          1           0       -0.418690   -1.006041   -1.486643
     19          6           0       -0.041279    0.518430   -0.050688
     20          1           0       -0.622581    1.420129    0.173803
     21          6           0        1.449523    0.952345   -0.130081
     22          6           0       -0.290329   -0.545254    1.043167
     23          1           0        0.097766   -0.176603    2.000921
     24          1           0        0.305934   -1.434494    0.795960
     25          8           0        2.113644    0.871353   -1.162508
     26          6           0       -1.764639   -0.955761    1.244657
     27          1           0       -2.148931   -1.332078    0.286666
     28          6           0       -1.841216   -2.103322    2.263319
     29          1           0       -1.474274   -1.784196    3.247167
     30          1           0       -2.874640   -2.442934    2.389604
     31          1           0       -1.242667   -2.964232    1.944259
     32          6           0       -2.646264    0.223269    1.681856
     33          1           0       -2.284094    0.659753    2.622069
     34          1           0       -2.684918    1.020172    0.929623
     35          1           0       -3.676017   -0.109153    1.850248
     36          7           0        1.947837    1.470327    1.023383
     37          1           0        1.404845    1.444347    1.880070
     38          6           0        3.349258    1.822803    1.210952
     39          1           0        3.984516    0.998274    0.863467
     40          6           0        3.559529    1.973134    2.715390
     41          6           0        3.775660    3.091474    0.431304
     42          1           0        3.672482    2.834359   -0.625779
     43          1           0        4.838689    3.272382    0.621894
     44          8           0        2.671736    1.893571    3.537625
     45          6           0        2.936834    4.333178    0.767543
     46          1           0        1.902877    4.025163    0.953479
     47          1           0        3.288670    4.803334    1.693917
     48          6           0        2.960199    5.420379   -0.322542
     49          1           0        3.957559    5.859268   -0.406202
     50          1           0        2.284108    6.242902   -0.057770
     51          7           0        2.639724    4.926501   -1.675564
     52          1           0        3.364074    4.992399   -2.377500
     53          7           0        0.445376    4.233213   -1.274683
     54          1           0       -0.265190    3.517713   -1.462759
     55          1           0        0.294741    4.937713   -0.569034
     56          7           0        1.553346    3.496798   -3.154502
     57          1           0        0.729887    2.906571   -3.295527
     58          1           0        2.430848    3.099476   -3.463919
     59          6           0        1.552009    4.217414   -2.018444
     60          8           0        4.844575    2.216389    3.014667
     61          1           0        4.911452    2.291363    3.986565
     62          1           0        0.703846   -4.365537   -3.708924
 ---------------------------------------------------------------------

 SCF Done:  E(RB3LYP) =  -1447.44361982     A.U. after    2 cycles

 Alpha  occ. eigenvalues --  -19.31078 -19.29522 -19.25736 -19.24342 -19.24050
 Alpha  occ. eigenvalues --  -19.23243 -14.51782 -14.50442 -14.49819 -14.47265
 Alpha  occ. eigenvalues --  -14.46728 -14.40498 -10.47172 -10.43691 -10.42324
 Alpha  occ. eigenvalues --  -10.40198 -10.39824 -10.36615 -10.35633 -10.34493
 Alpha  occ. eigenvalues --  -10.32115 -10.31367 -10.30750 -10.29317 -10.29275
 Alpha  occ. eigenvalues --  -10.29143 -10.27981 -10.25907 -10.25172  -1.22199
 Alpha  occ. eigenvalues --   -1.20642  -1.15981  -1.15195  -1.14360  -1.13333
 Alpha  occ. eigenvalues --   -1.11411  -1.05551  -1.03948  -1.03651  -1.03377
 Alpha  occ. eigenvalues --   -0.98168  -0.92497  -0.90712  -0.88781  -0.87916
 Alpha  occ. eigenvalues --   -0.84822  -0.81573  -0.80111  -0.77747  -0.76771
 Alpha  occ. eigenvalues --   -0.75624  -0.74686  -0.74241  -0.72819  -0.71640
 Alpha  occ. eigenvalues --   -0.69577  -0.69091  -0.68340  -0.67481  -0.65539
 Alpha  occ. eigenvalues --   -0.65304  -0.63876  -0.63549  -0.62032  -0.61103
 Alpha  occ. eigenvalues --   -0.60560  -0.60054  -0.59757  -0.58890  -0.58712
 Alpha  occ. eigenvalues --   -0.57966  -0.57734  -0.57266  -0.56083  -0.55705
 Alpha  occ. eigenvalues --   -0.55119  -0.54557  -0.54427  -0.53674  -0.53544
 Alpha  occ. eigenvalues --   -0.52774  -0.52183  -0.51648  -0.51311  -0.50721
 Alpha  occ. eigenvalues --   -0.50318  -0.49943  -0.48844  -0.48244  -0.47991
 Alpha  occ. eigenvalues --   -0.47598  -0.46908  -0.46356  -0.46261  -0.45862
 Alpha  occ. eigenvalues --   -0.45172  -0.44946  -0.44103  -0.43284  -0.42064
 Alpha  occ. eigenvalues --   -0.41964  -0.41625  -0.41403  -0.41338  -0.40461
 Alpha  occ. eigenvalues --   -0.39384  -0.38670  -0.37870  -0.37560  -0.37006
 Alpha  occ. eigenvalues --   -0.35830  -0.33138
 Alpha virt. eigenvalues --   -0.12264  -0.10707  -0.09711  -0.09337  -0.09033
 Alpha virt. eigenvalues --   -0.07296  -0.05343  -0.03330  -0.03117  -0.01992
 Alpha virt. eigenvalues --   -0.01082  -0.00847   0.00404   0.00785   0.00934

 Mulliken charges:
               1
     1  N   -0.687565
     2  H    0.314591
     3  H    0.306082
     4  C   -0.100786
     5  H    0.173805
     6  C    0.613408
     7  C   -0.264443
     8  H    0.139100
     9  H    0.194801
    10  O   -0.607533
    11  C   -0.388752
    12  H    0.187070
    13  H    0.210159
    14  C    0.598816
    15  O   -0.489534
    16  O   -0.535320
    17  N   -0.596916
    18  H    0.404793
    19  C   -0.072078
    20  H    0.170478
    21  C    0.631404
    22  C   -0.305204
    23  H    0.149795
    24  H    0.163868
    25  O   -0.540781
    26  C   -0.072267
    27  H    0.140549
    28  C   -0.448840
    29  H    0.149788
    30  H    0.161662
    31  H    0.153279
    32  C   -0.456066
    33  H    0.146209
    34  H    0.138047
    35  H    0.167584
    36  N   -0.628815
    37  H    0.366970
    38  C   -0.028250
    39  H    0.207079
    40  C    0.586646
    41  C   -0.281513
    42  H    0.167116
    43  H    0.181449
    44  O   -0.459183
    45  C   -0.293892
    46  H    0.156709
    47  H    0.178174
    48  C   -0.164833
    49  H    0.192067
    50  H    0.184088
    51  N   -0.596074
    52  H    0.365071
    53  N   -0.771258
    54  H    0.422833
    55  H    0.371570
    56  N   -0.758312
    57  H    0.403191
    58  H    0.365020
    59  C    0.782901
    60  O   -0.558216
    61  H    0.434619
    62  H    0.425636
 Sum of Mulliken charges =   1.00000

 Dipole moment (field-independent basis, Debye):
    X=              8.5979    Y=             12.0903    Z=             -3.6952  Tot=             15.2890
 Quadrupole moment (field-independent basis, Debye-Ang):
   XX=           -128.0649   YY=            -89.5249   ZZ=           -143.2756
   XY=             38.4438   XZ=             -1.9855   YZ=             -3.2086

 Normal termination of Gaussian 16 at Tue May 24 03:36:04 2022.
