 Gaussian 16, Revision C.01,
 Gaussian 16:  ES64L-G16RevC.01  3-Jul-2019

 -------------------------------------------------------------------
 # B3LYP/6-31G* guess=read geom=check nosymm integral(ultrafinegrid)
 -------------------------------------------------------------------

 ------------------------------------------------------
 Candidate Structure: Conf:472 Charge calc in gas phase
 ------------------------------------------------------
 Structure from the checkpoint file:  "conf-472.chk"
 Charge =  1 Multiplicity = 1

                          Input orientation:
 ---------------------------------------------------------------------
 Center     Atomic      Atomic             Coordinates (Angstroms)
 Number     Number       Type             X           Y           Z
 ---------------------------------------------------------------------
      1          7           0       -2.029608   -1.239576   -4.388651
      2          1           0       -2.653223   -1.981495   -4.075339
      3          1           0       -2.553222   -0.370317   -4.267377
      4          6           0       -0.864332   -1.171306   -3.518377
      5          1           0       -0.511652   -2.191447   -3.317400
      6          6           0       -1.139044   -0.431904   -2.191096
      7          6           0        0.267825   -0.374039   -4.212088
      8          1           0        1.129596   -0.287848   -3.539491
      9          1           0       -0.108352    0.641313   -4.393352
     10          8           0       -1.981410    0.457199   -2.135044
     11          6           0        0.707993   -1.002679   -5.549632
     12          1           0        1.186668   -1.972551   -5.369068
     13          1           0       -0.164089   -1.152802   -6.187642
     14          6           0        1.709884   -0.103021   -6.218781
     15          8           0        2.855479    0.105441   -5.812897
     16          8           0        1.233379    0.518493   -7.295959
     17          7           0       -0.332484   -0.781093   -1.142487
     18          1           0        0.444760   -1.402640   -1.340910
     19          6           0       -0.051909    0.154893   -0.056248
     20          1           0       -0.772250    0.970017   -0.157381
     21          6           0        1.377108    0.671398   -0.291657
     22          6           0       -0.168107   -0.494494    1.337874
     23          1           0        0.088118    0.266061    2.090058
     24          1           0        0.597071   -1.278653    1.417470
     25          8           0        2.255549   -0.069861   -0.742190
     26          6           0       -1.552665   -1.088645    1.663977
     27          1           0       -1.765887   -1.858440    0.909602
     28          6           0       -1.509949   -1.770817    3.039717
     29          1           0       -1.310651   -1.042381    3.836265
     30          1           0       -2.467136   -2.253342    3.265494
     31          1           0       -0.728580   -2.538806    3.085831
     32          6           0       -2.674223   -0.040399    1.601797
     33          1           0       -2.474029    0.793371    2.288566
     34          1           0       -2.805136    0.366788    0.593409
     35          1           0       -3.630139   -0.485376    1.899434
     36          7           0        1.615332    1.974931    0.003067
     37          1           0        0.886441    2.555887    0.394720
     38          6           0        2.948752    2.540116   -0.160892
     39          1           0        3.665084    1.831818    0.276427
     40          6           0        3.116760    3.850588    0.598840
     41          6           0        3.314953    2.710930   -1.659318
     42          1           0        2.774408    3.570336   -2.076082
     43          1           0        2.943022    1.810716   -2.155291
     44          8           0        4.120747    4.523298    0.550360
     45          6           0        4.819995    2.843943   -1.921809
     46          1           0        5.188804    3.809870   -1.564807
     47          1           0        5.353617    2.078416   -1.341798
     48          6           0        5.184900    2.710355   -3.409008
     49          1           0        6.249181    2.922355   -3.571425
     50          1           0        4.639732    3.447493   -4.004513
     51          7           0        4.860905    1.400549   -4.001859
     52          1           0        4.061167    1.324873   -4.625144
     53          7           0        6.663137    0.238726   -3.077958
     54          1           0        7.046619   -0.634436   -2.746469
     55          1           0        7.035508    1.081081   -2.667697
     56          7           0        5.010032   -0.888109   -4.253133
     57          1           0        5.575170   -1.723898   -4.286815
     58          1           0        4.154567   -0.848084   -4.811247
     59          6           0        5.510249    0.256792   -3.772042
     60          8           0        2.029784    4.189026    1.325252
     61          1           0        2.231000    5.034914    1.770983
     62          1           0        1.934944    1.095938   -7.656002
 ---------------------------------------------------------------------

 SCF Done:  E(RB3LYP) =  -1447.42998315     A.U. after    1 cycles

 Alpha  occ. eigenvalues --  -19.32130 -19.30589 -19.27278 -19.24446 -19.21749
 Alpha  occ. eigenvalues --  -19.20222 -14.52401 -14.51611 -14.50823 -14.46602
 Alpha  occ. eigenvalues --  -14.44341 -14.39565 -10.48196 -10.45087 -10.42950
 Alpha  occ. eigenvalues --  -10.38617 -10.36842 -10.36438 -10.34994 -10.31863
 Alpha  occ. eigenvalues --  -10.31537 -10.30721 -10.30187 -10.30186 -10.29588
 Alpha  occ. eigenvalues --  -10.26613 -10.25700 -10.23495 -10.23318  -1.23381
 Alpha  occ. eigenvalues --   -1.21355  -1.16685  -1.13931  -1.13725  -1.12287
 Alpha  occ. eigenvalues --   -1.11883  -1.05938  -1.04732  -1.03016  -1.00980
 Alpha  occ. eigenvalues --   -0.97390  -0.91958  -0.89612  -0.88550  -0.87004
 Alpha  occ. eigenvalues --   -0.83292  -0.81468  -0.80418  -0.78560  -0.74748
 Alpha  occ. eigenvalues --   -0.74555  -0.74241  -0.73702  -0.72765  -0.70755
 Alpha  occ. eigenvalues --   -0.69959  -0.69256  -0.68066  -0.66462  -0.65931
 Alpha  occ. eigenvalues --   -0.64964  -0.64473  -0.63047  -0.62342  -0.61362
 Alpha  occ. eigenvalues --   -0.60773  -0.59496  -0.58935  -0.58588  -0.58418
 Alpha  occ. eigenvalues --   -0.58187  -0.57567  -0.56619  -0.55873  -0.55091
 Alpha  occ. eigenvalues --   -0.54653  -0.53938  -0.53798  -0.53415  -0.52006
 Alpha  occ. eigenvalues --   -0.51763  -0.51404  -0.50900  -0.50387  -0.49447
 Alpha  occ. eigenvalues --   -0.49079  -0.48548  -0.48039  -0.47700  -0.46725
 Alpha  occ. eigenvalues --   -0.46339  -0.45935  -0.45708  -0.45351  -0.45162
 Alpha  occ. eigenvalues --   -0.44413  -0.44213  -0.43744  -0.42901  -0.42820
 Alpha  occ. eigenvalues --   -0.42420  -0.40888  -0.40503  -0.39684  -0.39169
 Alpha  occ. eigenvalues --   -0.39099  -0.38248  -0.36042  -0.35958  -0.34792
 Alpha  occ. eigenvalues --   -0.33511  -0.31975
 Alpha virt. eigenvalues --   -0.12500  -0.11939  -0.09845  -0.08009  -0.07682
 Alpha virt. eigenvalues --   -0.06027  -0.04824  -0.03963  -0.02823  -0.02793
 Alpha virt. eigenvalues --   -0.01877  -0.00978   0.00356   0.00988   0.01540

 Mulliken charges:
               1
     1  N   -0.706474
     2  H    0.317605
     3  H    0.325915
     4  C   -0.082197
     5  H    0.143488
     6  C    0.587460
     7  C   -0.285026
     8  H    0.155598
     9  H    0.169113
    10  O   -0.513137
    11  C   -0.332051
    12  H    0.171530
    13  H    0.225340
    14  C    0.585156
    15  O   -0.530140
    16  O   -0.509605
    17  N   -0.575461
    18  H    0.336913
    19  C   -0.093320
    20  H    0.187151
    21  C    0.636792
    22  C   -0.260042
    23  H    0.138013
    24  H    0.146209
    25  O   -0.560756
    26  C   -0.066214
    27  H    0.137821
    28  C   -0.445628
    29  H    0.144549
    30  H    0.155934
    31  H    0.142850
    32  C   -0.469094
    33  H    0.135653
    34  H    0.170037
    35  H    0.156760
    36  N   -0.627088
    37  H    0.364052
    38  C   -0.032705
    39  H    0.202302
    40  C    0.592902
    41  C   -0.274906
    42  H    0.156540
    43  H    0.174033
    44  O   -0.447305
    45  C   -0.278827
    46  H    0.205958
    47  H    0.140091
    48  C   -0.190009
    49  H    0.179943
    50  H    0.193469
    51  N   -0.609697
    52  H    0.394663
    53  N   -0.758158
    54  H    0.381084
    55  H    0.386438
    56  N   -0.783865
    57  H    0.369431
    58  H    0.412708
    59  C    0.821741
    60  O   -0.572002
    61  H    0.434477
    62  H    0.423988
 Sum of Mulliken charges =   1.00000

 Dipole moment (field-independent basis, Debye):
    X=             19.7251    Y=              2.8166    Z=            -14.6589  Tot=             24.7365
 Quadrupole moment (field-independent basis, Debye-Ang):
   XX=            -60.2862   YY=           -138.7649   ZZ=            -87.3732
   XY=             10.5359   XZ=            -73.6163   YZ=              1.2610

 Normal termination of Gaussian 16 at Tue May 24 03:35:45 2022.
