 Gaussian 16, Revision C.01,
 Gaussian 16:  ES64L-G16RevC.01  3-Jul-2019

 -------------------------------------------------------------------
 # B3LYP/6-31G* guess=read geom=check nosymm integral(ultrafinegrid)
 -------------------------------------------------------------------

 ------------------------------------------------------
 Candidate Structure: Conf:962 Charge calc in gas phase
 ------------------------------------------------------
 Structure from the checkpoint file:  "conf-962.chk"
 Charge =  1 Multiplicity = 1

                          Input orientation:
 ---------------------------------------------------------------------
 Center     Atomic      Atomic             Coordinates (Angstroms)
 Number     Number       Type             X           Y           Z
 ---------------------------------------------------------------------
      1          7           0       -2.788688   -2.117043   -3.312326
      2          1           0       -3.484060   -1.371964   -3.314488
      3          1           0       -2.960794   -2.710032   -4.120998
      4          6           0       -1.455547   -1.515188   -3.374031
      5          1           0       -0.722854   -2.325325   -3.248923
      6          6           0       -1.378610   -0.558574   -2.179496
      7          6           0       -1.103388   -0.723758   -4.654934
      8          1           0       -0.099428   -0.293072   -4.554782
      9          1           0       -1.796433    0.120716   -4.744939
     10          8           0       -2.194881    0.348695   -2.044938
     11          6           0       -1.143189   -1.575392   -5.924951
     12          1           0       -0.528816   -2.481141   -5.809526
     13          1           0       -2.154817   -1.925646   -6.157264
     14          6           0       -0.606895   -0.835476   -7.134574
     15          8           0        0.084899    0.158693   -7.108887
     16          8           0       -0.975903   -1.442191   -8.287237
     17          7           0       -0.365317   -0.780635   -1.293862
     18          1           0        0.325633   -1.497014   -1.474214
     19          6           0       -0.125382    0.094210   -0.162066
     20          1           0       -0.789632    0.952687   -0.306712
     21          6           0        1.339918    0.532891   -0.212952
     22          6           0       -0.413594   -0.543628    1.219639
     23          1           0       -0.072868    0.178931    1.975334
     24          1           0        0.221706   -1.431880    1.339630
     25          8           0        2.241474   -0.227153   -0.544024
     26          6           0       -1.894115   -0.901987    1.500241
     27          1           0       -2.523073   -0.130529    1.033444
     28          6           0       -2.306595   -2.266417    0.923044
     29          1           0       -1.674762   -3.066267    1.331818
     30          1           0       -3.343043   -2.494916    1.196226
     31          1           0       -2.240985   -2.303388   -0.166846
     32          6           0       -2.151426   -0.872399    3.016195
     33          1           0       -1.522542   -1.606634    3.536563
     34          1           0       -1.937796    0.114732    3.444553
     35          1           0       -3.195832   -1.115691    3.240176
     36          7           0        1.586743    1.831607    0.163361
     37          1           0        0.813465    2.426216    0.428647
     38          6           0        2.939696    2.335195    0.226383
     39          1           0        3.566246    1.442477    0.078334
     40          6           0        3.284345    2.878708    1.610313
     41          6           0        3.252160    3.343725   -0.908569
     42          1           0        2.736128    4.288889   -0.693662
     43          1           0        2.787005    2.937431   -1.809953
     44          8           0        4.171183    3.673469    1.845118
     45          6           0        4.762405    3.598026   -1.170049
     46          1           0        5.370938    3.031234   -0.458757
     47          1           0        5.035090    3.231252   -2.165798
     48          6           0        5.132079    5.087416   -1.062107
     49          1           0        4.714449    5.523456   -0.151200
     50          1           0        4.722666    5.653589   -1.903495
     51          7           0        6.586449    5.342674   -1.057538
     52          1           0        7.046028    5.406710   -1.956687
     53          7           0        6.929631    4.984357    1.222058
     54          1           0        7.475092    5.185501    2.048290
     55          1           0        6.022105    4.533691    1.362389
     56          7           0        8.666593    5.720784   -0.111373
     57          1           0        9.340824    5.557010    0.622077
     58          1           0        8.988763    6.209333   -0.934289
     59          6           0        7.381402    5.340423    0.022545
     60          8           0        2.518519    2.380262    2.578474
     61          1           0        2.829953    2.752839    3.427196
     62          1           0       -0.572098   -0.927850   -9.011898
 ---------------------------------------------------------------------

 SCF Done:  E(RB3LYP) =  -1447.40495749     A.U. after    1 cycles

 Alpha  occ. eigenvalues --  -19.31940 -19.27088 -19.24630 -19.20853 -19.19091
 Alpha  occ. eigenvalues --  -19.17189 -14.54118 -14.54019 -14.53500 -14.46156
 Alpha  occ. eigenvalues --  -14.42388 -14.36826 -10.50394 -10.44838 -10.37747
 Alpha  occ. eigenvalues --  -10.37330 -10.37323 -10.35302 -10.34351 -10.31965
 Alpha  occ. eigenvalues --  -10.31179 -10.30524 -10.28018 -10.25792 -10.25338
 Alpha  occ. eigenvalues --  -10.24436 -10.24261 -10.22516 -10.21532  -1.23681
 Alpha  occ. eigenvalues --   -1.18681  -1.15542  -1.14325  -1.12999  -1.09224
 Alpha  occ. eigenvalues --   -1.07925  -1.06715  -1.06550  -1.02824  -0.98826
 Alpha  occ. eigenvalues --   -0.94149  -0.92744  -0.88260  -0.86398  -0.84489
 Alpha  occ. eigenvalues --   -0.83186  -0.81203  -0.79877  -0.76768  -0.76158
 Alpha  occ. eigenvalues --   -0.75407  -0.72822  -0.72714  -0.72197  -0.71081
 Alpha  occ. eigenvalues --   -0.69938  -0.67622  -0.67329  -0.66930  -0.65101
 Alpha  occ. eigenvalues --   -0.64514  -0.63190  -0.62270  -0.61860  -0.61361
 Alpha  occ. eigenvalues --   -0.60335  -0.58800  -0.58653  -0.58309  -0.56651
 Alpha  occ. eigenvalues --   -0.55689  -0.55022  -0.54561  -0.53640  -0.53192
 Alpha  occ. eigenvalues --   -0.52856  -0.52688  -0.51953  -0.51325  -0.50583
 Alpha  occ. eigenvalues --   -0.50006  -0.49566  -0.49359  -0.48336  -0.48107
 Alpha  occ. eigenvalues --   -0.47626  -0.47065  -0.46599  -0.46428  -0.45755
 Alpha  occ. eigenvalues --   -0.44863  -0.44460  -0.44309  -0.43787  -0.43318
 Alpha  occ. eigenvalues --   -0.42865  -0.42450  -0.41920  -0.41666  -0.41370
 Alpha  occ. eigenvalues --   -0.41018  -0.39929  -0.38612  -0.37956  -0.37678
 Alpha  occ. eigenvalues --   -0.36908  -0.35284  -0.34789  -0.32811  -0.31311
 Alpha  occ. eigenvalues --   -0.31144  -0.28734
 Alpha virt. eigenvalues --   -0.14067  -0.11774  -0.10205  -0.06696  -0.06089
 Alpha virt. eigenvalues --   -0.05447  -0.04270  -0.03793  -0.03423  -0.03021
 Alpha virt. eigenvalues --   -0.01213  -0.00948   0.00226   0.01075   0.01542

 Mulliken charges:
               1
     1  N   -0.715635
     2  H    0.320136
     3  H    0.307124
     4  C   -0.067841
     5  H    0.128869
     6  C    0.634885
     7  C   -0.261368
     8  H    0.153430
     9  H    0.168032
    10  O   -0.535448
    11  C   -0.366122
    12  H    0.179421
    13  H    0.172916
    14  C    0.582233
    15  O   -0.463878
    16  O   -0.562794
    17  N   -0.599869
    18  H    0.343933
    19  C   -0.073019
    20  H    0.178504
    21  C    0.625005
    22  C   -0.258707
    23  H    0.131187
    24  H    0.150531
    25  O   -0.519983
    26  C   -0.072825
    27  H    0.145180
    28  C   -0.454602
    29  H    0.134830
    30  H    0.150022
    31  H    0.172450
    32  C   -0.446660
    33  H    0.143390
    34  H    0.131800
    35  H    0.155093
    36  N   -0.611830
    37  H    0.342711
    38  C   -0.065200
    39  H    0.231511
    40  C    0.601770
    41  C   -0.276654
    42  H    0.154308
    43  H    0.194794
    44  O   -0.506329
    45  C   -0.266260
    46  H    0.155740
    47  H    0.173061
    48  C   -0.188148
    49  H    0.196700
    50  H    0.200586
    51  N   -0.597767
    52  H    0.366717
    53  N   -0.783243
    54  H    0.380273
    55  H    0.438826
    56  N   -0.765643
    57  H    0.385905
    58  H    0.385836
    59  C    0.827884
    60  O   -0.528053
    61  H    0.429383
    62  H    0.412903
 Sum of Mulliken charges =   1.00000

 Dipole moment (field-independent basis, Debye):
    X=             30.4476    Y=             22.1328    Z=             -0.1114  Tot=             37.6421
 Quadrupole moment (field-independent basis, Debye-Ang):
   XX=             60.3766   YY=            -47.8118   ZZ=           -128.6163
   XY=            169.5524   XZ=              5.8320   YZ=             11.1887

 Normal termination of Gaussian 16 at Tue May 24 03:40:29 2022.
