 Gaussian 16, Revision C.01,
 Gaussian 16:  ES64L-G16RevC.01  3-Jul-2019

 -------------------------------------------------------------------
 # B3LYP/6-31G* guess=read geom=check nosymm integral(ultrafinegrid)
 -------------------------------------------------------------------

 ------------------------------------------------------
 Candidate Structure: Conf:110 Charge calc in gas phase
 ------------------------------------------------------
 Structure from the checkpoint file:  "conf-110.chk"
 Charge =  1 Multiplicity = 1

                          Input orientation:
 ---------------------------------------------------------------------
 Center     Atomic      Atomic             Coordinates (Angstroms)
 Number     Number       Type             X           Y           Z
 ---------------------------------------------------------------------
      1          7           0       -2.120285    1.931742   -4.009081
      2          1           0       -1.622893    2.818987   -3.959565
      3          1           0       -2.541908    1.850030   -4.931591
      4          6           0       -1.182180    0.840496   -3.765620
      5          1           0       -1.766659   -0.080406   -3.633440
      6          6           0       -0.491489    1.205447   -2.433027
      7          6           0       -0.155547    0.606487   -4.909255
      8          1           0        0.580083    1.419035   -4.882564
      9          1           0       -0.697486    0.700976   -5.858042
     10          8           0        0.003858    2.317359   -2.253190
     11          6           0        0.546695   -0.775665   -4.920837
     12          1           0       -0.173004   -1.574718   -5.116500
     13          1           0        1.289955   -0.796843   -5.728154
     14          6           0        1.227616   -1.096981   -3.609415
     15          8           0        0.923037   -1.997148   -2.861728
     16          8           0        2.194653   -0.187274   -3.298931
     17          7           0       -0.475985    0.233614   -1.484950
     18          1           0       -0.826566   -0.683773   -1.722511
     19          6           0        0.024097    0.415643   -0.134798
     20          1           0       -0.674942    1.059347    0.414552
     21          6           0        1.396646    1.102630   -0.088160
     22          6           0        0.135322   -0.953418    0.578259
     23          1           0        0.602066   -0.784166    1.557382
     24          1           0        0.823770   -1.578556   -0.003423
     25          8           0        2.347751    0.837857   -0.854066
     26          6           0       -1.194378   -1.709020    0.797120
     27          1           0       -1.660592   -1.900769   -0.181479
     28          6           0       -0.895745   -3.077396    1.429746
     29          1           0       -0.440389   -2.960096    2.421202
     30          1           0       -1.816533   -3.656947    1.554076
     31          1           0       -0.208907   -3.664906    0.810222
     32          6           0       -2.194671   -0.915019    1.649586
     33          1           0       -1.768735   -0.672774    2.631887
     34          1           0       -2.503290    0.022280    1.172498
     35          1           0       -3.102895   -1.502324    1.821034
     36          7           0        1.534220    1.953197    0.941693
     37          1           0        0.750908    2.154528    1.556079
     38          6           0        2.786951    2.588705    1.312930
     39          1           0        3.547750    1.811774    1.462111
     40          6           0        2.553570    3.249401    2.668349
     41          6           0        3.298033    3.594179    0.238217
     42          1           0        3.323161    4.609551    0.645964
     43          1           0        2.554180    3.604159   -0.563978
     44          8           0        1.489028    3.268066    3.244567
     45          6           0        4.691303    3.226567   -0.308089
     46          1           0        5.474795    3.684638    0.304137
     47          1           0        4.844935    2.142334   -0.257808
     48          6           0        4.892481    3.661902   -1.758333
     49          1           0        5.939308    3.524072   -2.054364
     50          1           0        4.638994    4.725847   -1.871798
     51          7           0        4.037874    2.848687   -2.638271
     52          1           0        3.378768    2.207997   -2.192158
     53          7           0        4.835466    3.817108   -4.589218
     54          1           0        4.976583    3.793998   -5.587997
     55          1           0        5.207575    4.608938   -4.088117
     56          7           0        3.430094    1.976236   -4.696753
     57          1           0        3.331427    2.093001   -5.694320
     58          1           0        2.953053    1.184698   -4.249920
     59          6           0        4.089464    2.882854   -3.969381
     60          8           0        3.681891    3.806658    3.136364
     61          1           0        3.474146    4.210961    4.001236
     62          1           0        2.302277   -0.130141   -2.307151
 ---------------------------------------------------------------------

 SCF Done:  E(RB3LYP) =  -1447.43237560     A.U. after    1 cycles

 Alpha  occ. eigenvalues --  -19.30882 -19.28821 -19.25498 -19.24670 -19.23683
 Alpha  occ. eigenvalues --  -19.21197 -14.52269 -14.51266 -14.50572 -14.47859
 Alpha  occ. eigenvalues --  -14.45904 -14.39765 -10.47939 -10.43533 -10.41842
 Alpha  occ. eigenvalues --  -10.41089 -10.38154 -10.36417 -10.35730 -10.33973
 Alpha  occ. eigenvalues --  -10.31759 -10.31265 -10.30853 -10.29953 -10.29368
 Alpha  occ. eigenvalues --  -10.28297 -10.27682 -10.25078 -10.24656  -1.21977
 Alpha  occ. eigenvalues --   -1.19554  -1.16447  -1.15646  -1.13217  -1.12886
 Alpha  occ. eigenvalues --   -1.10999  -1.05757  -1.04622  -1.04493  -1.02475
 Alpha  occ. eigenvalues --   -0.97465  -0.92700  -0.90148  -0.88843  -0.88096
 Alpha  occ. eigenvalues --   -0.84356  -0.81164  -0.79495  -0.78652  -0.76077
 Alpha  occ. eigenvalues --   -0.75312  -0.74730  -0.74469  -0.73192  -0.71144
 Alpha  occ. eigenvalues --   -0.70365  -0.70061  -0.69279  -0.67720  -0.65383
 Alpha  occ. eigenvalues --   -0.64787  -0.64658  -0.62986  -0.61856  -0.61698
 Alpha  occ. eigenvalues --   -0.60896  -0.60063  -0.59802  -0.59252  -0.58097
 Alpha  occ. eigenvalues --   -0.57601  -0.57135  -0.56897  -0.55751  -0.55479
 Alpha  occ. eigenvalues --   -0.55052  -0.54634  -0.54006  -0.53289  -0.53202
 Alpha  occ. eigenvalues --   -0.52850  -0.51835  -0.51453  -0.50653  -0.50179
 Alpha  occ. eigenvalues --   -0.49487  -0.49108  -0.48328  -0.47823  -0.47326
 Alpha  occ. eigenvalues --   -0.47200  -0.47037  -0.46419  -0.46264  -0.45766
 Alpha  occ. eigenvalues --   -0.45063  -0.44917  -0.44123  -0.43029  -0.42854
 Alpha  occ. eigenvalues --   -0.42026  -0.41372  -0.40868  -0.40819  -0.40295
 Alpha  occ. eigenvalues --   -0.39190  -0.38412  -0.37770  -0.36938  -0.35183
 Alpha  occ. eigenvalues --   -0.35071  -0.31812
 Alpha virt. eigenvalues --   -0.11603  -0.10691  -0.09885  -0.09391  -0.07827
 Alpha virt. eigenvalues --   -0.07027  -0.04913  -0.03099  -0.02413  -0.01864
 Alpha virt. eigenvalues --   -0.01093  -0.00753  -0.00000   0.00220   0.00773

 Mulliken charges:
               1
     1  N   -0.709030
     2  H    0.318861
     3  H    0.307604
     4  C   -0.057670
     5  H    0.148821
     6  C    0.628934
     7  C   -0.289159
     8  H    0.138843
     9  H    0.158733
    10  O   -0.556552
    11  C   -0.353206
    12  H    0.191438
    13  H    0.168782
    14  C    0.596842
    15  O   -0.453673
    16  O   -0.640944
    17  N   -0.622722
    18  H    0.360767
    19  C   -0.031633
    20  H    0.173042
    21  C    0.687696
    22  C   -0.306416
    23  H    0.151440
    24  H    0.179224
    25  O   -0.612179
    26  C   -0.086827
    27  H    0.130338
    28  C   -0.446947
    29  H    0.149536
    30  H    0.161297
    31  H    0.156865
    32  C   -0.456127
    33  H    0.148962
    34  H    0.150403
    35  H    0.166822
    36  N   -0.618150
    37  H    0.374042
    38  C   -0.006080
    39  H    0.205413
    40  C    0.570796
    41  C   -0.302861
    42  H    0.182490
    43  H    0.192019
    44  O   -0.447443
    45  C   -0.313552
    46  H    0.187376
    47  H    0.180923
    48  C   -0.157010
    49  H    0.187293
    50  H    0.174955
    51  N   -0.631708
    52  H    0.406103
    53  N   -0.766126
    54  H    0.379332
    55  H    0.386628
    56  N   -0.806244
    57  H    0.365368
    58  H    0.440130
    59  C    0.830063
    60  O   -0.559903
    61  H    0.436507
    62  H    0.457475
 Sum of Mulliken charges =   1.00000

 Dipole moment (field-independent basis, Debye):
    X=             15.7616    Y=             12.4264    Z=            -12.7603  Tot=             23.7838
 Quadrupole moment (field-independent basis, Debye-Ang):
   XX=            -94.7037   YY=           -121.3314   ZZ=            -68.5286
   XY=             70.2441   XZ=            -42.1077   YZ=            -34.2361

 Normal termination of Gaussian 16 at Tue May 24 03:34:21 2022.
