 Gaussian 16, Revision C.01,
 Gaussian 16:  ES64L-G16RevC.01  3-Jul-2019

 -------------------------------------------------------------------
 # B3LYP/6-31G* guess=read geom=check nosymm integral(ultrafinegrid)
 -------------------------------------------------------------------

 ------------------------------------------------------
 Candidate Structure: Conf:746 Charge calc in gas phase
 ------------------------------------------------------
 Structure from the checkpoint file:  "conf-746.chk"
 Charge =  1 Multiplicity = 1

                          Input orientation:
 ---------------------------------------------------------------------
 Center     Atomic      Atomic             Coordinates (Angstroms)
 Number     Number       Type             X           Y           Z
 ---------------------------------------------------------------------
      1          7           0       -2.033319    0.483343   -4.758088
      2          1           0       -1.403374    1.279812   -4.812694
      3          1           0       -2.193988    0.105803   -5.687455
      4          6           0       -1.502687   -0.514383   -3.846624
      5          1           0       -2.336947   -1.107771   -3.446012
      6          6           0       -0.816943    0.234546   -2.697706
      7          6           0       -0.494371   -1.525839   -4.468936
      8          1           0       -0.947699   -1.939222   -5.376589
      9          1           0       -0.341873   -2.369203   -3.783833
     10          8           0       -0.227164    1.300053   -2.888741
     11          6           0        0.863819   -0.899833   -4.813709
     12          1           0        0.716563    0.121190   -5.196056
     13          1           0        1.494255   -0.801061   -3.923552
     14          6           0        1.601372   -1.648247   -5.888901
     15          8           0        1.155177   -2.382938   -6.727656
     16          8           0        2.973535   -1.362832   -5.878002
     17          7           0       -0.814317   -0.377596   -1.488842
     18          1           0       -1.316018   -1.245893   -1.361460
     19          6           0       -0.091286    0.183730   -0.353846
     20          1           0       -0.554937    1.140675   -0.086459
     21          6           0        1.380584    0.423623   -0.748382
     22          6           0       -0.174459   -0.799950    0.828453
     23          1           0        0.314440   -1.730581    0.512679
     24          1           0       -1.235905   -1.029698    1.002026
     25          8           0        2.084731   -0.469020   -1.219822
     26          6           0        0.451269   -0.322189    2.154233
     27          1           0        1.504771   -0.070876    1.963826
     28          6           0       -0.243390    0.924511    2.723848
     29          1           0       -1.312042    0.738084    2.889792
     30          1           0        0.196451    1.203442    3.687576
     31          1           0       -0.153860    1.795076    2.064175
     32          6           0        0.423922   -1.469725    3.175700
     33          1           0       -0.606930   -1.764919    3.408960
     34          1           0        0.949148   -2.355193    2.799292
     35          1           0        0.901992   -1.169096    4.114261
     36          7           0        1.856930    1.666246   -0.466387
     37          1           0        1.205923    2.411309   -0.259272
     38          6           0        3.227686    2.031748   -0.777359
     39          1           0        3.874616    1.232678   -0.398634
     40          6           0        3.656192    3.309435   -0.067283
     41          6           0        3.475397    2.144815   -2.306088
     42          1           0        2.898732    2.983158   -2.714511
     43          1           0        3.053508    1.228089   -2.725860
     44          8           0        4.806846    3.678351   -0.001827
     45          6           0        4.960971    2.265450   -2.681593
     46          1           0        5.307064    3.299581   -2.589976
     47          1           0        5.564641    1.692463   -1.966661
     48          6           0        5.263300    1.789723   -4.111666
     49          1           0        6.308755    1.985313   -4.381539
     50          1           0        4.653951    2.333200   -4.838298
     51          7           0        4.975166    0.360662   -4.336813
     52          1           0        4.135340    0.107546   -4.850594
     53          7           0        6.814018   -0.458916   -3.159317
     54          1           0        7.409461   -1.231185   -2.897952
     55          1           0        7.165047    0.470352   -2.985455
     56          7           0        5.289651   -1.919270   -4.118749
     57          1           0        5.689764   -2.695859   -3.611895
     58          1           0        4.380051   -2.059878   -4.550227
     59          6           0        5.687541   -0.661050   -3.861368
     60          8           0        2.618735    4.010376    0.437770
     61          1           0        2.985972    4.817415    0.847926
     62          1           0        3.321435   -1.779196   -6.692752
 ---------------------------------------------------------------------

 SCF Done:  E(RB3LYP) =  -1447.41516273     A.U. after    3 cycles

 Alpha  occ. eigenvalues --  -19.32784 -19.30162 -19.26051 -19.24039 -19.20977
 Alpha  occ. eigenvalues --  -19.20637 -14.53294 -14.52506 -14.52166 -14.45663
 Alpha  occ. eigenvalues --  -14.45366 -14.38925 -10.49226 -10.43867 -10.42460
 Alpha  occ. eigenvalues --  -10.38086 -10.37403 -10.36829 -10.34409 -10.32475
 Alpha  occ. eigenvalues --  -10.31088 -10.30970 -10.30484 -10.29879 -10.28549
 Alpha  occ. eigenvalues --  -10.27532 -10.27093 -10.24891 -10.24504  -1.22316
 Alpha  occ. eigenvalues --   -1.20917  -1.17667  -1.13673  -1.13242  -1.12085
 Alpha  occ. eigenvalues --   -1.11855  -1.06829  -1.05830  -1.02361  -1.01595
 Alpha  occ. eigenvalues --   -0.96827  -0.92063  -0.89594  -0.89125  -0.87156
 Alpha  occ. eigenvalues --   -0.83764  -0.81647  -0.80287  -0.79038  -0.75733
 Alpha  occ. eigenvalues --   -0.75380  -0.74666  -0.74146  -0.73272  -0.70928
 Alpha  occ. eigenvalues --   -0.69899  -0.69450  -0.67763  -0.66997  -0.66196
 Alpha  occ. eigenvalues --   -0.65619  -0.63741  -0.62907  -0.62267  -0.61283
 Alpha  occ. eigenvalues --   -0.60428  -0.60078  -0.59834  -0.59348  -0.58045
 Alpha  occ. eigenvalues --   -0.58009  -0.57816  -0.57326  -0.56645  -0.54601
 Alpha  occ. eigenvalues --   -0.54334  -0.54043  -0.53762  -0.53566  -0.52586
 Alpha  occ. eigenvalues --   -0.51410  -0.51163  -0.50940  -0.50399  -0.49982
 Alpha  occ. eigenvalues --   -0.49357  -0.49035  -0.48776  -0.47486  -0.46905
 Alpha  occ. eigenvalues --   -0.46434  -0.46105  -0.45712  -0.45350  -0.45122
 Alpha  occ. eigenvalues --   -0.44738  -0.44553  -0.44176  -0.43880  -0.43489
 Alpha  occ. eigenvalues --   -0.42004  -0.41334  -0.40849  -0.40419  -0.40291
 Alpha  occ. eigenvalues --   -0.39446  -0.37998  -0.35905  -0.35412  -0.34199
 Alpha  occ. eigenvalues --   -0.33708  -0.31004
 Alpha virt. eigenvalues --   -0.12798  -0.10922  -0.09742  -0.08821  -0.07403
 Alpha virt. eigenvalues --   -0.06452  -0.05988  -0.05150  -0.03697  -0.02594
 Alpha virt. eigenvalues --   -0.01474  -0.01213  -0.00230  -0.00002   0.01173

 Mulliken charges:
               1
     1  N   -0.717905
     2  H    0.324083
     3  H    0.306674
     4  C   -0.066115
     5  H    0.152035
     6  C    0.653149
     7  C   -0.279768
     8  H    0.184294
     9  H    0.151081
    10  O   -0.560695
    11  C   -0.385961
    12  H    0.196058
    13  H    0.199638
    14  C    0.588012
    15  O   -0.411223
    16  O   -0.631501
    17  N   -0.619333
    18  H    0.339904
    19  C   -0.005408
    20  H    0.162264
    21  C    0.657908
    22  C   -0.307776
    23  H    0.160452
    24  H    0.148758
    25  O   -0.568392
    26  C   -0.082988
    27  H    0.133811
    28  C   -0.448880
    29  H    0.153389
    30  H    0.159088
    31  H    0.133532
    32  C   -0.445759
    33  H    0.150858
    34  H    0.146542
    35  H    0.155947
    36  N   -0.611853
    37  H    0.363679
    38  C   -0.039040
    39  H    0.192749
    40  C    0.595578
    41  C   -0.281428
    42  H    0.170578
    43  H    0.177410
    44  O   -0.455677
    45  C   -0.277928
    46  H    0.193962
    47  H    0.148560
    48  C   -0.193309
    49  H    0.181355
    50  H    0.198559
    51  N   -0.607900
    52  H    0.394249
    53  N   -0.756395
    54  H    0.383860
    55  H    0.391818
    56  N   -0.779953
    57  H    0.375717
    58  H    0.398403
    59  C    0.823229
    60  O   -0.570441
    61  H    0.431849
    62  H    0.426598
 Sum of Mulliken charges =   1.00000

 Dipole moment (field-independent basis, Debye):
    X=             20.8572    Y=             -1.2041    Z=            -13.9659  Tot=             25.1300
 Quadrupole moment (field-independent basis, Debye-Ang):
   XX=            -41.9929   YY=           -144.9520   ZZ=            -98.7090
   XY=             -6.4625   XZ=            -82.6351   YZ=             10.3274

 Normal termination of Gaussian 16 at Tue May 24 03:40:53 2022.
