 Gaussian 16, Revision C.01,
 Gaussian 16:  ES64L-G16RevC.01  3-Jul-2019

 -------------------------------------------------------------------
 # B3LYP/6-31G* guess=read geom=check nosymm integral(ultrafinegrid)
 -------------------------------------------------------------------

 ------------------------------------------------------
 Candidate Structure: Conf:433 Charge calc in gas phase
 ------------------------------------------------------
 Structure from the checkpoint file:  "conf-433.chk"
 Charge =  1 Multiplicity = 1

                          Input orientation:
 ---------------------------------------------------------------------
 Center     Atomic      Atomic             Coordinates (Angstroms)
 Number     Number       Type             X           Y           Z
 ---------------------------------------------------------------------
      1          7           0       -1.078072   -0.345721   -4.208170
      2          1           0       -1.000030    0.663230   -4.320465
      3          1           0       -0.891449   -0.793213   -5.101644
      4          6           0       -0.167537   -0.791839   -3.162428
      5          1           0       -0.367622   -1.854253   -2.968691
      6          6           0       -0.460095    0.043916   -1.911531
      7          6           0        1.349982   -0.592199   -3.425223
      8          1           0        1.906042   -0.846086   -2.513133
      9          1           0        1.503523    0.476956   -3.606558
     10          8           0       -0.367585    1.270779   -1.955133
     11          6           0        1.896028   -1.395406   -4.602559
     12          1           0        1.850109   -2.476812   -4.431490
     13          1           0        1.304956   -1.209567   -5.512210
     14          6           0        3.318134   -1.033546   -4.949872
     15          8           0        3.894237   -0.006748   -4.600881
     16          8           0        3.905769   -1.952868   -5.719535
     17          7           0       -0.750543   -0.630459   -0.767468
     18          1           0       -0.622512   -1.633922   -0.766128
     19          6           0       -0.625224    0.048923    0.515363
     20          1           0       -1.258895    0.939507    0.481115
     21          6           0        0.844908    0.485026    0.691596
     22          6           0       -1.050854   -0.873129    1.671971
     23          1           0       -0.874259   -0.336117    2.613891
     24          1           0       -0.373232   -1.738815    1.684339
     25          8           0        1.777512   -0.205359    0.285143
     26          6           0       -2.516101   -1.356425    1.636251
     27          1           0       -2.681736   -1.877880    0.682424
     28          6           0       -2.753415   -2.364089    2.771419
     29          1           0       -2.610326   -1.893047    3.752241
     30          1           0       -3.775664   -2.756188    2.738199
     31          1           0       -2.065320   -3.215275    2.706203
     32          6           0       -3.517673   -0.195304    1.716692
     33          1           0       -3.372888    0.386173    2.636726
     34          1           0       -3.431509    0.488399    0.864894
     35          1           0       -4.545408   -0.574113    1.724760
     36          7           0        1.028704    1.674137    1.322787
     37          1           0        0.243913    2.177900    1.719703
     38          6           0        2.346449    2.170807    1.665216
     39          1           0        3.009356    1.311659    1.814456
     40          6           0        2.224809    2.937870    2.979012
     41          6           0        2.959972    3.089591    0.577013
     42          1           0        3.920118    3.459591    0.957064
     43          1           0        2.303923    3.960836    0.446763
     44          8           0        1.174108    3.260577    3.486801
     45          6           0        3.165903    2.387346   -0.774082
     46          1           0        3.778793    1.489577   -0.635932
     47          1           0        2.201015    2.065237   -1.179510
     48          6           0        3.850333    3.330315   -1.766309
     49          1           0        4.786580    3.709725   -1.336531
     50          1           0        3.196497    4.188002   -1.976886
     51          7           0        4.173294    2.638971   -3.026689
     52          1           0        3.786159    1.712858   -3.199105
     53          7           0        5.398440    4.412109   -3.895310
     54          1           0        6.145512    4.743465   -4.487592
     55          1           0        5.063165    5.036789   -3.178311
     56          7           0        5.372039    2.371904   -4.994708
     57          1           0        5.729529    2.801529   -5.835744
     58          1           0        5.033298    1.410961   -5.051310
     59          6           0        4.968442    3.139448   -3.970480
     60          8           0        3.431979    3.241696    3.491764
     61          1           0        3.276222    3.742337    4.316090
     62          1           0        4.817607   -1.664338   -5.915186
 ---------------------------------------------------------------------

 SCF Done:  E(RB3LYP) =  -1447.43143389     A.U. after    2 cycles

 Alpha  occ. eigenvalues --  -19.32236 -19.29090 -19.27765 -19.23555 -19.19898
 Alpha  occ. eigenvalues --  -19.19845 -14.52418 -14.51565 -14.50889 -14.44698
 Alpha  occ. eigenvalues --  -14.44273 -14.39749 -10.48103 -10.45403 -10.41553
 Alpha  occ. eigenvalues --  -10.36985 -10.36682 -10.35912 -10.33414 -10.31276
 Alpha  occ. eigenvalues --  -10.31168 -10.31090 -10.29787 -10.29693 -10.28444
 Alpha  occ. eigenvalues --  -10.26629 -10.25950 -10.23598 -10.23491  -1.23570
 Alpha  occ. eigenvalues --   -1.20081  -1.16661  -1.14420  -1.12394  -1.11382
 Alpha  occ. eigenvalues --   -1.11018  -1.05810  -1.04760  -1.01415  -1.00684
 Alpha  occ. eigenvalues --   -0.97252  -0.91387  -0.89759  -0.88381  -0.86468
 Alpha  occ. eigenvalues --   -0.82990  -0.80940  -0.80210  -0.78063  -0.75034
 Alpha  occ. eigenvalues --   -0.74486  -0.74371  -0.73141  -0.71657  -0.70215
 Alpha  occ. eigenvalues --   -0.70029  -0.68361  -0.67342  -0.66215  -0.65845
 Alpha  occ. eigenvalues --   -0.65002  -0.63496  -0.62102  -0.61792  -0.61141
 Alpha  occ. eigenvalues --   -0.60702  -0.59786  -0.59731  -0.58869  -0.58687
 Alpha  occ. eigenvalues --   -0.57021  -0.56707  -0.56182  -0.55402  -0.54764
 Alpha  occ. eigenvalues --   -0.53876  -0.53637  -0.53407  -0.52292  -0.51929
 Alpha  occ. eigenvalues --   -0.50997  -0.50733  -0.50277  -0.49207  -0.48772
 Alpha  occ. eigenvalues --   -0.48577  -0.48020  -0.47685  -0.47211  -0.46485
 Alpha  occ. eigenvalues --   -0.46133  -0.45895  -0.44994  -0.44852  -0.44566
 Alpha  occ. eigenvalues --   -0.44289  -0.44097  -0.43718  -0.43032  -0.42746
 Alpha  occ. eigenvalues --   -0.41424  -0.41174  -0.40555  -0.39662  -0.39303
 Alpha  occ. eigenvalues --   -0.39227  -0.37265  -0.34966  -0.34412  -0.33870
 Alpha  occ. eigenvalues --   -0.32954  -0.31387
 Alpha virt. eigenvalues --   -0.12201  -0.11718  -0.08552  -0.07696  -0.06878
 Alpha virt. eigenvalues --   -0.05505  -0.04448  -0.04112  -0.02926  -0.01462
 Alpha virt. eigenvalues --   -0.01130  -0.00766  -0.00396   0.00189   0.00810

 Mulliken charges:
               1
     1  N   -0.708832
     2  H    0.318265
     3  H    0.304906
     4  C   -0.070437
     5  H    0.140087
     6  C    0.658001
     7  C   -0.285967
     8  H    0.177545
     9  H    0.151964
    10  O   -0.552855
    11  C   -0.366860
    12  H    0.202062
    13  H    0.186736
    14  C    0.606689
    15  O   -0.513654
    16  O   -0.525418
    17  N   -0.585380
    18  H    0.338014
    19  C   -0.056301
    20  H    0.177238
    21  C    0.641582
    22  C   -0.295356
    23  H    0.152662
    24  H    0.150665
    25  O   -0.555320
    26  C   -0.071033
    27  H    0.131597
    28  C   -0.445202
    29  H    0.148791
    30  H    0.157068
    31  H    0.144165
    32  C   -0.455749
    33  H    0.145098
    34  H    0.152732
    35  H    0.159978
    36  N   -0.607115
    37  H    0.356061
    38  C   -0.039770
    39  H    0.204049
    40  C    0.583474
    41  C   -0.274849
    42  H    0.166625
    43  H    0.157994
    44  O   -0.453294
    45  C   -0.321174
    46  H    0.178368
    47  H    0.207238
    48  C   -0.143844
    49  H    0.172544
    50  H    0.180707
    51  N   -0.631007
    52  H    0.401371
    53  N   -0.764482
    54  H    0.381113
    55  H    0.389162
    56  N   -0.787086
    57  H    0.367789
    58  H    0.406996
    59  C    0.823010
    60  O   -0.562451
    61  H    0.428787
    62  H    0.422303
 Sum of Mulliken charges =   1.00000

 Dipole moment (field-independent basis, Debye):
    X=             20.1325    Y=              9.9543    Z=            -15.0745  Tot=             27.0489
 Quadrupole moment (field-independent basis, Debye-Ang):
   XX=            -65.9186   YY=           -108.8989   ZZ=            -65.9466
   XY=             69.1854   XZ=            -85.9725   YZ=            -26.2405

 Normal termination of Gaussian 16 at Tue May 24 03:35:43 2022.
