 Gaussian 16, Revision C.01,
 Gaussian 16:  ES64L-G16RevC.01  3-Jul-2019

 -------------------------------------------------------------------
 # B3LYP/6-31G* guess=read geom=check nosymm integral(ultrafinegrid)
 -------------------------------------------------------------------

 ------------------------------------------------------
 Candidate Structure: Conf:879 Charge calc in gas phase
 ------------------------------------------------------
 Structure from the checkpoint file:  "conf-879.chk"
 Charge =  1 Multiplicity = 1

                          Input orientation:
 ---------------------------------------------------------------------
 Center     Atomic      Atomic             Coordinates (Angstroms)
 Number     Number       Type             X           Y           Z
 ---------------------------------------------------------------------
      1          7           0       -0.294250   -1.630382   -3.213728
      2          1           0       -0.546793   -1.989830   -4.133989
      3          1           0        0.724789   -1.675703   -3.187476
      4          6           0       -0.715304   -0.226238   -3.140877
      5          1           0       -0.233273    0.412726   -3.895119
      6          6           0       -0.351436    0.376356   -1.778140
      7          6           0       -2.248816   -0.091739   -3.299173
      8          1           0       -2.487801    0.976725   -3.312497
      9          1           0       -2.735237   -0.521951   -2.416097
     10          8           0       -0.275270    1.604516   -1.620906
     11          6           0       -2.864478   -0.786326   -4.536246
     12          1           0       -2.793331   -1.872938   -4.420249
     13          1           0       -3.924230   -0.526976   -4.598163
     14          6           0       -2.170413   -0.432304   -5.832392
     15          8           0       -1.064158   -0.827229   -6.151006
     16          8           0       -2.898676    0.393688   -6.609777
     17          7           0       -0.167821   -0.523229   -0.788525
     18          1           0       -0.278101   -1.499924   -1.049927
     19          6           0       -0.004865   -0.161587    0.623417
     20          1           0       -0.735558    0.625102    0.841491
     21          6           0        1.412214    0.415897    0.860537
     22          6           0       -0.261024   -1.392687    1.499784
     23          1           0        0.516012   -2.132932    1.274167
     24          1           0       -1.226976   -1.822927    1.199443
     25          8           0        2.361000   -0.265391    1.225084
     26          6           0       -0.275545   -1.134852    3.020514
     27          1           0        0.697015   -0.706189    3.295140
     28          6           0       -1.378100   -0.153073    3.447332
     29          1           0       -2.369813   -0.517057    3.148130
     30          1           0       -1.385965   -0.034717    4.536614
     31          1           0       -1.241201    0.845369    3.015866
     32          6           0       -0.423204   -2.471083    3.763983
     33          1           0       -1.380309   -2.952954    3.525443
     34          1           0        0.379643   -3.167840    3.497148
     35          1           0       -0.389648   -2.320782    4.848697
     36          7           0        1.494991    1.765512    0.632023
     37          1           0        0.735995    2.172110    0.087566
     38          6           0        2.750644    2.471903    0.754960
     39          1           0        3.490892    1.702257    1.014704
     40          6           0        2.747447    3.482838    1.910986
     41          6           0        3.174493    3.199779   -0.531207
     42          1           0        4.144074    3.662574   -0.316771
     43          1           0        2.457875    4.016366   -0.713334
     44          8           0        3.246904    4.588277    1.844363
     45          6           0        3.255616    2.313617   -1.775223
     46          1           0        3.924955    1.461147   -1.599953
     47          1           0        2.264445    1.903154   -1.998542
     48          6           0        3.708779    3.081558   -3.021971
     49          1           0        3.060429    3.941548   -3.216357
     50          1           0        3.659609    2.440524   -3.907127
     51          7           0        5.101720    3.582473   -2.958278
     52          1           0        5.832943    2.907095   -3.145396
     53          7           0        4.667433    5.726489   -2.152639
     54          1           0        4.917337    6.705166   -2.119252
     55          1           0        3.889685    5.428487   -1.577596
     56          7           0        6.754651    5.204327   -3.006116
     57          1           0        7.176718    6.019857   -2.584416
     58          1           0        7.322553    4.667913   -3.646953
     59          6           0        5.500800    4.828360   -2.696480
     60          8           0        2.158568    2.997715    3.013980
     61          1           0        2.230138    3.686763    3.702297
     62          1           0       -2.373848    0.558301   -7.416999
 ---------------------------------------------------------------------

 SCF Done:  E(RB3LYP) =  -1447.41066278     A.U. after    2 cycles

 Alpha  occ. eigenvalues --  -19.28428 -19.27210 -19.23115 -19.21526 -19.20095
 Alpha  occ. eigenvalues --  -19.19585 -14.54525 -14.54474 -14.54091 -14.44156
 Alpha  occ. eigenvalues --  -14.43858 -14.40031 -10.50798 -10.41100 -10.39710
 Alpha  occ. eigenvalues --  -10.37387 -10.36745 -10.36453 -10.33344 -10.31018
 Alpha  occ. eigenvalues --  -10.30959 -10.30808 -10.30342 -10.27671 -10.27564
 Alpha  occ. eigenvalues --  -10.25330 -10.24866 -10.23131 -10.22605  -1.19571
 Alpha  occ. eigenvalues --   -1.19068  -1.18072  -1.11879  -1.11046  -1.10558
 Alpha  occ. eigenvalues --   -1.08934  -1.08275  -1.07191  -1.01119  -1.00801
 Alpha  occ. eigenvalues --   -0.96920  -0.92574  -0.87867  -0.86914  -0.86806
 Alpha  occ. eigenvalues --   -0.82894  -0.81667  -0.79593  -0.78813  -0.76593
 Alpha  occ. eigenvalues --   -0.74218  -0.73916  -0.72719  -0.72017  -0.71694
 Alpha  occ. eigenvalues --   -0.68732  -0.67971  -0.67549  -0.67276  -0.65847
 Alpha  occ. eigenvalues --   -0.65261  -0.62591  -0.61842  -0.61229  -0.60454
 Alpha  occ. eigenvalues --   -0.59703  -0.58044  -0.57932  -0.57626  -0.57112
 Alpha  occ. eigenvalues --   -0.56656  -0.56469  -0.55641  -0.55162  -0.54444
 Alpha  occ. eigenvalues --   -0.53141  -0.52888  -0.51968  -0.51526  -0.50847
 Alpha  occ. eigenvalues --   -0.49857  -0.49336  -0.49097  -0.48797  -0.48730
 Alpha  occ. eigenvalues --   -0.48247  -0.47780  -0.47310  -0.46509  -0.46015
 Alpha  occ. eigenvalues --   -0.45540  -0.45487  -0.45068  -0.44242  -0.43943
 Alpha  occ. eigenvalues --   -0.43647  -0.43261  -0.42750  -0.42474  -0.42089
 Alpha  occ. eigenvalues --   -0.40688  -0.39146  -0.38979  -0.38449  -0.38328
 Alpha  occ. eigenvalues --   -0.37636  -0.35647  -0.35026  -0.34286  -0.33118
 Alpha  occ. eigenvalues --   -0.32644  -0.31925
 Alpha virt. eigenvalues --   -0.15008  -0.10368  -0.08402  -0.07209  -0.06326
 Alpha virt. eigenvalues --   -0.06222  -0.05794  -0.05433  -0.04765  -0.01584
 Alpha virt. eigenvalues --   -0.00812  -0.00154   0.00479   0.00851   0.01098

 Mulliken charges:
               1
     1  N   -0.761831
     2  H    0.339188
     3  H    0.307211
     4  C   -0.041845
     5  H    0.145030
     6  C    0.595353
     7  C   -0.272151
     8  H    0.176454
     9  H    0.163675
    10  O   -0.575961
    11  C   -0.362850
    12  H    0.189068
    13  H    0.188841
    14  C    0.581548
    15  O   -0.472519
    16  O   -0.549134
    17  N   -0.603996
    18  H    0.367584
    19  C   -0.041258
    20  H    0.171503
    21  C    0.622209
    22  C   -0.289683
    23  H    0.162846
    24  H    0.139880
    25  O   -0.513369
    26  C   -0.084404
    27  H    0.153215
    28  C   -0.452083
    29  H    0.144274
    30  H    0.154327
    31  H    0.139603
    32  C   -0.446704
    33  H    0.143223
    34  H    0.150416
    35  H    0.151272
    36  N   -0.610025
    37  H    0.365973
    38  C   -0.059152
    39  H    0.215768
    40  C    0.605336
    41  C   -0.307065
    42  H    0.152542
    43  H    0.149389
    44  O   -0.482024
    45  C   -0.273494
    46  H    0.163635
    47  H    0.203491
    48  C   -0.187896
    49  H    0.192104
    50  H    0.200233
    51  N   -0.582543
    52  H    0.368272
    53  N   -0.749046
    54  H    0.386117
    55  H    0.405285
    56  N   -0.757626
    57  H    0.388453
    58  H    0.386756
    59  C    0.810744
    60  O   -0.543961
    61  H    0.424461
    62  H    0.415341
 Sum of Mulliken charges =   1.00000

 Dipole moment (field-independent basis, Debye):
    X=             19.7040    Y=             18.5203    Z=            -13.3242  Tot=             30.1460
 Quadrupole moment (field-independent basis, Debye-Ang):
   XX=            -27.7375   YY=            -69.4607   ZZ=           -108.6424
   XY=            114.6182   XZ=            -61.4233   YZ=            -47.2980

 Normal termination of Gaussian 16 at Tue May 24 03:40:38 2022.
