 Gaussian 16, Revision C.01,
 Gaussian 16:  ES64L-G16RevC.01  3-Jul-2019

 -------------------------------------------------------------------
 # B3LYP/6-31G* guess=read geom=check nosymm integral(ultrafinegrid)
 -------------------------------------------------------------------

 ------------------------------------------------------
 Candidate Structure: Conf:883 Charge calc in gas phase
 ------------------------------------------------------
 Structure from the checkpoint file:  "conf-883.chk"
 Charge =  1 Multiplicity = 1

                          Input orientation:
 ---------------------------------------------------------------------
 Center     Atomic      Atomic             Coordinates (Angstroms)
 Number     Number       Type             X           Y           Z
 ---------------------------------------------------------------------
      1          7           0       -1.640869   -0.342840   -4.516964
      2          1           0       -2.629468   -0.400983   -4.279228
      3          1           0       -1.411653    0.652023   -4.544085
      4          6           0       -0.830295   -0.957383   -3.468071
      5          1           0       -1.302506   -1.903182   -3.173702
      6          6           0       -0.657046   -0.036797   -2.249366
      7          6           0        0.590642   -1.243602   -4.014580
      8          1           0        1.211807   -1.666876   -3.214355
      9          1           0        1.027909   -0.277964   -4.290773
     10          8           0       -0.426620    1.164204   -2.407953
     11          6           0        0.552991   -2.162161   -5.238646
     12          1           0        0.226983   -3.175077   -4.983341
     13          1           0       -0.197357   -1.756934   -5.933020
     14          6           0        1.830089   -2.307334   -6.022100
     15          8           0        2.168615   -3.267711   -6.664403
     16          8           0        2.630572   -1.163953   -6.021909
     17          7           0       -0.718774   -0.609239   -1.017794
     18          1           0       -0.733159   -1.619594   -0.957006
     19          6           0       -0.233107    0.113785    0.157717
     20          1           0       -0.752668    1.075413    0.180708
     21          6           0        1.284112    0.329963   -0.011292
     22          6           0       -0.532014   -0.700465    1.427830
     23          1           0        0.030884   -1.641196    1.358294
     24          1           0       -1.599951   -0.957498    1.420010
     25          8           0        2.027013   -0.609532   -0.290059
     26          6           0       -0.186885   -0.003770    2.760301
     27          1           0        0.866706    0.309715    2.722926
     28          6           0       -1.047006    1.245062    3.010396
     29          1           0       -2.113690    0.988504    3.034368
     30          1           0       -0.794380    1.700629    3.973960
     31          1           0       -0.907823    2.015626    2.242868
     32          6           0       -0.336494   -1.002231    3.918261
     33          1           0       -1.372132   -1.355284    4.002218
     34          1           0        0.306425   -1.878736    3.777725
     35          1           0       -0.066885   -0.537667    4.872918
     36          7           0        1.733630    1.604714    0.157079
     37          1           0        1.067776    2.347680    0.318621
     38          6           0        3.135376    1.937854   -0.009101
     39          1           0        3.674730    0.993703    0.131082
     40          6           0        3.664916    2.900344    1.051575
     41          6           0        3.485449    2.483091   -1.415360
     42          1           0        4.572280    2.623680   -1.431329
     43          1           0        3.038823    3.477695   -1.549256
     44          8           0        4.783158    3.362035    1.018033
     45          6           0        3.017383    1.548896   -2.540008
     46          1           0        3.228551    0.507196   -2.272816
     47          1           0        1.929258    1.616026   -2.648556
     48          6           0        3.639991    1.862378   -3.903478
     49          1           0        3.529739    2.918747   -4.162857
     50          1           0        3.149513    1.296270   -4.701919
     51          7           0        5.096508    1.590510   -3.954819
     52          1           0        5.721050    2.382669   -3.883049
     53          7           0        4.962381   -0.719157   -4.238284
     54          1           0        5.333194   -1.630607   -4.008446
     55          1           0        4.029192   -0.695208   -4.649981
     56          7           0        6.969014    0.261620   -3.640350
     57          1           0        7.482308   -0.580772   -3.857432
     58          1           0        7.479400    1.013163   -3.199085
     59          6           0        5.662009    0.381474   -3.942278
     60          8           0        2.766271    3.183971    2.015923
     61          1           0        3.205735    3.796211    2.637986
     62          1           0        3.287678   -1.344934   -6.723435
 ---------------------------------------------------------------------

 SCF Done:  E(RB3LYP) =  -1447.41175007     A.U. after    3 cycles

 Alpha  occ. eigenvalues --  -19.30962 -19.29550 -19.24291 -19.23472 -19.20968
 Alpha  occ. eigenvalues --  -19.20937 -14.53596 -14.53494 -14.52856 -14.46035
 Alpha  occ. eigenvalues --  -14.45488 -14.40314 -10.49837 -10.42409 -10.41888
 Alpha  occ. eigenvalues --  -10.38050 -10.37543 -10.36483 -10.34103 -10.32341
 Alpha  occ. eigenvalues --  -10.31795 -10.30050 -10.29804 -10.29191 -10.28952
 Alpha  occ. eigenvalues --  -10.27217 -10.26837 -10.24767 -10.24214  -1.20775
 Alpha  occ. eigenvalues --   -1.20341  -1.18122  -1.13340  -1.12295  -1.11890
 Alpha  occ. eigenvalues --   -1.11284  -1.07348  -1.06145  -1.02501  -1.01675
 Alpha  occ. eigenvalues --   -0.97872  -0.91740  -0.89369  -0.88648  -0.87144
 Alpha  occ. eigenvalues --   -0.83650  -0.81939  -0.80132  -0.79010  -0.75690
 Alpha  occ. eigenvalues --   -0.75515  -0.74016  -0.73865  -0.72394  -0.70853
 Alpha  occ. eigenvalues --   -0.70079  -0.69470  -0.68107  -0.67161  -0.66906
 Alpha  occ. eigenvalues --   -0.66414  -0.63753  -0.62810  -0.62697  -0.61092
 Alpha  occ. eigenvalues --   -0.59668  -0.59145  -0.58992  -0.58841  -0.57872
 Alpha  occ. eigenvalues --   -0.57193  -0.56839  -0.56344  -0.55967  -0.55198
 Alpha  occ. eigenvalues --   -0.54652  -0.53923  -0.53555  -0.53216  -0.51578
 Alpha  occ. eigenvalues --   -0.51174  -0.50666  -0.50630  -0.50079  -0.49651
 Alpha  occ. eigenvalues --   -0.49610  -0.48509  -0.48273  -0.47546  -0.47262
 Alpha  occ. eigenvalues --   -0.46204  -0.45667  -0.45480  -0.45376  -0.44891
 Alpha  occ. eigenvalues --   -0.44528  -0.44185  -0.43830  -0.43659  -0.42419
 Alpha  occ. eigenvalues --   -0.41892  -0.41305  -0.40655  -0.40196  -0.40083
 Alpha  occ. eigenvalues --   -0.37987  -0.37603  -0.36399  -0.35595  -0.34909
 Alpha  occ. eigenvalues --   -0.33702  -0.32424
 Alpha virt. eigenvalues --   -0.13901  -0.09926  -0.09523  -0.08811  -0.07972
 Alpha virt. eigenvalues --   -0.06737  -0.06185  -0.05666  -0.04174  -0.02507
 Alpha virt. eigenvalues --   -0.01621  -0.01386  -0.00848  -0.00240   0.01603

 Mulliken charges:
               1
     1  N   -0.706591
     2  H    0.319287
     3  H    0.320319
     4  C   -0.080888
     5  H    0.144250
     6  C    0.621101
     7  C   -0.287462
     8  H    0.157835
     9  H    0.159709
    10  O   -0.549794
    11  C   -0.353242
    12  H    0.188326
    13  H    0.234592
    14  C    0.572394
    15  O   -0.424598
    16  O   -0.611349
    17  N   -0.596384
    18  H    0.340036
    19  C   -0.038621
    20  H    0.169344
    21  C    0.643749
    22  C   -0.294702
    23  H    0.155585
    24  H    0.155815
    25  O   -0.553000
    26  C   -0.086537
    27  H    0.137611
    28  C   -0.446785
    29  H    0.153713
    30  H    0.158826
    31  H    0.129278
    32  C   -0.446156
    33  H    0.150195
    34  H    0.149450
    35  H    0.155314
    36  N   -0.594436
    37  H    0.350103
    38  C   -0.065157
    39  H    0.212150
    40  C    0.597426
    41  C   -0.266441
    42  H    0.148371
    43  H    0.158331
    44  O   -0.458195
    45  C   -0.306490
    46  H    0.170996
    47  H    0.216375
    48  C   -0.195684
    49  H    0.193083
    50  H    0.195835
    51  N   -0.589315
    52  H    0.367705
    53  N   -0.783918
    54  H    0.380585
    55  H    0.422840
    56  N   -0.762597
    57  H    0.385109
    58  H    0.385593
    59  C    0.817677
    60  O   -0.563235
    61  H    0.428014
    62  H    0.414656
 Sum of Mulliken charges =   1.00000

 Dipole moment (field-independent basis, Debye):
    X=             19.2161    Y=              3.0166    Z=            -12.7465  Tot=             23.2558
 Quadrupole moment (field-independent basis, Debye-Ang):
   XX=            -34.2035   YY=           -156.2145   ZZ=           -105.8591
   XY=             15.1290   XZ=            -81.4608   YZ=             -5.9001

 Normal termination of Gaussian 16 at Tue May 24 03:40:53 2022.
