 Gaussian 16, Revision C.01,
 Gaussian 16:  ES64L-G16RevC.01  3-Jul-2019

 -------------------------------------------------------------------
 # B3LYP/6-31G* guess=read geom=check nosymm integral(ultrafinegrid)
 -------------------------------------------------------------------

 ------------------------------------------------------
 Candidate Structure: Conf:474 Charge calc in gas phase
 ------------------------------------------------------
 Structure from the checkpoint file:  "conf-474.chk"
 Charge =  1 Multiplicity = 1

                          Input orientation:
 ---------------------------------------------------------------------
 Center     Atomic      Atomic             Coordinates (Angstroms)
 Number     Number       Type             X           Y           Z
 ---------------------------------------------------------------------
      1          7           0       -2.656108   -1.320282   -3.707392
      2          1           0       -3.174075   -0.444945   -3.763153
      3          1           0       -2.708479   -1.787859   -4.608935
      4          6           0       -1.282922   -1.042691   -3.313120
      5          1           0       -0.790803   -2.004044   -3.110729
      6          6           0       -1.332851   -0.199657   -2.030416
      7          6           0       -0.429168   -0.231267   -4.330168
      8          1           0        0.497561    0.115118   -3.852708
      9          1           0       -0.995812    0.665345   -4.600982
     10          8           0       -1.925582    0.874869   -2.018543
     11          6           0       -0.051504   -0.997887   -5.616968
     12          1           0       -0.929932   -1.468626   -6.066695
     13          1           0        0.365818   -0.294383   -6.345284
     14          6           0        1.003922   -2.041528   -5.346495
     15          8           0        2.184057   -1.810085   -5.105145
     16          8           0        0.524097   -3.289622   -5.353063
     17          7           0       -0.641873   -0.697352   -0.966044
     18          1           0       -0.092935   -1.539177   -1.089238
     19          6           0       -0.258357    0.121199    0.181836
     20          1           0       -0.748937    1.087331    0.044857
     21          6           0        1.266521    0.269752    0.086843
     22          6           0       -0.661930   -0.507396    1.529780
     23          1           0       -0.305475    0.155783    2.331831
     24          1           0       -0.115149   -1.452911    1.643716
     25          8           0        1.976719   -0.709464   -0.159354
     26          6           0       -2.173214   -0.755145    1.706268
     27          1           0       -2.494284   -1.430740    0.901448
     28          6           0       -2.424694   -1.461875    3.046940
     29          1           0       -2.131362   -0.824423    3.891012
     30          1           0       -3.486746   -1.701814    3.167262
     31          1           0       -1.859010   -2.398245    3.122533
     32          6           0       -2.999690    0.535675    1.599205
     33          1           0       -2.670591    1.277844    2.339220
     34          1           0       -2.934341    0.987246    0.603494
     35          1           0       -4.057945    0.328198    1.792549
     36          7           0        1.772683    1.523585    0.218522
     37          1           0        1.189748    2.286275    0.545377
     38          6           0        3.198690    1.782239    0.136064
     39          1           0        3.720223    0.863141    0.419332
     40          6           0        3.542468    2.872853    1.144445
     41          6           0        3.651589    2.232649   -1.284796
     42          1           0        4.745261    2.320370   -1.283535
     43          1           0        3.261300    3.242119   -1.463437
     44          8           0        2.725429    3.572765    1.697197
     45          6           0        3.165681    1.331958   -2.431935
     46          1           0        2.081179    1.209465   -2.347400
     47          1           0        3.336835    1.851299   -3.383349
     48          6           0        3.787703   -0.071447   -2.510606
     49          1           0        3.173035   -0.727684   -3.130146
     50          1           0        3.821785   -0.544542   -1.528703
     51          7           0        5.163936   -0.072064   -3.050311
     52          1           0        5.925511   -0.060118   -2.385366
     53          7           0        4.592934   -0.264367   -5.303572
     54          1           0        4.853148   -0.118092   -6.268530
     55          1           0        3.682975   -0.705191   -5.137729
     56          7           0        6.773936    0.207933   -4.693127
     57          1           0        7.123700   -0.032362   -5.609351
     58          1           0        7.446087    0.544296   -4.019207
     59          6           0        5.496728   -0.052519   -4.343330
     60          8           0        4.874305    2.987307    1.312183
     61          1           0        5.022675    3.716175    1.945963
     62          1           0        1.259701   -3.900054   -5.148117
 ---------------------------------------------------------------------

 SCF Done:  E(RB3LYP) =  -1447.41924739     A.U. after    1 cycles

 Alpha  occ. eigenvalues --  -19.31821 -19.30040 -19.26825 -19.24434 -19.21588
 Alpha  occ. eigenvalues --  -19.19475 -14.53092 -14.52877 -14.51814 -14.46373
 Alpha  occ. eigenvalues --  -14.44313 -14.39308 -10.49159 -10.44713 -10.42491
 Alpha  occ. eigenvalues --  -10.38531 -10.36678 -10.35143 -10.34599 -10.31538
 Alpha  occ. eigenvalues --  -10.31168 -10.30895 -10.30784 -10.30735 -10.29255
 Alpha  occ. eigenvalues --  -10.25967 -10.25034 -10.22845 -10.22596  -1.22980
 Alpha  occ. eigenvalues --   -1.20976  -1.17439  -1.13660  -1.13626  -1.12129
 Alpha  occ. eigenvalues --   -1.11350  -1.06711  -1.05380  -1.02841  -1.00691
 Alpha  occ. eigenvalues --   -0.97000  -0.91830  -0.89564  -0.88057  -0.86840
 Alpha  occ. eigenvalues --   -0.83056  -0.81801  -0.80221  -0.78733  -0.75122
 Alpha  occ. eigenvalues --   -0.74752  -0.73765  -0.73457  -0.73349  -0.70956
 Alpha  occ. eigenvalues --   -0.70235  -0.68749  -0.68300  -0.66785  -0.66463
 Alpha  occ. eigenvalues --   -0.65717  -0.63243  -0.62548  -0.61730  -0.61207
 Alpha  occ. eigenvalues --   -0.60843  -0.60196  -0.59754  -0.58170  -0.57858
 Alpha  occ. eigenvalues --   -0.57332  -0.56898  -0.55924  -0.55433  -0.54816
 Alpha  occ. eigenvalues --   -0.54563  -0.54191  -0.53507  -0.53164  -0.52240
 Alpha  occ. eigenvalues --   -0.51736  -0.51006  -0.50607  -0.50092  -0.49601
 Alpha  occ. eigenvalues --   -0.49326  -0.47941  -0.47446  -0.47334  -0.46792
 Alpha  occ. eigenvalues --   -0.46405  -0.46018  -0.45477  -0.45252  -0.44281
 Alpha  occ. eigenvalues --   -0.44210  -0.43912  -0.43779  -0.43663  -0.42326
 Alpha  occ. eigenvalues --   -0.42091  -0.41060  -0.40382  -0.39104  -0.38532
 Alpha  occ. eigenvalues --   -0.38411  -0.38115  -0.36156  -0.35741  -0.33734
 Alpha  occ. eigenvalues --   -0.33046  -0.31110
 Alpha virt. eigenvalues --   -0.13083  -0.11822  -0.09560  -0.09318  -0.07909
 Alpha virt. eigenvalues --   -0.05503  -0.05338  -0.04760  -0.03800  -0.02586
 Alpha virt. eigenvalues --   -0.01901  -0.01532  -0.00154   0.00307   0.00972

 Mulliken charges:
               1
     1  N   -0.708460
     2  H    0.325302
     3  H    0.307125
     4  C   -0.062959
     5  H    0.135311
     6  C    0.631830
     7  C   -0.293635
     8  H    0.142329
     9  H    0.184449
    10  O   -0.526593
    11  C   -0.343748
    12  H    0.182577
    13  H    0.182840
    14  C    0.587088
    15  O   -0.506612
    16  O   -0.523289
    17  N   -0.589647
    18  H    0.338448
    19  C   -0.081032
    20  H    0.188791
    21  C    0.624022
    22  C   -0.263455
    23  H    0.142150
    24  H    0.149333
    25  O   -0.553786
    26  C   -0.070065
    27  H    0.141895
    28  C   -0.445539
    29  H    0.144775
    30  H    0.155478
    31  H    0.142427
    32  C   -0.469008
    33  H    0.137003
    34  H    0.170525
    35  H    0.156147
    36  N   -0.605869
    37  H    0.363361
    38  C   -0.042536
    39  H    0.196246
    40  C    0.589073
    41  C   -0.275333
    42  H    0.150493
    43  H    0.171194
    44  O   -0.446907
    45  C   -0.277742
    46  H    0.185984
    47  H    0.153499
    48  C   -0.203670
    49  H    0.195735
    50  H    0.224315
    51  N   -0.596367
    52  H    0.361935
    53  N   -0.784748
    54  H    0.371336
    55  H    0.437232
    56  N   -0.764773
    57  H    0.381597
    58  H    0.379813
    59  C    0.814569
    60  O   -0.567131
    61  H    0.431065
    62  H    0.425612
 Sum of Mulliken charges =   1.00000

 Dipole moment (field-independent basis, Debye):
    X=             23.1170    Y=             -0.3129    Z=            -18.9283  Tot=             29.8793
 Quadrupole moment (field-independent basis, Debye-Ang):
   XX=            -32.6585   YY=           -157.8087   ZZ=            -56.4484
   XY=             13.9680   XZ=            -85.9073   YZ=             15.1427

 Normal termination of Gaussian 16 at Tue May 24 03:35:46 2022.
