 Gaussian 16, Revision C.01,
 Gaussian 16:  ES64L-G16RevC.01  3-Jul-2019

 -------------------------------------------------------------------
 # B3LYP/6-31G* guess=read geom=check nosymm integral(ultrafinegrid)
 -------------------------------------------------------------------

 ------------------------------------------------------
 Candidate Structure: Conf:966 Charge calc in gas phase
 ------------------------------------------------------
 Structure from the checkpoint file:  "conf-966.chk"
 Charge =  1 Multiplicity = 1

                          Input orientation:
 ---------------------------------------------------------------------
 Center     Atomic      Atomic             Coordinates (Angstroms)
 Number     Number       Type             X           Y           Z
 ---------------------------------------------------------------------
      1          7           0       -1.611895    0.156474   -5.048996
      2          1           0       -2.615421    0.100472   -4.887436
      3          1           0       -1.373984    1.147323   -4.991356
      4          6           0       -0.893755   -0.543977   -3.985268
      5          1           0       -1.483454   -1.417331   -3.683303
      6          6           0       -0.634599    0.346967   -2.758771
      7          6           0        0.475853   -1.065384   -4.497876
      8          1           0        0.300444   -1.899586   -5.182885
      9          1           0        1.061114   -1.438197   -3.648803
     10          8           0       -0.366302    1.545645   -2.881702
     11          6           0        1.254167    0.045011   -5.231014
     12          1           0        0.774647    0.222012   -6.201829
     13          1           0        1.215261    0.978981   -4.667192
     14          6           0        2.699057   -0.281441   -5.471017
     15          8           0        3.644597    0.445581   -5.164600
     16          8           0        2.892695   -1.458136   -6.067817
     17          7           0       -0.681323   -0.270359   -1.547845
     18          1           0       -0.735749   -1.280923   -1.536531
     19          6           0       -0.153744    0.370570   -0.357108
     20          1           0       -0.609606    1.363321   -0.288895
     21          6           0        1.375715    0.554479   -0.495014
     22          6           0       -0.488697   -0.458889    0.899606
     23          1           0       -0.012072    0.018399    1.766330
     24          1           0       -0.008722   -1.443212    0.797919
     25          8           0        2.058097   -0.115018   -1.264003
     26          6           0       -1.992123   -0.643278    1.196146
     27          1           0       -2.459613   -1.108954    0.316748
     28          6           0       -2.169162   -1.599433    2.385559
     29          1           0       -1.725768   -1.180284    3.297746
     30          1           0       -3.230538   -1.780144    2.586315
     31          1           0       -1.693744   -2.569357    2.198199
     32          6           0       -2.704481    0.691907    1.456258
     33          1           0       -2.255964    1.217308    2.309860
     34          1           0       -2.669039    1.360304    0.588560
     35          1           0       -3.760708    0.524498    1.692570
     36          7           0        1.902285    1.521276    0.311183
     37          1           0        1.309787    1.938791    1.016882
     38          6           0        3.345664    1.663962    0.494166
     39          1           0        3.770714    0.667412    0.688854
     40          6           0        3.650771    2.496704    1.741016
     41          6           0        4.082262    2.239388   -0.730367
     42          1           0        4.056316    1.477154   -1.513202
     43          1           0        5.126733    2.363473   -0.433464
     44          8           0        4.685686    3.090453    1.923242
     45          6           0        3.518665    3.580308   -1.250591
     46          1           0        2.908043    4.070076   -0.481969
     47          1           0        4.350514    4.267249   -1.449507
     48          6           0        2.646059    3.457101   -2.511814
     49          1           0        2.201556    4.425065   -2.775263
     50          1           0        1.809464    2.771988   -2.357406
     51          7           0        3.382139    2.950630   -3.682630
     52          1           0        3.319488    1.957944   -3.918432
     53          7           0        4.400411    4.974138   -4.256015
     54          1           0        4.759612    5.565877   -4.991156
     55          1           0        4.002149    5.437168   -3.453637
     56          7           0        4.661664    3.104693   -5.601424
     57          1           0        5.450833    3.530425   -6.065784
     58          1           0        4.505618    2.109175   -5.743977
     59          6           0        4.143762    3.673522   -4.497773
     60          8           0        2.640186    2.471808    2.644177
     61          1           0        2.933952    2.996779    3.413886
     62          1           0        3.854698   -1.593410   -6.171632
 ---------------------------------------------------------------------

 SCF Done:  E(RB3LYP) =  -1447.43210467     A.U. after    1 cycles

 Alpha  occ. eigenvalues --  -19.31259 -19.30180 -19.26511 -19.24077 -19.21639
 Alpha  occ. eigenvalues --  -19.21395 -14.51631 -14.50406 -14.50211 -14.46163
 Alpha  occ. eigenvalues --  -14.45657 -14.40015 -10.47292 -10.44307 -10.42379
 Alpha  occ. eigenvalues --  -10.38459 -10.37793 -10.34601 -10.34315 -10.32838
 Alpha  occ. eigenvalues --  -10.31647 -10.30147 -10.29615 -10.28746 -10.28523
 Alpha  occ. eigenvalues --  -10.28278 -10.27392 -10.25113 -10.24744  -1.22577
 Alpha  occ. eigenvalues --   -1.20893  -1.15821  -1.13773  -1.13205  -1.12583
 Alpha  occ. eigenvalues --   -1.11894  -1.04936  -1.03966  -1.02699  -1.02124
 Alpha  occ. eigenvalues --   -0.97611  -0.90960  -0.89676  -0.88959  -0.86654
 Alpha  occ. eigenvalues --   -0.83806  -0.80785  -0.80182  -0.77703  -0.75999
 Alpha  occ. eigenvalues --   -0.74633  -0.74115  -0.73130  -0.72910  -0.70790
 Alpha  occ. eigenvalues --   -0.69771  -0.68072  -0.67214  -0.66988  -0.64956
 Alpha  occ. eigenvalues --   -0.64825  -0.64144  -0.63460  -0.61334  -0.60515
 Alpha  occ. eigenvalues --   -0.60491  -0.59876  -0.58970  -0.58701  -0.58318
 Alpha  occ. eigenvalues --   -0.57455  -0.57180  -0.56402  -0.55517  -0.55077
 Alpha  occ. eigenvalues --   -0.54817  -0.53598  -0.53071  -0.52734  -0.52130
 Alpha  occ. eigenvalues --   -0.51556  -0.51276  -0.50774  -0.50593  -0.49794
 Alpha  occ. eigenvalues --   -0.49784  -0.49069  -0.48499  -0.47398  -0.47004
 Alpha  occ. eigenvalues --   -0.46039  -0.45888  -0.45562  -0.45280  -0.44980
 Alpha  occ. eigenvalues --   -0.44584  -0.44182  -0.43703  -0.43661  -0.42303
 Alpha  occ. eigenvalues --   -0.42116  -0.41132  -0.40752  -0.40672  -0.39797
 Alpha  occ. eigenvalues --   -0.39515  -0.37767  -0.36536  -0.35795  -0.35549
 Alpha  occ. eigenvalues --   -0.34277  -0.32278
 Alpha virt. eigenvalues --   -0.11332  -0.11263  -0.09525  -0.07948  -0.07396
 Alpha virt. eigenvalues --   -0.06953  -0.04035  -0.03300  -0.02859  -0.01856
 Alpha virt. eigenvalues --   -0.01610  -0.00258   0.00070   0.00707   0.01666

 Mulliken charges:
               1
     1  N   -0.710182
     2  H    0.318355
     3  H    0.318515
     4  C   -0.095969
     5  H    0.149282
     6  C    0.623249
     7  C   -0.262742
     8  H    0.182485
     9  H    0.170059
    10  O   -0.549856
    11  C   -0.366283
    12  H    0.214473
    13  H    0.179978
    14  C    0.603157
    15  O   -0.532135
    16  O   -0.520187
    17  N   -0.584311
    18  H    0.340550
    19  C   -0.064802
    20  H    0.179036
    21  C    0.635997
    22  C   -0.297485
    23  H    0.148661
    24  H    0.151636
    25  O   -0.538133
    26  C   -0.069321
    27  H    0.131335
    28  C   -0.446154
    29  H    0.148725
    30  H    0.160445
    31  H    0.147879
    32  C   -0.456129
    33  H    0.142558
    34  H    0.149451
    35  H    0.164286
    36  N   -0.632744
    37  H    0.359417
    38  C   -0.037805
    39  H    0.208366
    40  C    0.583534
    41  C   -0.277804
    42  H    0.172876
    43  H    0.184664
    44  O   -0.442351
    45  C   -0.269834
    46  H    0.161975
    47  H    0.147606
    48  C   -0.209496
    49  H    0.166059
    50  H    0.234400
    51  N   -0.610119
    52  H    0.409870
    53  N   -0.757880
    54  H    0.378650
    55  H    0.385058
    56  N   -0.781753
    57  H    0.368634
    58  H    0.412684
    59  C    0.800120
    60  O   -0.580685
    61  H    0.432137
    62  H    0.427997
 Sum of Mulliken charges =   1.00000

 Dipole moment (field-independent basis, Debye):
    X=             12.4382    Y=             11.0992    Z=            -14.2010  Tot=             21.8991
 Quadrupole moment (field-independent basis, Debye-Ang):
   XX=           -104.2952   YY=           -103.7192   ZZ=            -72.8153
   XY=             52.4747   XZ=            -72.3558   YZ=            -42.0475

 Normal termination of Gaussian 16 at Tue May 24 03:40:33 2022.
