 Gaussian 16, Revision C.01,
 Gaussian 16:  ES64L-G16RevC.01  3-Jul-2019

 -------------------------------------------------------------------
 # B3LYP/6-31G* guess=read geom=check nosymm integral(ultrafinegrid)
 -------------------------------------------------------------------

 ------------------------------------------------------
 Candidate Structure: Conf:578 Charge calc in gas phase
 ------------------------------------------------------
 Structure from the checkpoint file:  "conf-578.chk"
 Charge =  1 Multiplicity = 1

                          Input orientation:
 ---------------------------------------------------------------------
 Center     Atomic      Atomic             Coordinates (Angstroms)
 Number     Number       Type             X           Y           Z
 ---------------------------------------------------------------------
      1          7           0       -2.592120   -0.065836   -3.430203
      2          1           0       -3.041722    0.791840   -3.117458
      3          1           0       -2.797864   -0.200092   -4.417519
      4          6           0       -1.156729   -0.000643   -3.186037
      5          1           0       -0.747253   -1.008825   -3.334049
      6          6           0       -0.970071    0.409476   -1.720650
      7          6           0       -0.331593    0.951504   -4.103016
      8          1           0       -0.323977    0.527156   -5.115541
      9          1           0        0.711103    0.962687   -3.761560
     10          8           0       -1.446662    1.470748   -1.299071
     11          6           0       -0.875318    2.387560   -4.152570
     12          1           0       -1.832111    2.437962   -4.677928
     13          1           0       -1.064731    2.737369   -3.127719
     14          6           0        0.067976    3.376900   -4.778677
     15          8           0        1.288914    3.378710   -4.646121
     16          8           0       -0.571074    4.316921   -5.484733
     17          7           0       -0.231450   -0.415884   -0.942738
     18          1           0        0.086136   -1.299556   -1.318744
     19          6           0        0.005541   -0.158999    0.487632
     20          1           0       -0.887109    0.353985    0.857216
     21          6           0        1.220042    0.793230    0.614821
     22          6           0        0.227150   -1.479883    1.229577
     23          1           0        1.171147   -1.914137    0.877368
     24          1           0       -0.583184   -2.165726    0.945831
     25          8           0        2.341922    0.405791    0.929786
     26          6           0        0.276635   -1.368946    2.768121
     27          1           0        1.055904   -0.639577    3.024150
     28          6           0       -1.056321   -0.896678    3.369372
     29          1           0       -1.869584   -1.589574    3.117427
     30          1           0       -0.989561   -0.849943    4.461932
     31          1           0       -1.348053    0.101184    3.021642
     32          6           0        0.689714   -2.721882    3.367100
     33          1           0       -0.046355   -3.500793    3.129161
     34          1           0        1.662746   -3.048920    2.982803
     35          1           0        0.764073   -2.659689    4.458317
     36          7           0        0.942611    2.086942    0.289713
     37          1           0       -0.006779    2.340369    0.023328
     38          6           0        1.940612    3.133506    0.356890
     39          1           0        2.692326    2.837449    1.095585
     40          6           0        1.261692    4.417000    0.824957
     41          6           0        2.642836    3.392499   -1.002829
     42          1           0        3.259119    4.294777   -0.907720
     43          1           0        1.869968    3.606205   -1.753462
     44          8           0        0.069921    4.618242    0.799515
     45          6           0        3.500911    2.208721   -1.467895
     46          1           0        4.345568    2.058156   -0.782216
     47          1           0        2.923671    1.281088   -1.420270
     48          6           0        4.004056    2.341059   -2.906734
     49          1           0        3.161371    2.445694   -3.590547
     50          1           0        4.566200    1.445563   -3.197372
     51          7           0        4.896440    3.508081   -3.074114
     52          1           0        5.627827    3.602795   -2.379209
     53          7           0        3.905299    4.521116   -4.937164
     54          1           0        4.062032    5.013383   -5.804971
     55          1           0        2.977035    4.112617   -4.794715
     56          7           0        6.005627    5.172360   -4.234710
     57          1           0        5.954644    6.031365   -4.763115
     58          1           0        6.870242    4.979406   -3.750382
     59          6           0        4.919167    4.386340   -4.077728
     60          8           0        2.167735    5.331623    1.235273
     61          1           0        1.664714    6.123302    1.507937
     62          1           0        0.085328    4.956813   -5.818719
 ---------------------------------------------------------------------

 SCF Done:  E(RB3LYP) =  -1447.42239229     A.U. after    1 cycles

 Alpha  occ. eigenvalues --  -19.31835 -19.28836 -19.27093 -19.23180 -19.20914
 Alpha  occ. eigenvalues --  -19.19614 -14.53181 -14.53167 -14.51995 -14.45687
 Alpha  occ. eigenvalues --  -14.43806 -14.39864 -10.49399 -10.44786 -10.41180
 Alpha  occ. eigenvalues --  -10.37819 -10.36675 -10.35799 -10.33136 -10.31778
 Alpha  occ. eigenvalues --  -10.31226 -10.30216 -10.29869 -10.29849 -10.29224
 Alpha  occ. eigenvalues --  -10.25596 -10.24994 -10.23024 -10.22722  -1.23022
 Alpha  occ. eigenvalues --   -1.19724  -1.17610  -1.13832  -1.12783  -1.11440
 Alpha  occ. eigenvalues --   -1.10779  -1.06986  -1.05503  -1.01608  -1.00707
 Alpha  occ. eigenvalues --   -0.97473  -0.91618  -0.89211  -0.87955  -0.86568
 Alpha  occ. eigenvalues --   -0.82982  -0.81160  -0.80433  -0.78502  -0.75233
 Alpha  occ. eigenvalues --   -0.74699  -0.73923  -0.73176  -0.72911  -0.70528
 Alpha  occ. eigenvalues --   -0.70201  -0.68317  -0.67323  -0.67070  -0.66457
 Alpha  occ. eigenvalues --   -0.65972  -0.62382  -0.61757  -0.61426  -0.60794
 Alpha  occ. eigenvalues --   -0.60324  -0.60177  -0.59541  -0.58535  -0.58149
 Alpha  occ. eigenvalues --   -0.57161  -0.57055  -0.56411  -0.55506  -0.54709
 Alpha  occ. eigenvalues --   -0.54565  -0.53176  -0.52827  -0.52602  -0.51709
 Alpha  occ. eigenvalues --   -0.51597  -0.50861  -0.49614  -0.48912  -0.48708
 Alpha  occ. eigenvalues --   -0.48536  -0.47940  -0.47625  -0.47207  -0.46415
 Alpha  occ. eigenvalues --   -0.45794  -0.45548  -0.45329  -0.44979  -0.44546
 Alpha  occ. eigenvalues --   -0.44241  -0.44140  -0.43753  -0.43601  -0.42239
 Alpha  occ. eigenvalues --   -0.41467  -0.40897  -0.40683  -0.39214  -0.38571
 Alpha  occ. eigenvalues --   -0.38385  -0.36872  -0.36025  -0.34727  -0.33645
 Alpha  occ. eigenvalues --   -0.32359  -0.31752
 Alpha virt. eigenvalues --   -0.13348  -0.11317  -0.09331  -0.08272  -0.07425
 Alpha virt. eigenvalues --   -0.05547  -0.05330  -0.05018  -0.03860  -0.02677
 Alpha virt. eigenvalues --   -0.01503  -0.01025  -0.00478   0.00220   0.01765

 Mulliken charges:
               1
     1  N   -0.711567
     2  H    0.326331
     3  H    0.309406
     4  C   -0.057084
     5  H    0.143364
     6  C    0.645308
     7  C   -0.289950
     8  H    0.158111
     9  H    0.149235
    10  O   -0.547523
    11  C   -0.373215
    12  H    0.185014
    13  H    0.238120
    14  C    0.595758
    15  O   -0.505562
    16  O   -0.523278
    17  N   -0.614391
    18  H    0.342599
    19  C   -0.057812
    20  H    0.190554
    21  C    0.629015
    22  C   -0.282484
    23  H    0.152349
    24  H    0.143379
    25  O   -0.536329
    26  C   -0.082824
    27  H    0.149586
    28  C   -0.453591
    29  H    0.147705
    30  H    0.156614
    31  H    0.142826
    32  C   -0.447265
    33  H    0.143951
    34  H    0.148052
    35  H    0.153070
    36  N   -0.618841
    37  H    0.380156
    38  C   -0.035422
    39  H    0.203144
    40  C    0.577824
    41  C   -0.273113
    42  H    0.152092
    43  H    0.150444
    44  O   -0.444948
    45  C   -0.289421
    46  H    0.164934
    47  H    0.192049
    48  C   -0.183754
    49  H    0.207822
    50  H    0.191955
    51  N   -0.596425
    52  H    0.359816
    53  N   -0.787891
    54  H    0.370824
    55  H    0.430038
    56  N   -0.763253
    57  H    0.381537
    58  H    0.381153
    59  C    0.812763
    60  O   -0.568745
    61  H    0.424310
    62  H    0.413479
 Sum of Mulliken charges =   1.00000

 Dipole moment (field-independent basis, Debye):
    X=             18.4097    Y=             18.5537    Z=            -19.4602  Tot=             32.5862
 Quadrupole moment (field-independent basis, Debye-Ang):
   XX=            -72.5794   YY=            -63.5074   ZZ=            -69.2077
   XY=             93.8551   XZ=            -69.9236   YZ=            -82.3036

 Normal termination of Gaussian 16 at Tue May 24 03:35:46 2022.
