 Gaussian 16, Revision C.01,
 Gaussian 16:  ES64L-G16RevC.01  3-Jul-2019

 -------------------------------------------------------------------
 # B3LYP/6-31G* guess=read geom=check nosymm integral(ultrafinegrid)
 -------------------------------------------------------------------

 ------------------------------------------------------
 Candidate Structure: Conf:304 Charge calc in gas phase
 ------------------------------------------------------
 Structure from the checkpoint file:  "conf-304.chk"
 Charge =  1 Multiplicity = 1

                          Input orientation:
 ---------------------------------------------------------------------
 Center     Atomic      Atomic             Coordinates (Angstroms)
 Number     Number       Type             X           Y           Z
 ---------------------------------------------------------------------
      1          7           0       -2.189636    2.171866   -4.037788
      2          1           0       -2.792864    1.959339   -4.832370
      3          1           0       -2.692654    2.855553   -3.470684
      4          6           0       -2.018195    0.938016   -3.241626
      5          1           0       -2.996516    0.530356   -2.938812
      6          6           0       -1.271164    1.292527   -1.941284
      7          6           0       -1.310458   -0.156083   -4.067299
      8          1           0       -1.877848   -0.303656   -4.994900
      9          1           0       -1.382242   -1.115658   -3.544340
     10          8           0       -0.915200    2.446343   -1.676398
     11          6           0        0.161361    0.115578   -4.393446
     12          1           0        0.292301    1.027372   -4.984655
     13          1           0        0.750818    0.245537   -3.474470
     14          6           0        0.777074   -1.043887   -5.150129
     15          8           0        0.309989   -2.157939   -5.224537
     16          8           0        1.947460   -0.691020   -5.731334
     17          7           0       -1.060277    0.268264   -1.085133
     18          1           0       -1.270994   -0.675435   -1.381903
     19          6           0       -0.254339    0.427966    0.123182
     20          1           0       -0.735052    1.188407    0.747131
     21          6           0        1.162574    0.899693   -0.270067
     22          6           0       -0.197154   -0.925917    0.860556
     23          1           0        0.340047   -1.631275    0.212237
     24          1           0       -1.227554   -1.295908    0.960241
     25          8           0        1.747667    0.434634   -1.245077
     26          6           0        0.460946   -0.913845    2.255689
     27          1           0        1.465820   -0.479223    2.163969
     28          6           0       -0.331774   -0.075777    3.271302
     29          1           0       -1.350725   -0.464922    3.391714
     30          1           0        0.151171   -0.103911    4.253793
     31          1           0       -0.413833    0.979578    2.983122
     32          6           0        0.620355   -2.357324    2.757823
     33          1           0       -0.355365   -2.847687    2.865872
     34          1           0        1.223696   -2.957911    2.067696
     35          1           0        1.110978   -2.377540    3.736791
     36          7           0        1.709418    1.841045    0.544234
     37          1           0        1.187244    2.157509    1.349932
     38          6           0        3.073627    2.325544    0.387518
     39          1           0        3.612922    1.557781   -0.180619
     40          6           0        3.802397    2.463860    1.725636
     41          6           0        3.144866    3.661813   -0.388642
     42          1           0        4.144117    4.086323   -0.250081
     43          1           0        2.430818    4.360291    0.069594
     44          8           0        4.890694    2.974708    1.837834
     45          6           0        2.836714    3.485579   -1.882951
     46          1           0        3.692878    3.016613   -2.383623
     47          1           0        1.996703    2.797828   -2.010770
     48          6           0        2.519643    4.823769   -2.563443
     49          1           0        3.344393    5.532083   -2.444373
     50          1           0        1.639033    5.297225   -2.113826
     51          7           0        2.287305    4.707650   -4.013069
     52          1           0        3.085108    4.849131   -4.617742
     53          7           0        0.122823    3.852438   -3.856084
     54          1           0       -0.666127    3.290053   -4.233482
     55          1           0        0.177195    3.728108   -2.849882
     56          7           0        1.144962    4.049191   -5.922301
     57          1           0        0.265607    3.822776   -6.364656
     58          1           0        1.816249    4.528263   -6.505690
     59          6           0        1.180004    4.199570   -4.576391
     60          8           0        3.105412    1.955179    2.767721
     61          1           0        3.659761    2.083237    3.562196
     62          1           0        2.297660   -1.496731   -6.157981
 ---------------------------------------------------------------------

 SCF Done:  E(RB3LYP) =  -1447.43364739     A.U. after    2 cycles

 Alpha  occ. eigenvalues --  -19.29723 -19.27761 -19.23501 -19.23461 -19.22153
 Alpha  occ. eigenvalues --  -19.21660 -14.51565 -14.51327 -14.48625 -14.47253
 Alpha  occ. eigenvalues --  -14.46584 -14.45414 -10.47159 -10.41940 -10.40458
 Alpha  occ. eigenvalues --  -10.40258 -10.38885 -10.35603 -10.34446 -10.34307
 Alpha  occ. eigenvalues --  -10.33745 -10.29956 -10.29876 -10.29667 -10.29277
 Alpha  occ. eigenvalues --  -10.28452 -10.27659 -10.25672 -10.24878  -1.20411
 Alpha  occ. eigenvalues --   -1.18636  -1.15689  -1.15225  -1.13446  -1.11376
 Alpha  occ. eigenvalues --   -1.09722  -1.05332  -1.03694  -1.03152  -1.03023
 Alpha  occ. eigenvalues --   -1.01489  -0.91589  -0.90518  -0.89253  -0.86877
 Alpha  occ. eigenvalues --   -0.84577  -0.81558  -0.80581  -0.77170  -0.76361
 Alpha  occ. eigenvalues --   -0.75207  -0.74085  -0.73126  -0.72638  -0.70223
 Alpha  occ. eigenvalues --   -0.69896  -0.69391  -0.68520  -0.67702  -0.64675
 Alpha  occ. eigenvalues --   -0.64383  -0.63639  -0.62452  -0.61574  -0.60707
 Alpha  occ. eigenvalues --   -0.60256  -0.59575  -0.59101  -0.58301  -0.58012
 Alpha  occ. eigenvalues --   -0.57549  -0.57262  -0.57001  -0.55971  -0.55955
 Alpha  occ. eigenvalues --   -0.55443  -0.54611  -0.54175  -0.52988  -0.52071
 Alpha  occ. eigenvalues --   -0.51887  -0.51321  -0.51037  -0.50405  -0.50008
 Alpha  occ. eigenvalues --   -0.49502  -0.49091  -0.48852  -0.48070  -0.47244
 Alpha  occ. eigenvalues --   -0.46581  -0.46328  -0.46121  -0.45927  -0.45443
 Alpha  occ. eigenvalues --   -0.45141  -0.44841  -0.44457  -0.41727  -0.41620
 Alpha  occ. eigenvalues --   -0.41450  -0.41029  -0.40880  -0.40013  -0.39954
 Alpha  occ. eigenvalues --   -0.38650  -0.38135  -0.37468  -0.36920  -0.35870
 Alpha  occ. eigenvalues --   -0.35315  -0.34826
 Alpha virt. eigenvalues --   -0.11147  -0.09822  -0.08903  -0.08029  -0.07852
 Alpha virt. eigenvalues --   -0.06841  -0.04604  -0.03891  -0.03209  -0.01991
 Alpha virt. eigenvalues --   -0.01822  -0.00961  -0.00460   0.00116   0.01381

 Mulliken charges:
               1
     1  N   -0.763423
     2  H    0.328977
     3  H    0.338558
     4  C   -0.083909
     5  H    0.171799
     6  C    0.645452
     7  C   -0.280479
     8  H    0.166483
     9  H    0.174598
    10  O   -0.571643
    11  C   -0.382305
    12  H    0.152620
    13  H    0.230281
    14  C    0.588839
    15  O   -0.451105
    16  O   -0.571776
    17  N   -0.605945
    18  H    0.350198
    19  C   -0.024421
    20  H    0.167848
    21  C    0.646778
    22  C   -0.307847
    23  H    0.165089
    24  H    0.154169
    25  O   -0.540678
    26  C   -0.093014
    27  H    0.144130
    28  C   -0.448345
    29  H    0.154901
    30  H    0.162415
    31  H    0.126212
    32  C   -0.447029
    33  H    0.150692
    34  H    0.153493
    35  H    0.158065
    36  N   -0.600128
    37  H    0.350961
    38  C   -0.064989
    39  H    0.221120
    40  C    0.590628
    41  C   -0.270676
    42  H    0.191787
    43  H    0.148245
    44  O   -0.440591
    45  C   -0.287288
    46  H    0.164431
    47  H    0.181930
    48  C   -0.179760
    49  H    0.190392
    50  H    0.187338
    51  N   -0.599967
    52  H    0.359704
    53  N   -0.802560
    54  H    0.410474
    55  H    0.407531
    56  N   -0.762362
    57  H    0.377875
    58  H    0.371967
    59  C    0.815416
    60  O   -0.571383
    61  H    0.430097
    62  H    0.420129
 Sum of Mulliken charges =   1.00000

 Dipole moment (field-independent basis, Debye):
    X=              2.1988    Y=             14.4140    Z=            -14.1957  Tot=             20.3499
 Quadrupole moment (field-independent basis, Debye-Ang):
   XX=           -145.9347   YY=           -110.5531   ZZ=            -59.5577
   XY=             20.1999   XZ=             -9.0562   YZ=            -68.6024

 Normal termination of Gaussian 16 at Tue May 24 03:35:50 2022.
