 Gaussian 16, Revision C.01,
 Gaussian 16:  ES64L-G16RevC.01  3-Jul-2019

 -------------------------------------------------------------------
 # B3LYP/6-31G* guess=read geom=check nosymm integral(ultrafinegrid)
 -------------------------------------------------------------------

 ------------------------------------------------------
 Candidate Structure: Conf:684 Charge calc in gas phase
 ------------------------------------------------------
 Structure from the checkpoint file:  "conf-684.chk"
 Charge =  1 Multiplicity = 1

                          Input orientation:
 ---------------------------------------------------------------------
 Center     Atomic      Atomic             Coordinates (Angstroms)
 Number     Number       Type             X           Y           Z
 ---------------------------------------------------------------------
      1          7           0       -2.457602    1.725188   -4.705352
      2          1           0       -3.028161    1.435656   -5.499200
      3          1           0       -2.911091    2.548166   -4.312747
      4          6           0       -2.450782    0.655324   -3.690923
      5          1           0       -3.439337    0.556788   -3.209190
      6          6           0       -1.538146    1.135179   -2.540213
      7          6           0       -2.180047   -0.719256   -4.337198
      8          1           0       -3.044399   -0.943178   -4.973643
      9          1           0       -2.194778   -1.494928   -3.563073
     10          8           0       -1.422193    2.349897   -2.331490
     11          6           0       -0.915496   -0.883664   -5.212374
     12          1           0       -0.955873   -1.880495   -5.664662
     13          1           0       -0.897265   -0.150783   -6.024142
     14          6           0        0.381216   -0.768597   -4.448175
     15          8           0        1.214911    0.105985   -4.628003
     16          8           0        0.499640   -1.709125   -3.508590
     17          7           0       -0.962178    0.211965   -1.734763
     18          1           0       -0.958959   -0.763006   -2.005557
     19          6           0       -0.103001    0.584373   -0.607551
     20          1           0       -0.398618    1.596856   -0.328315
     21          6           0        1.376142    0.563250   -1.046332
     22          6           0       -0.328549   -0.400557    0.556933
     23          1           0       -0.047601   -1.402617    0.206341
     24          1           0       -1.406296   -0.421146    0.764237
     25          8           0        1.869828   -0.431624   -1.588962
     26          6           0        0.438595   -0.089968    1.858896
     27          1           0        1.511423   -0.036396    1.627452
     28          6           0        0.016834    1.249411    2.482793
     29          1           0       -1.053603    1.251917    2.723707
     30          1           0        0.565593    1.431940    3.412625
     31          1           0        0.208190    2.105791    1.823603
     32          6           0        0.234848   -1.237872    2.859545
     33          1           0       -0.823280   -1.342474    3.130088
     34          1           0        0.572241   -2.194720    2.445574
     35          1           0        0.796199   -1.055845    3.782161
     36          7           0        2.112851    1.672529   -0.789404
     37          1           0        1.710051    2.405711   -0.219734
     38          6           0        3.544227    1.746984   -1.075784
     39          1           0        3.820174    0.761905   -1.468868
     40          6           0        4.382847    1.951616    0.191583
     41          6           0        3.854965    2.838842   -2.123158
     42          1           0        4.910782    3.107987   -2.036726
     43          1           0        3.280571    3.732690   -1.842997
     44          8           0        5.509320    2.385654    0.187648
     45          6           0        3.521269    2.396982   -3.562120
     46          1           0        4.389717    1.891993   -4.002424
     47          1           0        2.718438    1.652821   -3.554129
     48          6           0        3.115595    3.543893   -4.504583
     49          1           0        2.930064    3.168468   -5.515537
     50          1           0        3.906987    4.294614   -4.586624
     51          7           0        1.907493    4.255588   -4.056787
     52          1           0        2.044571    5.029212   -3.422097
     53          7           0        0.319028    2.748441   -4.899869
     54          1           0       -0.678267    2.469705   -4.949330
     55          1           0        0.962528    1.967043   -5.020844
     56          7           0       -0.374110    4.608533   -3.734955
     57          1           0       -1.134174    4.071193   -3.318514
     58          1           0       -0.136277    5.466217   -3.254685
     59          6           0        0.638596    3.843193   -4.223233
     60          8           0        3.736902    1.562398    1.313482
     61          1           0        4.365410    1.682918    2.051683
     62          1           0        1.221314   -1.431322   -2.880977
 ---------------------------------------------------------------------

 SCF Done:  E(RB3LYP) =  -1447.44895796     A.U. after    1 cycles

 Alpha  occ. eigenvalues --  -19.30237 -19.29103 -19.25172 -19.24344 -19.24289
 Alpha  occ. eigenvalues --  -19.24249 -14.50828 -14.48828 -14.48642 -14.48526
 Alpha  occ. eigenvalues --  -14.47556 -14.45656 -10.45695 -10.43111 -10.42562
 Alpha  occ. eigenvalues --  -10.41499 -10.41257 -10.35528 -10.35197 -10.35053
 Alpha  occ. eigenvalues --  -10.34989 -10.31970 -10.31066 -10.30228 -10.29761
 Alpha  occ. eigenvalues --  -10.28984 -10.28239 -10.26455 -10.25435  -1.21034
 Alpha  occ. eigenvalues --   -1.20899  -1.16355  -1.15690  -1.14217  -1.12029
 Alpha  occ. eigenvalues --   -1.11999  -1.04912  -1.04697  -1.04104  -1.02260
 Alpha  occ. eigenvalues --   -1.01446  -0.91987  -0.91095  -0.90411  -0.87273
 Alpha  occ. eigenvalues --   -0.85407  -0.82489  -0.80400  -0.77153  -0.76700
 Alpha  occ. eigenvalues --   -0.76486  -0.75182  -0.72922  -0.71682  -0.71388
 Alpha  occ. eigenvalues --   -0.71099  -0.70199  -0.69851  -0.67079  -0.65868
 Alpha  occ. eigenvalues --   -0.64694  -0.63245  -0.63110  -0.62341  -0.61897
 Alpha  occ. eigenvalues --   -0.60649  -0.60462  -0.59799  -0.59082  -0.58814
 Alpha  occ. eigenvalues --   -0.58413  -0.58156  -0.57195  -0.56824  -0.56088
 Alpha  occ. eigenvalues --   -0.55459  -0.55346  -0.54411  -0.54007  -0.53832
 Alpha  occ. eigenvalues --   -0.53086  -0.52750  -0.52276  -0.51572  -0.50934
 Alpha  occ. eigenvalues --   -0.50614  -0.50320  -0.49584  -0.49202  -0.48270
 Alpha  occ. eigenvalues --   -0.47699  -0.47457  -0.46757  -0.46698  -0.46281
 Alpha  occ. eigenvalues --   -0.45942  -0.45398  -0.44986  -0.42736  -0.42497
 Alpha  occ. eigenvalues --   -0.42132  -0.41818  -0.41520  -0.40322  -0.39965
 Alpha  occ. eigenvalues --   -0.39602  -0.39171  -0.38999  -0.38364  -0.37725
 Alpha  occ. eigenvalues --   -0.36667  -0.36299
 Alpha virt. eigenvalues --   -0.11583  -0.10932  -0.10522  -0.09688  -0.09159
 Alpha virt. eigenvalues --   -0.06948  -0.04796  -0.04678  -0.01863  -0.01634
 Alpha virt. eigenvalues --   -0.01078  -0.00796   0.00563   0.00911   0.01572

 Mulliken charges:
               1
     1  N   -0.756417
     2  H    0.332935
     3  H    0.337026
     4  C   -0.069488
     5  H    0.185277
     6  C    0.641902
     7  C   -0.325854
     8  H    0.178086
     9  H    0.178050
    10  O   -0.570654
    11  C   -0.333198
    12  H    0.203549
    13  H    0.177409
    14  C    0.586165
    15  O   -0.489880
    16  O   -0.586553
    17  N   -0.615073
    18  H    0.361399
    19  C   -0.070546
    20  H    0.177134
    21  C    0.667009
    22  C   -0.273769
    23  H    0.156482
    24  H    0.158601
    25  O   -0.567623
    26  C   -0.101162
    27  H    0.152726
    28  C   -0.445430
    29  H    0.156318
    30  H    0.163363
    31  H    0.116239
    32  C   -0.447186
    33  H    0.151642
    34  H    0.154509
    35  H    0.158303
    36  N   -0.593977
    37  H    0.347955
    38  C   -0.079623
    39  H    0.237368
    40  C    0.586568
    41  C   -0.266188
    42  H    0.203449
    43  H    0.115192
    44  O   -0.435613
    45  C   -0.300507
    46  H    0.178152
    47  H    0.191710
    48  C   -0.182809
    49  H    0.194940
    50  H    0.188723
    51  N   -0.589361
    52  H    0.350210
    53  N   -0.800661
    54  H    0.424575
    55  H    0.405348
    56  N   -0.768406
    57  H    0.395825
    58  H    0.349994
    59  C    0.773654
    60  O   -0.563055
    61  H    0.430516
    62  H    0.464732
 Sum of Mulliken charges =   1.00000

 Dipole moment (field-independent basis, Debye):
    X=             -0.3480    Y=             10.6419    Z=            -12.5802  Tot=             16.4813
 Quadrupole moment (field-independent basis, Debye-Ang):
   XX=           -145.4917   YY=           -118.8820   ZZ=            -99.3685
   XY=             15.8332   XZ=             13.1664   YZ=            -30.6339

 Normal termination of Gaussian 16 at Tue May 24 03:40:31 2022.
