 Gaussian 16, Revision C.01,
 Gaussian 16:  ES64L-G16RevC.01  3-Jul-2019

 -------------------------------------------------------------------
 # B3LYP/6-31G* guess=read geom=check nosymm integral(ultrafinegrid)
 -------------------------------------------------------------------

 ------------------------------------------------------
 Candidate Structure: Conf:669 Charge calc in gas phase
 ------------------------------------------------------
 Structure from the checkpoint file:  "conf-669.chk"
 Charge =  1 Multiplicity = 1

                          Input orientation:
 ---------------------------------------------------------------------
 Center     Atomic      Atomic             Coordinates (Angstroms)
 Number     Number       Type             X           Y           Z
 ---------------------------------------------------------------------
      1          7           0       -2.633936    1.263476   -4.441082
      2          1           0       -3.527791    1.454660   -3.991593
      3          1           0       -2.180349    2.169839   -4.550288
      4          6           0       -1.816059    0.409622   -3.596675
      5          1           0       -2.432620   -0.447294   -3.305205
      6          6           0       -1.338062    1.063755   -2.285138
      7          6           0       -0.585526   -0.117454   -4.394777
      8          1           0        0.308243   -0.148418   -3.762444
      9          1           0       -0.387324    0.590924   -5.206151
     10          8           0       -1.364182    2.303445   -2.129639
     11          6           0       -0.826268   -1.500715   -5.001312
     12          1           0       -1.763242   -1.517179   -5.573271
     13          1           0       -0.037459   -1.768126   -5.714473
     14          6           0       -0.890818   -2.595081   -3.957045
     15          8           0       -0.862756   -2.433653   -2.745792
     16          8           0       -0.989890   -3.812250   -4.509784
     17          7           0       -0.895023    0.199004   -1.357814
     18          1           0       -0.826891   -0.776906   -1.655674
     19          6           0       -0.274441    0.563174   -0.098428
     20          1           0       -0.801457    1.438112    0.297320
     21          6           0        1.208833    0.967565   -0.308800
     22          6           0       -0.391406   -0.616420    0.896212
     23          1           0        0.148368   -0.365487    1.818088
     24          1           0        0.135935   -1.477135    0.461456
     25          8           0        1.792489    0.827888   -1.379353
     26          6           0       -1.832251   -1.030734    1.261592
     27          1           0       -2.360048   -1.282976    0.331594
     28          6           0       -1.795141   -2.291934    2.138228
     29          1           0       -1.279736   -2.098677    3.087583
     30          1           0       -2.809124   -2.631638    2.374652
     31          1           0       -1.274942   -3.115138    1.635194
     32          6           0       -2.606685    0.096779    1.959661
     33          1           0       -2.100061    0.411003    2.881794
     34          1           0       -2.729365    0.979386    1.320492
     35          1           0       -3.611176   -0.240752    2.236156
     36          7           0        1.799955    1.517467    0.797867
     37          1           0        1.295102    1.451204    1.677708
     38          6           0        3.248861    1.551401    0.995971
     39          1           0        3.715243    0.865340    0.280294
     40          6           0        3.509356    1.026229    2.410085
     41          6           0        3.872071    2.959783    0.820870
     42          1           0        4.881885    2.942575    1.240625
     43          1           0        3.289985    3.657661    1.436221
     44          8           0        2.638928    0.840085    3.234218
     45          6           0        3.923425    3.421524   -0.655735
     46          1           0        4.962918    3.450986   -1.002070
     47          1           0        3.426115    2.670934   -1.278975
     48          6           0        3.329414    4.816759   -0.918753
     49          1           0        3.414008    5.079182   -1.979058
     50          1           0        3.879514    5.580507   -0.362885
     51          7           0        1.920331    4.961825   -0.519484
     52          1           0        1.734038    5.359913    0.390003
     53          7           0        1.051849    3.722742   -2.299582
     54          1           0        0.232642    3.201161   -2.620425
     55          1           0        1.937594    3.270326   -2.476190
     56          7           0       -0.363130    4.523612   -0.674322
     57          1           0       -1.076462    3.886601   -1.031661
     58          1           0       -0.581523    5.148150    0.087217
     59          6           0        0.882727    4.391361   -1.149662
     60          8           0        4.815195    0.820701    2.633165
     61          1           0        4.913038    0.501688    3.551655
     62          1           0       -1.035904   -4.463430   -3.783279
 ---------------------------------------------------------------------

 SCF Done:  E(RB3LYP) =  -1447.44038406     A.U. after    1 cycles

 Alpha  occ. eigenvalues --  -19.31024 -19.28949 -19.25703 -19.24181 -19.23791
 Alpha  occ. eigenvalues --  -19.23524 -14.51720 -14.50183 -14.49406 -14.47317
 Alpha  occ. eigenvalues --  -14.46418 -14.40478 -10.46988 -10.43640 -10.42017
 Alpha  occ. eigenvalues --  -10.40296 -10.39579 -10.36151 -10.35626 -10.34387
 Alpha  occ. eigenvalues --  -10.31876 -10.31196 -10.31081 -10.29151 -10.28967
 Alpha  occ. eigenvalues --  -10.28413 -10.27928 -10.25941 -10.25182  -1.22142
 Alpha  occ. eigenvalues --   -1.20241  -1.15843  -1.15220  -1.14331  -1.13283
 Alpha  occ. eigenvalues --   -1.11113  -1.05461  -1.03994  -1.03472  -1.03088
 Alpha  occ. eigenvalues --   -0.98057  -0.92372  -0.90604  -0.88441  -0.87800
 Alpha  occ. eigenvalues --   -0.84872  -0.81305  -0.79967  -0.77572  -0.76741
 Alpha  occ. eigenvalues --   -0.75524  -0.74553  -0.73920  -0.72633  -0.71239
 Alpha  occ. eigenvalues --   -0.69503  -0.69040  -0.68146  -0.67507  -0.65720
 Alpha  occ. eigenvalues --   -0.64267  -0.63639  -0.62963  -0.61586  -0.60855
 Alpha  occ. eigenvalues --   -0.60268  -0.59678  -0.59521  -0.59067  -0.58754
 Alpha  occ. eigenvalues --   -0.58248  -0.57850  -0.57273  -0.56307  -0.55887
 Alpha  occ. eigenvalues --   -0.55097  -0.54851  -0.53927  -0.53732  -0.53140
 Alpha  occ. eigenvalues --   -0.52621  -0.51893  -0.51402  -0.51066  -0.50551
 Alpha  occ. eigenvalues --   -0.49918  -0.49552  -0.48863  -0.48103  -0.47617
 Alpha  occ. eigenvalues --   -0.47247  -0.46619  -0.46517  -0.46434  -0.45891
 Alpha  occ. eigenvalues --   -0.45087  -0.44974  -0.43357  -0.43144  -0.42048
 Alpha  occ. eigenvalues --   -0.41642  -0.41456  -0.41336  -0.41212  -0.40450
 Alpha  occ. eigenvalues --   -0.39335  -0.38242  -0.37592  -0.37497  -0.37397
 Alpha  occ. eigenvalues --   -0.35921  -0.33086
 Alpha virt. eigenvalues --   -0.11708  -0.10623  -0.09414  -0.09310  -0.08692
 Alpha virt. eigenvalues --   -0.07348  -0.03939  -0.02900  -0.02782  -0.01934
 Alpha virt. eigenvalues --   -0.01082  -0.00666   0.00339   0.01136   0.01184

 Mulliken charges:
               1
     1  N   -0.690992
     2  H    0.313225
     3  H    0.304495
     4  C   -0.089350
     5  H    0.172196
     6  C    0.584258
     7  C   -0.276186
     8  H    0.175852
     9  H    0.163740
    10  O   -0.602267
    11  C   -0.366453
    12  H    0.214274
    13  H    0.198890
    14  C    0.596809
    15  O   -0.492724
    16  O   -0.541951
    17  N   -0.584093
    18  H    0.406716
    19  C   -0.070748
    20  H    0.166346
    21  C    0.612175
    22  C   -0.305545
    23  H    0.156244
    24  H    0.162621
    25  O   -0.530643
    26  C   -0.069811
    27  H    0.139934
    28  C   -0.448808
    29  H    0.151069
    30  H    0.160255
    31  H    0.151587
    32  C   -0.456218
    33  H    0.145985
    34  H    0.136192
    35  H    0.166873
    36  N   -0.609219
    37  H    0.358211
    38  C   -0.060295
    39  H    0.211268
    40  C    0.585206
    41  C   -0.267411
    42  H    0.192857
    43  H    0.135185
    44  O   -0.459468
    45  C   -0.305739
    46  H    0.182771
    47  H    0.183738
    48  C   -0.184431
    49  H    0.196590
    50  H    0.192870
    51  N   -0.590600
    52  H    0.356203
    53  N   -0.754218
    54  H    0.402390
    55  H    0.379041
    56  N   -0.785915
    57  H    0.417964
    58  H    0.365660
    59  C    0.795254
    60  O   -0.551177
    61  H    0.434974
    62  H    0.424343
 Sum of Mulliken charges =   1.00000

 Dipole moment (field-independent basis, Debye):
    X=              5.4658    Y=             11.1803    Z=             -1.8718  Tot=             12.5848
 Quadrupole moment (field-independent basis, Debye-Ang):
   XX=           -130.0584   YY=            -91.2975   ZZ=           -146.8915
   XY=             27.3720   XZ=              9.4990   YZ=              6.1190

 Normal termination of Gaussian 16 at Tue May 24 03:40:29 2022.
