 Gaussian 16, Revision C.01,
 Gaussian 16:  ES64L-G16RevC.01  3-Jul-2019

 -------------------------------------------------------------------
 # B3LYP/6-31G* guess=read geom=check nosymm integral(ultrafinegrid)
 -------------------------------------------------------------------

 ------------------------------------------------------
 Candidate Structure: Conf:102 Charge calc in gas phase
 ------------------------------------------------------
 Structure from the checkpoint file:  "conf-102.chk"
 Charge =  1 Multiplicity = 1

                          Input orientation:
 ---------------------------------------------------------------------
 Center     Atomic      Atomic             Coordinates (Angstroms)
 Number     Number       Type             X           Y           Z
 ---------------------------------------------------------------------
      1          7           0       -2.684643    0.824024   -4.013233
      2          1           0       -3.508379    0.877309   -3.415625
      3          1           0       -2.281971    1.761966   -4.000423
      4          6           0       -1.710655   -0.088016   -3.419517
      5          1           0       -2.239898   -0.993169   -3.106179
      6          6           0       -1.020206    0.534504   -2.185013
      7          6           0       -0.683820   -0.471384   -4.511548
      8          1           0       -0.165867    0.439214   -4.838942
      9          1           0       -1.260313   -0.829887   -5.369924
     10          8           0       -0.881276    1.766740   -2.101011
     11          6           0        0.390209   -1.515684   -4.124004
     12          1           0        1.021937   -1.720091   -4.992215
     13          1           0        1.024671   -1.129029   -3.319787
     14          6           0       -0.213709   -2.811888   -3.630259
     15          8           0       -0.702427   -2.976105   -2.523154
     16          8           0       -0.192193   -3.785292   -4.553883
     17          7           0       -0.589794   -0.323493   -1.233888
     18          1           0       -0.678293   -1.323814   -1.419790
     19          6           0       -0.071285    0.095483    0.075323
     20          1           0       -0.655712    0.972290    0.377686
     21          6           0        1.403811    0.558409   -0.022177
     22          6           0       -0.222689   -1.033295    1.100773
     23          1           0        0.244265   -0.696588    2.034003
     24          1           0        0.377227   -1.888250    0.764434
     25          8           0        2.339651   -0.042847    0.484725
     26          6           0       -1.669184   -1.486142    1.385455
     27          1           0       -2.125285   -1.812354    0.439328
     28          6           0       -1.650434   -2.697062    2.330838
     29          1           0       -1.208855   -2.432356    3.300048
     30          1           0       -2.665417   -3.065069    2.517340
     31          1           0       -1.064885   -3.523417    1.911642
     32          6           0       -2.537418   -0.358685    1.964600
     33          1           0       -2.108034    0.026498    2.898702
     34          1           0       -2.646343    0.484134    1.272027
     35          1           0       -3.545142   -0.724345    2.190973
     36          7           0        1.559680    1.733761   -0.717439
     37          1           0        0.737337    2.100664   -1.206702
     38          6           0        2.870484    2.315103   -0.902202
     39          1           0        3.547989    1.667538   -0.327988
     40          6           0        2.914237    3.697321   -0.241858
     41          6           0        3.305859    2.351098   -2.379365
     42          1           0        2.684685    3.080373   -2.914592
     43          1           0        3.058828    1.373362   -2.802016
     44          8           0        3.247305    4.748303   -0.785486
     45          6           0        4.814153    2.643615   -2.594661
     46          1           0        5.284924    2.981417   -1.663259
     47          1           0        5.338745    1.726230   -2.878419
     48          6           0        5.096395    3.694052   -3.675244
     49          1           0        4.644749    3.397547   -4.631486
     50          1           0        6.179925    3.793986   -3.819925
     51          7           0        4.532054    4.980177   -3.242401
     52          1           0        4.048836    4.965718   -2.331374
     53          7           0        5.210044    6.225849   -5.087068
     54          1           0        5.064726    7.015711   -5.699038
     55          1           0        5.745319    5.452861   -5.453030
     56          7           0        3.838408    7.171514   -3.472091
     57          1           0        4.053432    8.104808   -3.793575
     58          1           0        3.357153    7.099658   -2.585045
     59          6           0        4.536011    6.110836   -3.929559
     60          8           0        2.539108    3.661568    1.033377
     61          1           0        2.589270    4.568771    1.392115
     62          1           0       -0.623622   -4.568938   -4.160033
 ---------------------------------------------------------------------

 SCF Done:  E(RB3LYP) =  -1447.42703019     A.U. after    1 cycles

 Alpha  occ. eigenvalues --  -19.31567 -19.28205 -19.27444 -19.22870 -19.20221
 Alpha  occ. eigenvalues --  -19.19870 -14.53200 -14.52551 -14.51549 -14.43941
 Alpha  occ. eigenvalues --  -14.43869 -14.38260 -10.48976 -10.44791 -10.40923
 Alpha  occ. eigenvalues --  -10.36975 -10.36675 -10.36463 -10.34409 -10.31821
 Alpha  occ. eigenvalues --  -10.30895 -10.30671 -10.29845 -10.28508 -10.27548
 Alpha  occ. eigenvalues --  -10.25044 -10.24925 -10.23154 -10.22636  -1.23213
 Alpha  occ. eigenvalues --   -1.19248  -1.17502  -1.13998  -1.12046  -1.11225
 Alpha  occ. eigenvalues --   -1.10053  -1.06591  -1.05874  -1.01372  -1.00185
 Alpha  occ. eigenvalues --   -0.95915  -0.92406  -0.87962  -0.87278  -0.86801
 Alpha  occ. eigenvalues --   -0.82471  -0.80978  -0.79593  -0.78197  -0.75421
 Alpha  occ. eigenvalues --   -0.74575  -0.73905  -0.72808  -0.71954  -0.70843
 Alpha  occ. eigenvalues --   -0.69714  -0.68112  -0.66488  -0.66111  -0.65612
 Alpha  occ. eigenvalues --   -0.65594  -0.63777  -0.62438  -0.62049  -0.61626
 Alpha  occ. eigenvalues --   -0.59981  -0.59420  -0.58397  -0.58123  -0.57520
 Alpha  occ. eigenvalues --   -0.56763  -0.56174  -0.56070  -0.55289  -0.54753
 Alpha  occ. eigenvalues --   -0.54182  -0.52881  -0.52566  -0.51730  -0.51500
 Alpha  occ. eigenvalues --   -0.51031  -0.50166  -0.49518  -0.49261  -0.49040
 Alpha  occ. eigenvalues --   -0.48240  -0.47890  -0.46795  -0.46560  -0.46352
 Alpha  occ. eigenvalues --   -0.46024  -0.44974  -0.44584  -0.44226  -0.44161
 Alpha  occ. eigenvalues --   -0.44036  -0.43669  -0.43550  -0.42181  -0.42046
 Alpha  occ. eigenvalues --   -0.41425  -0.41128  -0.40200  -0.38680  -0.38493
 Alpha  occ. eigenvalues --   -0.38319  -0.36455  -0.35745  -0.34301  -0.33805
 Alpha  occ. eigenvalues --   -0.32120  -0.30906
 Alpha virt. eigenvalues --   -0.12767  -0.12049  -0.08847  -0.08135  -0.06547
 Alpha virt. eigenvalues --   -0.05487  -0.05371  -0.03651  -0.03071  -0.02271
 Alpha virt. eigenvalues --   -0.01371  -0.00614   0.00486   0.00874   0.01617

 Mulliken charges:
               1
     1  N   -0.695830
     2  H    0.310185
     3  H    0.311376
     4  C   -0.088719
     5  H    0.165897
     6  C    0.589137
     7  C   -0.260057
     8  H    0.147267
     9  H    0.186733
    10  O   -0.572130
    11  C   -0.363068
    12  H    0.181807
    13  H    0.173683
    14  C    0.594946
    15  O   -0.477272
    16  O   -0.541377
    17  N   -0.628890
    18  H    0.395240
    19  C   -0.068717
    20  H    0.179823
    21  C    0.620289
    22  C   -0.283055
    23  H    0.160316
    24  H    0.159896
    25  O   -0.504070
    26  C   -0.078204
    27  H    0.127940
    28  C   -0.444327
    29  H    0.147056
    30  H    0.150974
    31  H    0.148406
    32  C   -0.452665
    33  H    0.145558
    34  H    0.140668
    35  H    0.155297
    36  N   -0.639551
    37  H    0.379701
    38  C   -0.048854
    39  H    0.223319
    40  C    0.617754
    41  C   -0.289337
    42  H    0.155016
    43  H    0.180733
    44  O   -0.531114
    45  C   -0.316979
    46  H    0.173961
    47  H    0.188945
    48  C   -0.159169
    49  H    0.182628
    50  H    0.181787
    51  N   -0.635986
    52  H    0.429756
    53  N   -0.761739
    54  H    0.383968
    55  H    0.390183
    56  N   -0.763428
    57  H    0.378526
    58  H    0.391571
    59  C    0.816338
    60  O   -0.516323
    61  H    0.430092
    62  H    0.424090
 Sum of Mulliken charges =   1.00000

 Dipole moment (field-independent basis, Debye):
    X=             17.2335    Y=             21.6620    Z=            -16.9958  Tot=             32.4822
 Quadrupole moment (field-independent basis, Debye-Ang):
   XX=            -81.2140   YY=             -2.4008   ZZ=            -90.0120
   XY=            112.8577   XZ=            -82.2742   YZ=            -76.9238

 Normal termination of Gaussian 16 at Tue May 24 03:33:53 2022.
