 Gaussian 16, Revision C.01,
 Gaussian 16:  ES64L-G16RevC.01  3-Jul-2019

 -------------------------------------------------------------------
 # B3LYP/6-31G* guess=read geom=check nosymm integral(ultrafinegrid)
 -------------------------------------------------------------------

 ------------------------------------------------------
 Candidate Structure: Conf:797 Charge calc in gas phase
 ------------------------------------------------------
 Structure from the checkpoint file:  "conf-797.chk"
 Charge =  1 Multiplicity = 1

                          Input orientation:
 ---------------------------------------------------------------------
 Center     Atomic      Atomic             Coordinates (Angstroms)
 Number     Number       Type             X           Y           Z
 ---------------------------------------------------------------------
      1          7           0       -2.066363    1.585234   -4.088748
      2          1           0       -2.904412    1.881111   -3.591397
      3          1           0       -1.392451    2.340676   -3.959528
      4          6           0       -1.522590    0.382390   -3.466941
      5          1           0       -2.362383   -0.273516   -3.205694
      6          6           0       -0.737928    0.698553   -2.175224
      7          6           0       -0.642520   -0.403340   -4.473048
      8          1           0       -1.309785   -0.812391   -5.239095
      9          1           0       -0.164323   -1.247815   -3.962093
     10          8           0       -0.160074    1.781425   -2.022702
     11          6           0        0.425259    0.470063   -5.164698
     12          1           0       -0.065580    1.242942   -5.758929
     13          1           0        1.066778    0.944869   -4.415629
     14          6           0        1.277356   -0.344161   -6.107881
     15          8           0        1.228491   -0.352478   -7.311264
     16          8           0        2.166377   -1.160376   -5.433109
     17          7           0       -0.725994   -0.271324   -1.225347
     18          1           0       -1.169213   -1.159542   -1.421238
     19          6           0       -0.093714   -0.108353    0.091057
     20          1           0       -0.277792    0.927721    0.391253
     21          6           0        1.432386   -0.318550   -0.047446
     22          6           0       -0.718440   -1.087385    1.089772
     23          1           0       -0.461475   -2.105199    0.770546
     24          1           0       -1.810510   -0.983822    1.025823
     25          8           0        1.982613   -1.389201    0.186927
     26          6           0       -0.279917   -0.905954    2.557430
     27          1           0        0.814798   -0.987761    2.589037
     28          6           0       -0.685987    0.459825    3.133166
     29          1           0       -1.774146    0.597435    3.090294
     30          1           0       -0.385948    0.539995    4.184192
     31          1           0       -0.222381    1.297188    2.598789
     32          6           0       -0.857152   -2.045050    3.411460
     33          1           0       -1.954559   -2.023162    3.408812
     34          1           0       -0.539999   -3.025267    3.037439
     35          1           0       -0.527990   -1.960135    4.453236
     36          7           0        2.106599    0.800051   -0.460009
     37          1           0        1.522134    1.496375   -0.925512
     38          6           0        3.495060    0.700276   -0.894184
     39          1           0        3.758432    1.697102   -1.274096
     40          6           0        3.674689   -0.250925   -2.094839
     41          6           0        4.444504    0.351650    0.270735
     42          1           0        4.303945   -0.703322    0.520547
     43          1           0        4.120488    0.939123    1.138049
     44          8           0        4.702133   -0.843474   -2.358361
     45          6           0        5.921391    0.638947   -0.034175
     46          1           0        6.193636    0.108712   -0.952660
     47          1           0        6.080191    1.713720   -0.196775
     48          6           0        6.820883    0.165194    1.108064
     49          1           0        6.631594   -0.896608    1.313623
     50          1           0        6.629436    0.739771    2.021918
     51          7           0        8.240143    0.347063    0.738894
     52          1           0        8.437855    0.436090   -0.250818
     53          7           0        9.102411   -0.140360    2.836412
     54          1           0        9.821841   -0.008739    3.533147
     55          1           0        8.232122   -0.554215    3.137732
     56          7           0       10.510000    0.600923    1.155398
     57          1           0       11.332299    0.318223    1.669590
     58          1           0       10.656617    1.065648    0.270529
     59          6           0        9.276044    0.263036    1.569874
     60          8           0        2.579786   -0.274920   -2.859153
     61          1           0        2.731071   -0.805452   -3.675222
     62          1           0        2.648556   -1.663493   -6.116819
 ---------------------------------------------------------------------

 SCF Done:  E(RB3LYP) =  -1447.41143354     A.U. after    2 cycles

 Alpha  occ. eigenvalues --  -19.27518 -19.26689 -19.21885 -19.21069 -19.19852
 Alpha  occ. eigenvalues --  -19.19536 -14.54731 -14.54526 -14.54445 -14.44459
 Alpha  occ. eigenvalues --  -14.43152 -14.37925 -10.50949 -10.40111 -10.39156
 Alpha  occ. eigenvalues --  -10.37358 -10.36285 -10.36123 -10.32952 -10.30790
 Alpha  occ. eigenvalues --  -10.30665 -10.29802 -10.28731 -10.26548 -10.26355
 Alpha  occ. eigenvalues --  -10.25531 -10.25403 -10.23593 -10.23163  -1.19359
 Alpha  occ. eigenvalues --   -1.18196  -1.17430  -1.11686  -1.10868  -1.09313
 Alpha  occ. eigenvalues --   -1.08609  -1.08452  -1.07576  -1.00580  -1.00032
 Alpha  occ. eigenvalues --   -0.95610  -0.92325  -0.87950  -0.86393  -0.85967
 Alpha  occ. eigenvalues --   -0.82676  -0.81449  -0.79094  -0.77727  -0.76925
 Alpha  occ. eigenvalues --   -0.74355  -0.73639  -0.72665  -0.71905  -0.70557
 Alpha  occ. eigenvalues --   -0.68296  -0.68117  -0.67310  -0.67082  -0.65426
 Alpha  occ. eigenvalues --   -0.64412  -0.63276  -0.62540  -0.60922  -0.60839
 Alpha  occ. eigenvalues --   -0.59708  -0.58891  -0.57760  -0.57075  -0.56241
 Alpha  occ. eigenvalues --   -0.55972  -0.55371  -0.54609  -0.53893  -0.52780
 Alpha  occ. eigenvalues --   -0.52604  -0.52149  -0.51527  -0.50716  -0.50273
 Alpha  occ. eigenvalues --   -0.49754  -0.49305  -0.48982  -0.48580  -0.47732
 Alpha  occ. eigenvalues --   -0.47226  -0.46864  -0.46423  -0.46000  -0.45798
 Alpha  occ. eigenvalues --   -0.45539  -0.44836  -0.44477  -0.44359  -0.43686
 Alpha  occ. eigenvalues --   -0.43061  -0.42851  -0.42607  -0.42390  -0.41599
 Alpha  occ. eigenvalues --   -0.39533  -0.39473  -0.39046  -0.38889  -0.38796
 Alpha  occ. eigenvalues --   -0.36817  -0.35486  -0.34361  -0.33862  -0.32892
 Alpha  occ. eigenvalues --   -0.31640  -0.30421
 Alpha virt. eigenvalues --   -0.14664  -0.10582  -0.07335  -0.06798  -0.06659
 Alpha virt. eigenvalues --   -0.06102  -0.05878  -0.05246  -0.05046  -0.01987
 Alpha virt. eigenvalues --   -0.01130  -0.00691   0.00448   0.01154   0.01850

 Mulliken charges:
               1
     1  N   -0.700136
     2  H    0.312661
     3  H    0.321875
     4  C   -0.089548
     5  H    0.147239
     6  C    0.622472
     7  C   -0.259743
     8  H    0.178197
     9  H    0.148028
    10  O   -0.554186
    11  C   -0.355758
    12  H    0.203043
    13  H    0.185938
    14  C    0.568321
    15  O   -0.426214
    16  O   -0.602285
    17  N   -0.605425
    18  H    0.340341
    19  C   -0.057154
    20  H    0.178616
    21  C    0.631995
    22  C   -0.284618
    23  H    0.158067
    24  H    0.141271
    25  O   -0.529971
    26  C   -0.080228
    27  H    0.139142
    28  C   -0.452115
    29  H    0.149183
    30  H    0.150135
    31  H    0.140371
    32  C   -0.446551
    33  H    0.146355
    34  H    0.149835
    35  H    0.147116
    36  N   -0.616610
    37  H    0.378208
    38  C   -0.059837
    39  H    0.175091
    40  C    0.620937
    41  C   -0.272054
    42  H    0.195858
    43  H    0.155662
    44  O   -0.482924
    45  C   -0.330114
    46  H    0.200811
    47  H    0.156094
    48  C   -0.146537
    49  H    0.192691
    50  H    0.184109
    51  N   -0.607837
    52  H    0.371101
    53  N   -0.756267
    54  H    0.389037
    55  H    0.397967
    56  N   -0.762462
    57  H    0.388304
    58  H    0.388627
    59  C    0.840096
    60  O   -0.587491
    61  H    0.447990
    62  H    0.423281
 Sum of Mulliken charges =   1.00000

 Dipole moment (field-independent basis, Debye):
    X=             36.3101    Y=              1.1978    Z=              7.1659  Tot=             37.0298
 Quadrupole moment (field-independent basis, Debye-Ang):
   XX=            209.6993   YY=           -169.7696   ZZ=           -158.8556
   XY=             19.5868   XZ=             63.7142   YZ=              4.4663

 Normal termination of Gaussian 16 at Tue May 24 03:40:37 2022.
