 Gaussian 16, Revision C.01,
 Gaussian 16:  ES64L-G16RevC.01  3-Jul-2019

 -------------------------------------------------------------------
 # B3LYP/6-31G* guess=read geom=check nosymm integral(ultrafinegrid)
 -------------------------------------------------------------------

 ------------------------------------------------------
 Candidate Structure: Conf:123 Charge calc in gas phase
 ------------------------------------------------------
 Structure from the checkpoint file:  "conf-123.chk"
 Charge =  1 Multiplicity = 1

                          Input orientation:
 ---------------------------------------------------------------------
 Center     Atomic      Atomic             Coordinates (Angstroms)
 Number     Number       Type             X           Y           Z
 ---------------------------------------------------------------------
      1          7           0       -2.073618    0.241242   -4.155230
      2          1           0       -2.912868    0.062391   -3.605557
      3          1           0       -1.934991    1.252182   -4.147043
      4          6           0       -0.910698   -0.391702   -3.527168
      5          1           0       -1.157786   -1.448092   -3.358750
      6          6           0       -0.544865    0.291479   -2.200532
      7          6           0        0.273781   -0.299571   -4.503150
      8          1           0        0.500750    0.760966   -4.661288
      9          1           0       -0.054119   -0.718451   -5.459229
     10          8           0       -0.222382    1.482151   -2.172454
     11          6           0        1.544912   -1.032492   -4.011240
     12          1           0        1.906408   -0.601720   -3.071257
     13          1           0        1.330878   -2.092771   -3.847453
     14          6           0        2.604900   -0.964618   -5.077160
     15          8           0        2.826427   -1.776375   -5.936690
     16          8           0        3.328387    0.229557   -5.051987
     17          7           0       -0.636102   -0.457429   -1.069508
     18          1           0       -0.751021   -1.458450   -1.152042
     19          6           0       -0.218580    0.079532    0.218391
     20          1           0       -0.816286    0.975770    0.415420
     21          6           0        1.268261    0.480278    0.146370
     22          6           0       -0.422735   -0.957597    1.337880
     23          1           0       -0.036144   -0.523527    2.269840
     24          1           0        0.216384   -1.823330    1.115847
     25          8           0        2.107802   -0.234400   -0.398434
     26          6           0       -1.876312   -1.422040    1.570933
     27          1           0       -2.259024   -1.851375    0.632738
     28          6           0       -1.896119   -2.533007    2.632041
     29          1           0       -1.534908   -2.159211    3.598415
     30          1           0       -2.912724   -2.911995    2.782134
     31          1           0       -1.261584   -3.378852    2.342495
     32          6           0       -2.804993   -0.266375    1.970925
     33          1           0       -2.452290    0.220995    2.889131
     34          1           0       -2.879975    0.498000    1.189247
     35          1           0       -3.818373   -0.635338    2.162318
     36          7           0        1.574952    1.659836    0.748231
     37          1           0        0.863717    2.194267    1.232531
     38          6           0        2.932316    2.155813    0.846193
     39          1           0        3.604836    1.291844    0.875352
     40          6           0        3.056563    2.928532    2.154549
     41          6           0        3.345741    3.062965   -0.344809
     42          1           0        4.398697    3.334005   -0.197101
     43          1           0        2.763894    3.994013   -0.307623
     44          8           0        2.119959    3.271306    2.839615
     45          6           0        3.136255    2.375602   -1.701064
     46          1           0        3.535459    1.357304   -1.662534
     47          1           0        2.064427    2.267147   -1.900788
     48          6           0        3.741354    3.129567   -2.887162
     49          1           0        3.394656    4.165707   -2.921620
     50          1           0        3.438266    2.665714   -3.831599
     51          7           0        5.222419    3.211482   -2.849973
     52          1           0        5.635144    4.115553   -2.664762
     53          7           0        5.652806    1.003230   -3.459029
     54          1           0        6.241328    0.189109   -3.349439
     55          1           0        4.712972    0.840992   -3.826068
     56          7           0        7.367350    2.346228   -2.685585
     57          1           0        8.067235    1.701452   -3.023933
     58          1           0        7.695607    3.164811   -2.194233
     59          6           0        6.065446    2.188005   -2.998775
     60          8           0        4.341998    3.220606    2.439468
     61          1           0        4.339119    3.729139    3.273797
     62          1           0        3.843536    0.211836   -5.883397
 ---------------------------------------------------------------------

 SCF Done:  E(RB3LYP) =  -1447.41585029     A.U. after    1 cycles

 Alpha  occ. eigenvalues --  -19.31127 -19.29878 -19.24481 -19.24259 -19.20578
 Alpha  occ. eigenvalues --  -19.20244 -14.53529 -14.53456 -14.52602 -14.45404
 Alpha  occ. eigenvalues --  -14.45143 -14.39633 -10.49724 -10.42424 -10.42263
 Alpha  occ. eigenvalues --  -10.37752 -10.36864 -10.36254 -10.34163 -10.32105
 Alpha  occ. eigenvalues --  -10.30970 -10.30260 -10.29543 -10.29337 -10.27959
 Alpha  occ. eigenvalues --  -10.27319 -10.26877 -10.24454 -10.24203  -1.20864
 Alpha  occ. eigenvalues --   -1.20797  -1.18029  -1.12916  -1.12065  -1.11969
 Alpha  occ. eigenvalues --   -1.11570  -1.07253  -1.06018  -1.02126  -1.01260
 Alpha  occ. eigenvalues --   -0.97051  -0.91679  -0.89156  -0.88550  -0.87308
 Alpha  occ. eigenvalues --   -0.83430  -0.81823  -0.79609  -0.78828  -0.75662
 Alpha  occ. eigenvalues --   -0.75381  -0.74208  -0.73511  -0.72876  -0.70307
 Alpha  occ. eigenvalues --   -0.70061  -0.68867  -0.68089  -0.66657  -0.66456
 Alpha  occ. eigenvalues --   -0.66262  -0.64118  -0.62672  -0.61586  -0.60479
 Alpha  occ. eigenvalues --   -0.59579  -0.59268  -0.58963  -0.58495  -0.57982
 Alpha  occ. eigenvalues --   -0.57407  -0.57237  -0.56632  -0.55741  -0.54300
 Alpha  occ. eigenvalues --   -0.54041  -0.53661  -0.53507  -0.52954  -0.52007
 Alpha  occ. eigenvalues --   -0.51453  -0.51292  -0.50211  -0.50031  -0.49443
 Alpha  occ. eigenvalues --   -0.49091  -0.48379  -0.47711  -0.47598  -0.46480
 Alpha  occ. eigenvalues --   -0.46269  -0.45822  -0.45400  -0.45136  -0.44918
 Alpha  occ. eigenvalues --   -0.44072  -0.43912  -0.43479  -0.43048  -0.42473
 Alpha  occ. eigenvalues --   -0.42028  -0.41779  -0.40397  -0.40137  -0.40012
 Alpha  occ. eigenvalues --   -0.37915  -0.37675  -0.35830  -0.35199  -0.34799
 Alpha  occ. eigenvalues --   -0.33557  -0.31262
 Alpha virt. eigenvalues --   -0.13622  -0.10070  -0.09696  -0.09211  -0.07437
 Alpha virt. eigenvalues --   -0.06186  -0.05885  -0.05591  -0.04135  -0.01875
 Alpha virt. eigenvalues --   -0.01532  -0.01273   0.00055   0.00317   0.01638

 Mulliken charges:
               1
     1  N   -0.696380
     2  H    0.311953
     3  H    0.315682
     4  C   -0.072795
     5  H    0.138287
     6  C    0.624843
     7  C   -0.266882
     8  H    0.161935
     9  H    0.187080
    10  O   -0.555216
    11  C   -0.361467
    12  H    0.197413
    13  H    0.184847
    14  C    0.564347
    15  O   -0.414176
    16  O   -0.612579
    17  N   -0.601073
    18  H    0.339599
    19  C   -0.038584
    20  H    0.167267
    21  C    0.653217
    22  C   -0.300695
    23  H    0.154790
    24  H    0.156826
    25  O   -0.556130
    26  C   -0.074892
    27  H    0.122111
    28  C   -0.444691
    29  H    0.150603
    30  H    0.158630
    31  H    0.146373
    32  C   -0.454069
    33  H    0.148845
    34  H    0.147465
    35  H    0.161628
    36  N   -0.605780
    37  H    0.356141
    38  C   -0.039298
    39  H    0.197294
    40  C    0.585810
    41  C   -0.268106
    42  H    0.141169
    43  H    0.159843
    44  O   -0.450261
    45  C   -0.305426
    46  H    0.170272
    47  H    0.226530
    48  C   -0.191720
    49  H    0.190221
    50  H    0.198017
    51  N   -0.592942
    52  H    0.365026
    53  N   -0.788968
    54  H    0.378206
    55  H    0.432610
    56  N   -0.765226
    57  H    0.384439
    58  H    0.382174
    59  C    0.819383
    60  O   -0.569390
    61  H    0.428484
    62  H    0.417383
 Sum of Mulliken charges =   1.00000

 Dipole moment (field-independent basis, Debye):
    X=             22.9257    Y=              9.5756    Z=             -8.7400  Tot=             26.3376
 Quadrupole moment (field-independent basis, Debye-Ang):
   XX=              2.3027   YY=           -133.0352   ZZ=           -137.2825
   XY=             70.1279   XZ=            -63.6880   YZ=            -25.1116

 Normal termination of Gaussian 16 at Tue May 24 03:35:27 2022.
