 Gaussian 16, Revision C.01,
 Gaussian 16:  ES64L-G16RevC.01  3-Jul-2019

 -------------------------------------------------------------------
 # B3LYP/6-31G* guess=read geom=check nosymm integral(ultrafinegrid)
 -------------------------------------------------------------------

 ------------------------------------------------------
 Candidate Structure: Conf:797 Charge calc in gas phase
 ------------------------------------------------------
 Structure from the checkpoint file:  "conf-797.chk"
 Charge =  1 Multiplicity = 1

                          Input orientation:
 ---------------------------------------------------------------------
 Center     Atomic      Atomic             Coordinates (Angstroms)
 Number     Number       Type             X           Y           Z
 ---------------------------------------------------------------------
      1          7           0       -3.869944   -3.336264   -2.390810
      2          1           0       -4.273258   -4.148353   -2.863720
      3          1           0       -2.814561   -3.281172   -2.551425
      4          1           0       -4.056170   -3.415432   -1.386277
      5          6           0       -4.338176   -2.002151   -2.951458
      6          1           0       -4.915429   -2.215268   -3.854622
      7          6           0       -2.990970   -1.316852   -3.320554
      8          6           0       -5.202264   -1.246871   -1.914687
      9          1           0       -5.892984   -1.976982   -1.469486
     10          1           0       -4.550050   -0.871596   -1.116393
     11          8           0       -1.950638   -1.970848   -3.132962
     12          6           0       -6.013859   -0.118210   -2.525627
     13          6           0       -5.722243    1.219531   -2.229289
     14          1           0       -4.893639    1.457371   -1.568147
     15          6           0       -7.089237   -0.406363   -3.380340
     16          1           0       -7.348026   -1.440834   -3.601460
     17          6           0       -6.487114    2.249335   -2.782710
     18          1           0       -6.250257    3.281957   -2.545211
     19          6           0       -7.851842    0.621111   -3.932227
     20          1           0       -8.684768    0.383625   -4.587402
     21          6           0       -7.550581    1.952698   -3.634069
     22          1           0       -8.145001    2.753787   -4.062853
     23          7           0       -3.025685   -0.080873   -3.810952
     24          1           0       -3.895231    0.451074   -3.847077
     25          6           0       -1.809288    0.742159   -3.933487
     26          1           0       -1.012693    0.129302   -4.362909
     27          6           0       -1.459487    1.206513   -2.505344
     28          6           0       -2.142416    1.938444   -4.840993
     29          1           0       -2.304903    1.588670   -5.864600
     30          1           0       -1.288506    2.630085   -4.846881
     31          8           0       -2.078974    2.155530   -1.989634
     32          8           0       -3.339751    2.563064   -4.419887
     33          1           0       -3.157664    2.875766   -3.510984
     34          7           0       -0.531080    0.487336   -1.864984
     35          1           0       -0.076076   -0.316497   -2.293262
     36          6           0       -0.228868    0.654198   -0.452396
     37          1           0       -0.207848    1.724718   -0.225167
     38          6           0        1.146697   -0.006521   -0.224243
     39          6           0       -1.292346   -0.050891    0.428777
     40          1           0       -1.136348    0.245564    1.475900
     41          1           0       -1.152837   -1.134797    0.358493
     42          8           0        1.494101   -0.934714   -0.958647
     43          8           0       -2.626696    0.207753    0.007817
     44          1           0       -2.681325    1.150335   -0.232183
     45          7           0        1.850998    0.473291    0.809219
     46          1           0        1.493820    1.212483    1.413334
     47          6           0        3.124371   -0.073175    1.270455
     48          1           0        3.044342   -1.161908    1.356610
     49          6           0        3.318685    0.541668    2.678753
     50          6           0        4.277785    0.247106    0.287830
     51          1           0        3.927509    0.016295   -0.723421
     52          1           0        4.512119    1.317403    0.307298
     53          8           0        2.529953    1.382407    3.121016
     54          6           0        5.590608   -0.535318    0.495639
     55          8           0        6.556103   -0.276443   -0.226017
     56          8           0        5.584232   -1.426683    1.446157
     57          7           0        4.401479    0.103077    3.350752
     58          1           0        5.021918   -0.517940    2.814756
     59          6           0        4.818641    0.704330    4.601489
     60          1           0        4.060611    0.529725    5.373485
     61          6           0        4.963929    2.230262    4.531901
     62          6           0        6.172199    0.128062    5.076098
     63          1           0        6.440463    0.686958    5.978140
     64          1           0        6.939145    0.365813    4.327637
     65          8           0        4.801049    2.958499    5.482692
     66          6           0        6.185023   -1.385591    5.397511
     67          1           0        5.168311   -1.740358    5.606370
     68          1           0        6.748583   -1.546957    6.326623
     69          6           0        6.776895   -2.307435    4.316354
     70          1           0        6.689416   -3.350526    4.644353
     71          1           0        6.234234   -2.221015    3.376373
     72          7           0        8.199601   -2.023562    4.069218
     73          1           0        8.798843   -2.047284    4.883749
     74          7           0        8.147110   -1.763032    1.746341
     75          1           0        8.579291   -1.355067    0.924432
     76          1           0        7.070297   -1.741906    1.652437
     77          7           0       10.128210   -1.450986    2.921870
     78          1           0       10.675871   -1.676460    3.740058
     79          1           0       10.637910   -1.479711    2.050153
     80          6           0        8.798059   -1.755691    2.891490
     81          8           0        5.392859    2.663155    3.324867
     82          1           0        5.475090    3.632717    3.400193
 ---------------------------------------------------------------------

 SCF Done:  E(RB3LYP) =  -2166.27653111     A.U. after    3 cycles

 Alpha  occ. eigenvalues --  -19.26855 -19.24753 -19.23558 -19.22891 -19.22067
 Alpha  occ. eigenvalues --  -19.18924 -19.18790 -19.17741 -19.15328 -19.13273
 Alpha  occ. eigenvalues --  -14.59331 -14.49326 -14.47093 -14.46781 -14.45765
 Alpha  occ. eigenvalues --  -14.42778 -14.42745 -14.40475 -10.43435 -10.42293
 Alpha  occ. eigenvalues --  -10.40401 -10.39155 -10.37018 -10.36295 -10.34356
 Alpha  occ. eigenvalues --  -10.34237 -10.32973 -10.32872 -10.32423 -10.32235
 Alpha  occ. eigenvalues --  -10.32023 -10.31011 -10.30393 -10.29820 -10.29055
 Alpha  occ. eigenvalues --  -10.28967 -10.28612 -10.28314 -10.28113 -10.27989
 Alpha  occ. eigenvalues --  -10.27232 -10.26638 -10.23307  -1.19225  -1.15582
 Alpha  occ. eigenvalues --   -1.14161  -1.13192  -1.11137  -1.10725  -1.10591
 Alpha  occ. eigenvalues --   -1.10201  -1.09367  -1.07526  -1.06520  -1.05632
 Alpha  occ. eigenvalues --   -1.01993  -1.00708  -0.99313  -0.99076  -0.98021
 Alpha  occ. eigenvalues --   -0.97396  -0.95994  -0.92126  -0.87792  -0.87479
 Alpha  occ. eigenvalues --   -0.85379  -0.84317  -0.83873  -0.82931  -0.80970
 Alpha  occ. eigenvalues --   -0.79050  -0.75983  -0.75456  -0.73969  -0.73893
 Alpha  occ. eigenvalues --   -0.73281  -0.72310  -0.71888  -0.70718  -0.70068
 Alpha  occ. eigenvalues --   -0.69116  -0.68391  -0.67602  -0.67470  -0.67196
 Alpha  occ. eigenvalues --   -0.65833  -0.64947  -0.64428  -0.63369  -0.62898
 Alpha  occ. eigenvalues --   -0.61917  -0.60701  -0.60466  -0.60068  -0.59869
 Alpha  occ. eigenvalues --   -0.59552  -0.58018  -0.57490  -0.57461  -0.56767
 Alpha  occ. eigenvalues --   -0.56116  -0.55771  -0.55336  -0.55116  -0.54539
 Alpha  occ. eigenvalues --   -0.54297  -0.53863  -0.53811  -0.53225  -0.52893
 Alpha  occ. eigenvalues --   -0.52524  -0.52083  -0.51710  -0.51527  -0.51262
 Alpha  occ. eigenvalues --   -0.51103  -0.50858  -0.50665  -0.50389  -0.50266
 Alpha  occ. eigenvalues --   -0.49718  -0.49260  -0.49039  -0.48060  -0.47761
 Alpha  occ. eigenvalues --   -0.47299  -0.47000  -0.46604  -0.45844  -0.45688
 Alpha  occ. eigenvalues --   -0.45447  -0.45332  -0.44322  -0.43981  -0.43577
 Alpha  occ. eigenvalues --   -0.43500  -0.43209  -0.42834  -0.42638  -0.42145
 Alpha  occ. eigenvalues --   -0.41548  -0.41281  -0.40573  -0.40164  -0.39372
 Alpha  occ. eigenvalues --   -0.37008  -0.36938  -0.36657  -0.36608  -0.35379
 Alpha  occ. eigenvalues --   -0.35041  -0.34543  -0.34390  -0.34281  -0.33771
 Alpha  occ. eigenvalues --   -0.33002  -0.32586  -0.31793  -0.30472  -0.30235
 Alpha  occ. eigenvalues --   -0.29878  -0.27393
 Alpha virt. eigenvalues --   -0.12748  -0.10691  -0.10101  -0.09665  -0.08447
 Alpha virt. eigenvalues --   -0.06284  -0.05564  -0.05146  -0.04340  -0.03930
 Alpha virt. eigenvalues --   -0.03097  -0.02977  -0.01660  -0.00057  -0.00012

 Mulliken charges:
               1
     1  N   -0.764004
     2  H    0.413607
     3  H    0.439445
     4  H    0.416790
     5  C   -0.103634
     6  H    0.224779
     7  C    0.661419
     8  C   -0.412941
     9  H    0.175776
    10  H    0.231483
    11  O   -0.545258
    12  C    0.132034
    13  C   -0.201107
    14  H    0.155608
    15  C   -0.179745
    16  H    0.124304
    17  C   -0.110979
    18  H    0.161543
    19  C   -0.123201
    20  H    0.158234
    21  C   -0.120970
    22  H    0.162770
    23  N   -0.594668
    24  H    0.389052
    25  C   -0.097151
    26  H    0.192680
    27  C    0.650245
    28  C   -0.054943
    29  H    0.172466
    30  H    0.166912
    31  O   -0.584268
    32  O   -0.629494
    33  H    0.426130
    34  N   -0.578408
    35  H    0.374062
    36  C   -0.113945
    37  H    0.187745
    38  C    0.625587
    39  C   -0.007653
    40  H    0.158430
    41  H    0.149786
    42  O   -0.544960
    43  O   -0.651750
    44  H    0.427048
    45  N   -0.627637
    46  H    0.359913
    47  C   -0.046137
    48  H    0.192158
    49  C    0.609615
    50  C   -0.369139
    51  H    0.195461
    52  H    0.171924
    53  O   -0.551638
    54  C    0.613098
    55  O   -0.554107
    56  O   -0.665226
    57  N   -0.657377
    58  H    0.401277
    59  C    0.002667
    60  H    0.184442
    61  C    0.592650
    62  C   -0.319217
    63  H    0.179506
    64  H    0.162651
    65  O   -0.463280
    66  C   -0.282723
    67  H    0.173409
    68  H    0.146868
    69  C   -0.179376
    70  H    0.174217
    71  H    0.232180
    72  N   -0.605069
    73  H    0.340085
    74  N   -0.772841
    75  H    0.361910
    76  H    0.444752
    77  N   -0.757345
    78  H    0.355666
    79  H    0.368117
    80  C    0.780015
    81  O   -0.566552
    82  H    0.416225
 Sum of Mulliken charges =   1.00000

 Dipole moment (field-independent basis, Debye):
    X=             -0.9913    Y=            -12.5890    Z=             -2.8789  Tot=             12.9519
 Quadrupole moment (field-independent basis, Debye-Ang):
   XX=             24.6449   YY=           -201.6802   ZZ=           -185.0848
   XY=              0.2644   XZ=            135.3233   YZ=            -11.4812

 Normal termination of Gaussian 16 at Thu May 26 21:38:47 2022.
