 Gaussian 16, Revision C.01,
 Gaussian 16:  ES64L-G16RevC.01  3-Jul-2019

 -------------------------------------------------------------------
 # B3LYP/6-31G* guess=read geom=check nosymm integral(ultrafinegrid)
 -------------------------------------------------------------------

 ------------------------------------------------------
 Candidate Structure: Conf:197 Charge calc in gas phase
 ------------------------------------------------------
 Structure from the checkpoint file:  "conf-197.chk"
 Charge =  1 Multiplicity = 1

                          Input orientation:
 ---------------------------------------------------------------------
 Center     Atomic      Atomic             Coordinates (Angstroms)
 Number     Number       Type             X           Y           Z
 ---------------------------------------------------------------------
      1          7           0       -5.010712   -4.706147   -4.927749
      2          1           0       -4.865685   -4.668088   -5.940468
      3          1           0       -4.161029   -5.159019   -4.490104
      4          1           0       -5.885827   -5.216034   -4.735767
      5          6           0       -5.016420   -3.339067   -4.285220
      6          1           0       -5.276400   -2.604961   -5.050306
      7          6           0       -3.554459   -3.185266   -3.787441
      8          6           0       -6.037352   -3.310392   -3.120840
      9          1           0       -5.657894   -3.943517   -2.309778
     10          1           0       -6.058666   -2.284956   -2.736072
     11          8           0       -2.880201   -4.217138   -3.690386
     12          6           0       -7.416582   -3.766460   -3.549938
     13          6           0       -8.266284   -2.912515   -4.269139
     14          1           0       -7.960322   -1.888214   -4.471733
     15          6           0       -7.842462   -5.077372   -3.280255
     16          1           0       -7.218037   -5.736674   -2.678580
     17          6           0       -9.512290   -3.358979   -4.706564
     18          1           0      -10.165956   -2.683470   -5.250458
     19          6           0       -9.090922   -5.526195   -3.724132
     20          1           0       -9.412706   -6.537932   -3.495697
     21          6           0       -9.924992   -4.668025   -4.439375
     22          1           0      -10.897712   -5.011160   -4.778450
     23          7           0       -3.175519   -1.948400   -3.477236
     24          1           0       -3.845890   -1.180382   -3.420966
     25          6           0       -1.886115   -1.590017   -2.898916
     26          1           0       -1.479631   -2.462051   -2.378776
     27          6           0       -2.184281   -0.420881   -1.931893
     28          6           0       -0.893128   -1.139933   -3.985574
     29          1           0        0.069105   -0.912656   -3.504508
     30          1           0       -1.266679   -0.212022   -4.447625
     31          8           0       -3.264773    0.170132   -2.008026
     32          8           0       -0.783247   -2.188879   -4.928144
     33          1           0       -0.070644   -1.965843   -5.546616
     34          7           0       -1.194183   -0.105141   -1.083448
     35          1           0       -0.286834   -0.570790   -1.108665
     36          6           0       -1.181414    1.084912   -0.246721
     37          1           0       -1.739103    1.884950   -0.744068
     38          6           0        0.306579    1.447409   -0.072451
     39          6           0       -1.838927    0.803971    1.122894
     40          1           0       -1.270997    0.014427    1.632553
     41          1           0       -2.858324    0.437537    0.940319
     42          8           0        1.172509    0.594755   -0.272135
     43          8           0       -1.860925    2.002109    1.885205
     44          1           0       -1.732178    1.755505    2.821032
     45          7           0        0.553232    2.711032    0.331112
     46          1           0       -0.248287    3.288278    0.555593
     47          6           0        1.873066    3.160249    0.787957
     48          1           0        2.636003    2.827452    0.083447
     49          6           0        2.241249    2.546904    2.155542
     50          6           0        1.878286    4.699363    0.853565
     51          1           0        1.553542    5.072173   -0.126257
     52          1           0        1.160193    5.055260    1.601714
     53          8           0        3.386368    2.242428    2.448722
     54          6           0        3.285306    5.290784    1.131976
     55          8           0        4.233255    4.878709    0.464691
     56          8           0        3.316633    6.204162    2.045419
     57          7           0        1.204460    2.470259    3.060412
     58          1           0        0.250014    2.577580    2.740714
     59          6           0        1.435003    2.041395    4.424030
     60          1           0        2.334723    1.415929    4.422566
     61          6           0        0.265849    1.201808    4.907598
     62          6           0        1.672673    3.231807    5.405936
     63          1           0        1.859055    2.827434    6.407602
     64          1           0        0.750673    3.828114    5.460656
     65          8           0       -0.824203    1.106384    4.367615
     66          6           0        2.829588    4.111417    4.923531
     67          1           0        2.655246    4.362689    3.876342
     68          1           0        3.770739    3.550731    4.943844
     69          6           0        3.003375    5.451363    5.658602
     70          1           0        2.032687    5.898616    5.898578
     71          1           0        3.544618    5.343050    6.603256
     72          7           0        3.700167    6.405171    4.775960
     73          1           0        3.223289    6.496404    3.865189
     74          7           0        5.862622    6.200715    5.654120
     75          1           0        6.860802    6.269203    5.518580
     76          1           0        5.528060    6.441572    6.575908
     77          7           0        5.505836    6.618972    3.373468
     78          1           0        4.794153    6.490773    2.574268
     79          1           0        6.493136    6.749450    3.204699
     80          6           0        5.039695    6.408582    4.592213
     81          8           0        0.545006    0.575319    6.060407
     82          1           0       -0.258244    0.088907    6.328936
 ---------------------------------------------------------------------

 SCF Done:  E(RB3LYP) =  -2166.26764806     A.U. after    2 cycles

 Alpha  occ. eigenvalues --  -19.28156 -19.25565 -19.23823 -19.23250 -19.21616
 Alpha  occ. eigenvalues --  -19.21521 -19.18835 -19.16265 -19.12332 -19.10334
 Alpha  occ. eigenvalues --  -14.58904 -14.48544 -14.45145 -14.45090 -14.42669
 Alpha  occ. eigenvalues --  -14.42414 -14.41866 -14.41357 -10.42570 -10.40916
 Alpha  occ. eigenvalues --  -10.40010 -10.39768 -10.38708 -10.35746 -10.33951
 Alpha  occ. eigenvalues --  -10.33683 -10.33499 -10.33431 -10.31970 -10.31119
 Alpha  occ. eigenvalues --  -10.30945 -10.30808 -10.30720 -10.30358 -10.30067
 Alpha  occ. eigenvalues --  -10.29950 -10.29695 -10.29570 -10.29545 -10.27959
 Alpha  occ. eigenvalues --  -10.26175 -10.24388 -10.22556  -1.19421  -1.18145
 Alpha  occ. eigenvalues --   -1.13632  -1.12835  -1.11313  -1.10817  -1.10346
 Alpha  occ. eigenvalues --   -1.08778  -1.08436  -1.08348  -1.05121  -1.04406
 Alpha  occ. eigenvalues --   -1.01601  -0.99466  -0.98197  -0.97754  -0.97355
 Alpha  occ. eigenvalues --   -0.96398  -0.95420  -0.92735  -0.88340  -0.86489
 Alpha  occ. eigenvalues --   -0.85822  -0.85543  -0.83816  -0.81927  -0.80555
 Alpha  occ. eigenvalues --   -0.79143  -0.75548  -0.75102  -0.73242  -0.73069
 Alpha  occ. eigenvalues --   -0.72698  -0.71549  -0.71324  -0.70474  -0.70025
 Alpha  occ. eigenvalues --   -0.69883  -0.68652  -0.67533  -0.66527  -0.65987
 Alpha  occ. eigenvalues --   -0.64997  -0.64916  -0.64090  -0.62857  -0.62522
 Alpha  occ. eigenvalues --   -0.62436  -0.61158  -0.60617  -0.59872  -0.59143
 Alpha  occ. eigenvalues --   -0.58256  -0.57428  -0.57166  -0.57099  -0.56960
 Alpha  occ. eigenvalues --   -0.56667  -0.56280  -0.55629  -0.55087  -0.54840
 Alpha  occ. eigenvalues --   -0.54324  -0.53945  -0.53780  -0.53236  -0.53100
 Alpha  occ. eigenvalues --   -0.53009  -0.52505  -0.52209  -0.51964  -0.51322
 Alpha  occ. eigenvalues --   -0.50908  -0.50471  -0.50233  -0.50097  -0.49291
 Alpha  occ. eigenvalues --   -0.49010  -0.48396  -0.48130  -0.47696  -0.47185
 Alpha  occ. eigenvalues --   -0.47126  -0.46583  -0.46272  -0.45511  -0.45396
 Alpha  occ. eigenvalues --   -0.45202  -0.44949  -0.44252  -0.44102  -0.43730
 Alpha  occ. eigenvalues --   -0.43515  -0.42631  -0.41637  -0.41222  -0.40762
 Alpha  occ. eigenvalues --   -0.40736  -0.40312  -0.40034  -0.38861  -0.38248
 Alpha  occ. eigenvalues --   -0.38132  -0.37171  -0.36449  -0.36403  -0.35943
 Alpha  occ. eigenvalues --   -0.35804  -0.35617  -0.35523  -0.34141  -0.33509
 Alpha  occ. eigenvalues --   -0.32561  -0.32282  -0.30842  -0.29040  -0.27457
 Alpha  occ. eigenvalues --   -0.26958  -0.24613
 Alpha virt. eigenvalues --   -0.12625  -0.12059  -0.10309  -0.09238  -0.07777
 Alpha virt. eigenvalues --   -0.07340  -0.05105  -0.04852  -0.04138  -0.02730
 Alpha virt. eigenvalues --   -0.02337  -0.01594  -0.01480  -0.01031  -0.00415

 Mulliken charges:
               1
     1  N   -0.750394
     2  H    0.415914
     3  H    0.427327
     4  H    0.403405
     5  C   -0.114706
     6  H    0.212220
     7  C    0.671038
     8  C   -0.386594
     9  H    0.193523
    10  H    0.210600
    11  O   -0.528924
    12  C    0.139609
    13  C   -0.180936
    14  H    0.147043
    15  C   -0.229393
    16  H    0.150233
    17  C   -0.122495
    18  H    0.167396
    19  C   -0.120365
    20  H    0.166609
    21  C   -0.123834
    22  H    0.168635
    23  N   -0.595219
    24  H    0.366547
    25  C   -0.091862
    26  H    0.205976
    27  C    0.624316
    28  C   -0.020778
    29  H    0.161304
    30  H    0.144404
    31  O   -0.542675
    32  O   -0.615069
    33  H    0.413099
    34  N   -0.617714
    35  H    0.366629
    36  C   -0.074691
    37  H    0.189991
    38  C    0.621147
    39  C   -0.027170
    40  H    0.149056
    41  H    0.156003
    42  O   -0.531441
    43  O   -0.658982
    44  H    0.446146
    45  N   -0.623705
    46  H    0.348326
    47  C   -0.032954
    48  H    0.218216
    49  C    0.614351
    50  C   -0.383585
    51  H    0.169382
    52  H    0.131476
    53  O   -0.499757
    54  C    0.618222
    55  O   -0.531845
    56  O   -0.667734
    57  N   -0.631928
    58  H    0.334993
    59  C   -0.032584
    60  H    0.212668
    61  C    0.595438
    62  C   -0.273375
    63  H    0.164069
    64  H    0.140888
    65  O   -0.501342
    66  C   -0.285635
    67  H    0.189808
    68  H    0.172532
    69  C   -0.166722
    70  H    0.169006
    71  H    0.150779
    72  N   -0.600958
    73  H    0.396200
    74  N   -0.746587
    75  H    0.359423
    76  H    0.363118
    77  N   -0.763106
    78  H    0.437743
    79  H    0.342397
    80  C    0.750287
    81  O   -0.546774
    82  H    0.424338
 Sum of Mulliken charges =   1.00000

 Dipole moment (field-independent basis, Debye):
    X=            -18.3765    Y=             -9.2131    Z=             -5.3182  Tot=             21.2334
 Quadrupole moment (field-independent basis, Debye-Ang):
   XX=            -67.4553   YY=           -138.2760   ZZ=            -55.0611
   XY=            139.6743   XZ=            157.9558   YZ=            137.4465

 Normal termination of Gaussian 16 at Thu May 26 21:35:26 2022.
