 Gaussian 16, Revision C.01,
 Gaussian 16:  ES64L-G16RevC.01  3-Jul-2019

 -------------------------------------------------------------------
 # B3LYP/6-31G* guess=read geom=check nosymm integral(ultrafinegrid)
 -------------------------------------------------------------------

 ------------------------------------------------------
 Candidate Structure: Conf:242 Charge calc in gas phase
 ------------------------------------------------------
 Structure from the checkpoint file:  "conf-242.chk"
 Charge =  1 Multiplicity = 1

                          Input orientation:
 ---------------------------------------------------------------------
 Center     Atomic      Atomic             Coordinates (Angstroms)
 Number     Number       Type             X           Y           Z
 ---------------------------------------------------------------------
      1          7           0       -4.505875   -3.734349   -2.814444
      2          1           0       -4.407453   -4.157374   -3.741041
      3          1           0       -3.608681   -3.912633   -2.244601
      4          1           0       -5.330171   -4.130954   -2.355822
      5          6           0       -4.511399   -2.217052   -2.844115
      6          1           0       -4.660709   -1.893628   -3.876418
      7          6           0       -3.080381   -1.891270   -2.328531
      8          6           0       -5.633271   -1.665070   -1.930249
      9          1           0       -6.556264   -2.212018   -2.167634
     10          1           0       -5.375496   -1.884042   -0.887472
     11          8           0       -2.444530   -2.828838   -1.813261
     12          6           0       -5.879600   -0.179302   -2.117213
     13          6           0       -5.299627    0.761838   -1.253990
     14          1           0       -4.640927    0.434521   -0.453063
     15          6           0       -6.700807    0.264027   -3.164229
     16          1           0       -7.172072   -0.458314   -3.828684
     17          6           0       -5.541273    2.124783   -1.443857
     18          1           0       -5.091543    2.846582   -0.768228
     19          6           0       -6.938024    1.625365   -3.351476
     20          1           0       -7.579777    1.955552   -4.162966
     21          6           0       -6.358013    2.558580   -2.489449
     22          1           0       -6.544839    3.618938   -2.631398
     23          7           0       -2.649904   -0.646564   -2.453651
     24          1           0       -3.262198    0.046244   -2.868851
     25          6           0       -1.393337   -0.171176   -1.876159
     26          1           0       -0.561362   -0.738129   -2.303175
     27          6           0       -1.388769   -0.328350   -0.344653
     28          6           0       -1.191790    1.314711   -2.287619
     29          1           0       -0.451916    1.759097   -1.610169
     30          1           0       -2.140028    1.851805   -2.134198
     31          8           0       -2.391145   -0.220228    0.360766
     32          8           0       -0.806040    1.428111   -3.621157
     33          1           0        0.189051    1.384907   -3.602100
     34          7           0       -0.130377   -0.517261    0.121898
     35          1           0        0.637121   -0.593197   -0.575011
     36          6           0        0.240128   -0.457539    1.529838
     37          1           0       -0.275397    0.389966    2.004729
     38          6           0        1.758326   -0.198248    1.550961
     39          6           0       -0.136108   -1.745206    2.292936
     40          1           0        0.132769   -2.614917    1.682261
     41          1           0       -1.214739   -1.757401    2.456429
     42          8           0        2.557687   -0.950767    2.153197
     43          8           0        0.503509   -1.832753    3.574203
     44          1           0        1.438250   -1.984684    3.330697
     45          7           0        2.170286    0.851388    0.835816
     46          1           0        1.455798    1.387750    0.359492
     47          6           0        3.515152    0.925237    0.250305
     48          1           0        3.886875   -0.101769    0.198848
     49          6           0        4.403379    1.787209    1.155726
     50          6           0        3.402191    1.508526   -1.171702
     51          1           0        3.210353    2.585427   -1.123870
     52          1           0        4.361263    1.380063   -1.687616
     53          8           0        3.980345    2.809889    1.683455
     54          6           0        2.273564    0.838569   -2.027637
     55          8           0        1.806045    1.567383   -2.930753
     56          8           0        1.929770   -0.339050   -1.711159
     57          7           0        5.677941    1.323338    1.354769
     58          1           0        6.012330    0.561476    0.778863
     59          6           0        6.671978    2.150610    2.031038
     60          1           0        6.272524    3.171891    2.014698
     61          6           0        8.009732    2.191885    1.296729
     62          6           0        6.915470    1.772093    3.514593
     63          1           0        7.582820    2.533511    3.926491
     64          1           0        7.466424    0.823463    3.572295
     65          8           0        8.989740    2.746763    1.733325
     66          6           0        5.610385    1.683453    4.338676
     67          1           0        4.842533    2.312269    3.877943
     68          1           0        5.801590    2.090825    5.341108
     69          6           0        5.086032    0.232364    4.447843
     70          1           0        5.364289   -0.322447    3.550566
     71          1           0        5.536533   -0.290431    5.300594
     72          7           0        3.624213    0.097151    4.517392
     73          1           0        3.174962   -0.229231    3.653284
     74          7           0        3.390432    0.833170    6.706868
     75          1           0        2.810864    1.009657    7.513841
     76          1           0        4.274625    1.318242    6.670882
     77          7           0        1.544512    0.036656    5.538865
     78          1           0        1.117721   -0.533566    4.795529
     79          1           0        0.953858    0.273573    6.322177
     80          6           0        2.854226    0.326393    5.574498
     81          8           0        7.989450    1.533455    0.114110
     82          1           0        8.882277    1.624077   -0.271747
 ---------------------------------------------------------------------

 SCF Done:  E(RB3LYP) =  -2166.26343971     A.U. after    1 cycles

 Alpha  occ. eigenvalues --  -19.27893 -19.25061 -19.24242 -19.22902 -19.21643
 Alpha  occ. eigenvalues --  -19.19457 -19.19395 -19.17091 -19.13541 -19.13440
 Alpha  occ. eigenvalues --  -14.58197 -14.49732 -14.48269 -14.48061 -14.47614
 Alpha  occ. eigenvalues --  -14.45443 -14.44489 -14.42711 -10.45390 -10.41491
 Alpha  occ. eigenvalues --  -10.40078 -10.39225 -10.39212 -10.36641 -10.36264
 Alpha  occ. eigenvalues --  -10.33196 -10.32642 -10.32365 -10.32163 -10.32030
 Alpha  occ. eigenvalues --  -10.31767 -10.31135 -10.30405 -10.29553 -10.29486
 Alpha  occ. eigenvalues --  -10.28399 -10.28148 -10.27904 -10.27477 -10.27397
 Alpha  occ. eigenvalues --  -10.27310 -10.27255 -10.24589  -1.18575  -1.17563
 Alpha  occ. eigenvalues --   -1.14474  -1.13639  -1.12008  -1.11509  -1.10865
 Alpha  occ. eigenvalues --   -1.10756  -1.09530  -1.06850  -1.05654  -1.03712
 Alpha  occ. eigenvalues --   -1.03009  -1.02434  -1.01913  -1.00754  -0.99591
 Alpha  occ. eigenvalues --   -0.97922  -0.95099  -0.91098  -0.89297  -0.86799
 Alpha  occ. eigenvalues --   -0.85319  -0.84236  -0.83120  -0.82991  -0.81486
 Alpha  occ. eigenvalues --   -0.78973  -0.77996  -0.75333  -0.74833  -0.72682
 Alpha  occ. eigenvalues --   -0.72319  -0.71756  -0.71552  -0.70757  -0.70580
 Alpha  occ. eigenvalues --   -0.70410  -0.69121  -0.68345  -0.67792  -0.67273
 Alpha  occ. eigenvalues --   -0.66870  -0.66196  -0.65788  -0.63976  -0.62867
 Alpha  occ. eigenvalues --   -0.62262  -0.61539  -0.61112  -0.60811  -0.60026
 Alpha  occ. eigenvalues --   -0.59589  -0.58382  -0.58211  -0.57907  -0.57128
 Alpha  occ. eigenvalues --   -0.56985  -0.56598  -0.56131  -0.55762  -0.55295
 Alpha  occ. eigenvalues --   -0.54994  -0.54704  -0.54416  -0.54188  -0.53852
 Alpha  occ. eigenvalues --   -0.53163  -0.52149  -0.51779  -0.51399  -0.51044
 Alpha  occ. eigenvalues --   -0.50550  -0.50355  -0.50146  -0.49977  -0.49653
 Alpha  occ. eigenvalues --   -0.49388  -0.48874  -0.48703  -0.48478  -0.48169
 Alpha  occ. eigenvalues --   -0.48048  -0.47724  -0.47279  -0.46547  -0.45773
 Alpha  occ. eigenvalues --   -0.45575  -0.44960  -0.44675  -0.44575  -0.44051
 Alpha  occ. eigenvalues --   -0.43609  -0.43575  -0.43501  -0.43120  -0.42591
 Alpha  occ. eigenvalues --   -0.41983  -0.40494  -0.40320  -0.39786  -0.39601
 Alpha  occ. eigenvalues --   -0.37956  -0.37868  -0.37390  -0.37225  -0.36746
 Alpha  occ. eigenvalues --   -0.36218  -0.35719  -0.33767  -0.33579  -0.33312
 Alpha  occ. eigenvalues --   -0.33148  -0.33088  -0.32615  -0.30562  -0.29233
 Alpha  occ. eigenvalues --   -0.28142  -0.27450
 Alpha virt. eigenvalues --   -0.10615  -0.09672  -0.09659  -0.09282  -0.09129
 Alpha virt. eigenvalues --   -0.08708  -0.07073  -0.06115  -0.05712  -0.05387
 Alpha virt. eigenvalues --   -0.04782  -0.02624  -0.01750  -0.01452  -0.00633

 Mulliken charges:
               1
     1  N   -0.762918
     2  H    0.413706
     3  H    0.435155
     4  H    0.407757
     5  C   -0.111541
     6  H    0.217780
     7  C    0.669719
     8  C   -0.379835
     9  H    0.171204
    10  H    0.199919
    11  O   -0.550926
    12  C    0.126061
    13  C   -0.208402
    14  H    0.192994
    15  C   -0.179566
    16  H    0.127672
    17  C   -0.135528
    18  H    0.157174
    19  C   -0.125125
    20  H    0.156527
    21  C   -0.119704
    22  H    0.158959
    23  N   -0.581856
    24  H    0.367882
    25  C   -0.073803
    26  H    0.218809
    27  C    0.608305
    28  C   -0.048116
    29  H    0.137660
    30  H    0.134852
    31  O   -0.545672
    32  O   -0.645906
    33  H    0.441108
    34  N   -0.679320
    35  H    0.434311
    36  C   -0.043840
    37  H    0.182007
    38  C    0.593599
    39  C   -0.053182
    40  H    0.164254
    41  H    0.185150
    42  O   -0.598883
    43  O   -0.637664
    44  H    0.423697
    45  N   -0.532993
    46  H    0.359827
    47  C   -0.062930
    48  H    0.179414
    49  C    0.626413
    50  C   -0.394976
    51  H    0.180085
    52  H    0.176239
    53  O   -0.520928
    54  C    0.579475
    55  O   -0.569650
    56  O   -0.606795
    57  N   -0.618165
    58  H    0.350903
    59  C   -0.061610
    60  H    0.223508
    61  C    0.594743
    62  C   -0.277719
    63  H    0.191161
    64  H    0.150609
    65  O   -0.444636
    66  C   -0.307043
    67  H    0.208336
    68  H    0.137998
    69  C   -0.172508
    70  H    0.191549
    71  H    0.177774
    72  N   -0.635504
    73  H    0.423880
    74  N   -0.764342
    75  H    0.370282
    76  H    0.383379
    77  N   -0.800537
    78  H    0.407520
    79  H    0.361868
    80  C    0.799742
    81  O   -0.577104
    82  H    0.428259
 Sum of Mulliken charges =   1.00000

 Dipole moment (field-independent basis, Debye):
    X=             -6.7706    Y=             -8.7462    Z=              9.4682  Tot=             14.5596
 Quadrupole moment (field-independent basis, Debye-Ang):
   XX=            -96.3618   YY=           -212.8251   ZZ=           -125.2813
   XY=             44.5604   XZ=            105.5891   YZ=             49.0245

 Normal termination of Gaussian 16 at Thu May 26 21:35:15 2022.
