 Gaussian 16, Revision C.01,
 Gaussian 16:  ES64L-G16RevC.01  3-Jul-2019

 -------------------------------------------------------------------
 # B3LYP/6-31G* guess=read geom=check nosymm integral(ultrafinegrid)
 -------------------------------------------------------------------

 ------------------------------------------------------
 Candidate Structure: Conf:364 Charge calc in gas phase
 ------------------------------------------------------
 Structure from the checkpoint file:  "conf-364.chk"
 Charge =  1 Multiplicity = 1

                          Input orientation:
 ---------------------------------------------------------------------
 Center     Atomic      Atomic             Coordinates (Angstroms)
 Number     Number       Type             X           Y           Z
 ---------------------------------------------------------------------
      1          7           0       -3.957702   -0.992217   -7.372537
      2          1           0       -3.171310   -1.240650   -7.980895
      3          1           0       -4.115493   -1.803675   -6.730028
      4          1           0       -4.779744   -0.771553   -7.954740
      5          6           0       -3.635991    0.150770   -6.436313
      6          1           0       -2.945278    0.821725   -6.951454
      7          6           0       -2.998854   -0.541607   -5.210147
      8          6           0       -4.949946    0.884592   -6.080982
      9          1           0       -5.598148    0.187106   -5.536109
     10          1           0       -4.695534    1.688836   -5.382376
     11          8           0       -3.234533   -1.756066   -5.060678
     12          6           0       -5.657443    1.408284   -7.315269
     13          6           0       -5.138183    2.495697   -8.035766
     14          1           0       -4.243282    3.005066   -7.683497
     15          6           0       -6.819615    0.775909   -7.784290
     16          1           0       -7.248962   -0.053330   -7.224238
     17          6           0       -5.774506    2.946016   -9.190947
     18          1           0       -5.370954    3.797091   -9.731429
     19          6           0       -7.453909    1.224887   -8.947460
     20          1           0       -8.358360    0.732783   -9.292527
     21          6           0       -6.932182    2.309726   -9.650358
     22          1           0       -7.427507    2.665792  -10.548581
     23          7           0       -2.292618    0.234761   -4.404765
     24          1           0       -2.073060    1.215336   -4.622473
     25          6           0       -1.704940   -0.140672   -3.114775
     26          1           0       -2.486880   -0.526852   -2.450486
     27          6           0       -1.146297    1.196366   -2.569363
     28          6           0       -0.619467   -1.250567   -3.231294
     29          1           0        0.078442   -1.164382   -2.392756
     30          1           0       -0.045199   -1.074979   -4.155752
     31          8           0       -1.070034    2.172399   -3.320597
     32          8           0       -1.167872   -2.545160   -3.167928
     33          1           0       -1.878972   -2.603399   -3.830320
     34          7           0       -0.799491    1.184422   -1.267121
     35          1           0       -0.702141    0.269557   -0.832752
     36          6           0        0.145000    2.142858   -0.697755
     37          1           0        0.274194    2.964979   -1.403962
     38          6           0        1.458632    1.385026   -0.442141
     39          6           0       -0.380483    2.738011    0.639132
     40          1           0       -0.498327    1.928790    1.376038
     41          1           0       -1.370812    3.165889    0.447453
     42          8           0        1.451167    0.156170   -0.343081
     43          8           0        0.459701    3.763845    1.109135
     44          1           0        1.182977    3.363943    1.647721
     45          7           0        2.546713    2.178182   -0.288764
     46          1           0        2.330332    3.162025   -0.157394
     47          6           0        3.740527    1.711494    0.410147
     48          1           0        3.873987    0.652119    0.184381
     49          6           0        3.534156    1.856277    1.936649
     50          6           0        4.986465    2.500363   -0.071798
     51          1           0        5.035651    2.367437   -1.159917
     52          1           0        4.855584    3.571439    0.121607
     53          8           0        2.647648    2.558812    2.445318
     54          6           0        6.368664    2.067429    0.535432
     55          8           0        7.235426    2.955297    0.612702
     56          8           0        6.454932    0.847557    0.905821
     57          7           0        4.472754    1.189426    2.640053
     58          1           0        5.235597    0.762449    2.044960
     59          6           0        4.819896    1.516968    4.009528
     60          1           0        4.138053    2.301163    4.357064
     61          6           0        6.250950    2.103779    3.892778
     62          6           0        4.815544    0.291220    4.926684
     63          1           0        5.584564   -0.375901    4.516306
     64          1           0        3.862853   -0.241832    4.863455
     65          8           0        7.268149    1.632338    4.398946
     66          6           0        5.196173    0.643433    6.376176
     67          1           0        4.362755    1.061860    6.952434
     68          1           0        5.952428    1.426864    6.332293
     69          6           0        5.851246   -0.557169    7.067318
     70          1           0        5.132599   -1.304533    7.411727
     71          1           0        6.515120   -1.067227    6.360908
     72          7           0        6.701205   -0.195600    8.218657
     73          1           0        6.256704   -0.135394    9.126102
     74          7           0        8.445192    0.693231    6.920103
     75          1           0        9.293537    1.244580    6.903415
     76          1           0        7.917273    0.772311    6.039592
     77          7           0        8.540249    0.773393    9.240482
     78          1           0        8.302608    0.287417   10.095424
     79          1           0        9.516698    1.029303    9.175873
     80          6           0        7.883923    0.428058    8.102661
     81          8           0        6.240907    3.147481    3.086011
     82          1           0        7.133221    3.338959    2.734408
 ---------------------------------------------------------------------

 SCF Done:  E(RB3LYP) =  -2166.23008195     A.U. after    1 cycles

 Alpha  occ. eigenvalues --  -19.26403 -19.23422 -19.21101 -19.20775 -19.20136
 Alpha  occ. eigenvalues --  -19.17637 -19.16854 -19.16172 -19.07738 -19.07346
 Alpha  occ. eigenvalues --  -14.59983 -14.50700 -14.50690 -14.49534 -14.48784
 Alpha  occ. eigenvalues --  -14.43773 -14.40054 -14.38070 -10.46839 -10.43233
 Alpha  occ. eigenvalues --  -10.40552 -10.37949 -10.37669 -10.33816 -10.33579
 Alpha  occ. eigenvalues --  -10.33520 -10.33219 -10.32252 -10.31902 -10.31387
 Alpha  occ. eigenvalues --  -10.30617 -10.30300 -10.29884 -10.29812 -10.29569
 Alpha  occ. eigenvalues --  -10.28894 -10.28591 -10.28389 -10.27554 -10.26364
 Alpha  occ. eigenvalues --  -10.25890 -10.25653 -10.19460  -1.18607  -1.15487
 Alpha  occ. eigenvalues --   -1.15121  -1.13960  -1.12853  -1.08690  -1.08647
 Alpha  occ. eigenvalues --   -1.07091  -1.06644  -1.05256  -1.05155  -1.04565
 Alpha  occ. eigenvalues --   -1.03056  -1.00768  -1.00382  -0.97342  -0.96737
 Alpha  occ. eigenvalues --   -0.96351  -0.92974  -0.92077  -0.88740  -0.87598
 Alpha  occ. eigenvalues --   -0.85540  -0.85053  -0.83227  -0.81479  -0.79334
 Alpha  occ. eigenvalues --   -0.78820  -0.77212  -0.75043  -0.74829  -0.74008
 Alpha  occ. eigenvalues --   -0.73230  -0.72140  -0.71495  -0.70571  -0.70269
 Alpha  occ. eigenvalues --   -0.69799  -0.69356  -0.68420  -0.67895  -0.66405
 Alpha  occ. eigenvalues --   -0.65287  -0.64344  -0.63556  -0.63029  -0.62734
 Alpha  occ. eigenvalues --   -0.62175  -0.62073  -0.61290  -0.60155  -0.59608
 Alpha  occ. eigenvalues --   -0.58612  -0.58269  -0.57867  -0.57142  -0.56710
 Alpha  occ. eigenvalues --   -0.56600  -0.56086  -0.55893  -0.55549  -0.54436
 Alpha  occ. eigenvalues --   -0.54057  -0.53738  -0.53222  -0.52992  -0.52682
 Alpha  occ. eigenvalues --   -0.52434  -0.51832  -0.51420  -0.50850  -0.50648
 Alpha  occ. eigenvalues --   -0.49991  -0.49754  -0.49413  -0.49124  -0.48635
 Alpha  occ. eigenvalues --   -0.48405  -0.47548  -0.47120  -0.47037  -0.46710
 Alpha  occ. eigenvalues --   -0.45962  -0.45502  -0.45324  -0.45091  -0.44993
 Alpha  occ. eigenvalues --   -0.44235  -0.43768  -0.43137  -0.42695  -0.42426
 Alpha  occ. eigenvalues --   -0.42164  -0.41471  -0.41180  -0.40995  -0.40475
 Alpha  occ. eigenvalues --   -0.40162  -0.39245  -0.38796  -0.37588  -0.37216
 Alpha  occ. eigenvalues --   -0.36836  -0.36284  -0.36243  -0.35889  -0.35828
 Alpha  occ. eigenvalues --   -0.34758  -0.34440  -0.33758  -0.33422  -0.31451
 Alpha  occ. eigenvalues --   -0.31223  -0.30285  -0.29240  -0.28648  -0.23546
 Alpha  occ. eigenvalues --   -0.22373  -0.21541
 Alpha virt. eigenvalues --   -0.13043  -0.11782  -0.11243  -0.10802  -0.09760
 Alpha virt. eigenvalues --   -0.07181  -0.06833  -0.05456  -0.04621  -0.02987
 Alpha virt. eigenvalues --   -0.02809  -0.02762  -0.01968  -0.01725  -0.01172

 Mulliken charges:
               1
     1  N   -0.739288
     2  H    0.419509
     3  H    0.426418
     4  H    0.407854
     5  C   -0.124953
     6  H    0.217616
     7  C    0.667105
     8  C   -0.377934
     9  H    0.191261
    10  H    0.215649
    11  O   -0.565171
    12  C    0.130427
    13  C   -0.182843
    14  H    0.149010
    15  C   -0.219754
    16  H    0.148596
    17  C   -0.123018
    18  H    0.168755
    19  C   -0.120569
    20  H    0.167063
    21  C   -0.123177
    22  H    0.169366
    23  N   -0.620516
    24  H    0.376540
    25  C   -0.085699
    26  H    0.200713
    27  C    0.603447
    28  C   -0.037547
    29  H    0.202355
    30  H    0.135481
    31  O   -0.531022
    32  O   -0.622656
    33  H    0.417462
    34  N   -0.581400
    35  H    0.355292
    36  C   -0.116628
    37  H    0.197712
    38  C    0.606609
    39  C   -0.028464
    40  H    0.137907
    41  H    0.153225
    42  O   -0.540510
    43  O   -0.651101
    44  H    0.442958
    45  N   -0.580678
    46  H    0.340288
    47  C   -0.091776
    48  H    0.202677
    49  C    0.624987
    50  C   -0.359340
    51  H    0.161101
    52  H    0.143549
    53  O   -0.571330
    54  C    0.597136
    55  O   -0.594694
    56  O   -0.627353
    57  N   -0.617431
    58  H    0.398608
    59  C   -0.036870
    60  H    0.193281
    61  C    0.604016
    62  C   -0.268469
    63  H    0.163625
    64  H    0.169637
    65  O   -0.526699
    66  C   -0.289742
    67  H    0.162457
    68  H    0.153069
    69  C   -0.181406
    70  H    0.193740
    71  H    0.197637
    72  N   -0.587669
    73  H    0.362124
    74  N   -0.767138
    75  H    0.375438
    76  H    0.443462
    77  N   -0.751097
    78  H    0.373187
    79  H    0.376247
    80  C    0.789576
    81  O   -0.530249
    82  H    0.440020
 Sum of Mulliken charges =   1.00000

 Dipole moment (field-independent basis, Debye):
    X=             -4.8886    Y=             -2.6956    Z=             -0.7086  Tot=              5.6273
 Quadrupole moment (field-independent basis, Debye-Ang):
   XX=            -45.9413   YY=           -267.6556   ZZ=            256.0524
   XY=            -12.7055   XZ=            366.5900   YZ=              0.2055

 Normal termination of Gaussian 16 at Thu May 26 21:35:13 2022.
