 Gaussian 16, Revision C.01,
 Gaussian 16:  ES64L-G16RevC.01  3-Jul-2019

 -------------------------------------------------------------------
 # B3LYP/6-31G* guess=read geom=check nosymm integral(ultrafinegrid)
 -------------------------------------------------------------------

 ------------------------------------------------------
 Candidate Structure: Conf:883 Charge calc in gas phase
 ------------------------------------------------------
 Structure from the checkpoint file:  "conf-883.chk"
 Charge =  1 Multiplicity = 1

                          Input orientation:
 ---------------------------------------------------------------------
 Center     Atomic      Atomic             Coordinates (Angstroms)
 Number     Number       Type             X           Y           Z
 ---------------------------------------------------------------------
      1          7           0       -3.527098   -0.483506   -3.032444
      2          1           0       -2.614091    0.099574   -2.696412
      3          1           0       -3.377903   -0.921442   -3.947332
      4          1           0       -4.321330    0.162991   -3.120605
      5          6           0       -3.841171   -1.531237   -2.001509
      6          1           0       -3.651322   -1.050330   -1.039609
      7          6           0       -2.858422   -2.694921   -2.252295
      8          6           0       -5.303864   -2.003150   -2.105297
      9          1           0       -5.421017   -2.560346   -3.040091
     10          1           0       -5.471902   -2.717389   -1.290510
     11          8           0       -3.067527   -3.437074   -3.217699
     12          6           0       -6.290576   -0.856243   -2.023423
     13          6           0       -6.602205   -0.262284   -0.790689
     14          1           0       -6.162567   -0.656811    0.123157
     15          6           0       -6.884121   -0.341185   -3.186052
     16          1           0       -6.680740   -0.810287   -4.147046
     17          6           0       -7.484353    0.814951   -0.722149
     18          1           0       -7.723431    1.256341    0.241186
     19          6           0       -7.766949    0.740657   -3.119369
     20          1           0       -8.226163    1.118773   -4.028191
     21          6           0       -8.067014    1.320967   -1.887382
     22          1           0       -8.757407    2.157454   -1.832286
     23          7           0       -1.837839   -2.752971   -1.378540
     24          1           0       -1.742478   -1.938574   -0.761066
     25          6           0       -0.745536   -3.747415   -1.307512
     26          1           0       -1.065546   -4.570467   -0.654951
     27          6           0        0.373937   -3.016885   -0.543496
     28          6           0       -0.329857   -4.398220   -2.647341
     29          1           0        0.633806   -4.894055   -2.479521
     30          1           0       -0.184542   -3.617310   -3.412404
     31          8           0        0.182303   -2.654800    0.628946
     32          8           0       -1.209584   -5.404156   -3.062564
     33          1           0       -2.033174   -4.945581   -3.326154
     34          7           0        1.506094   -2.709050   -1.200691
     35          1           0        1.684819   -3.152058   -2.093312
     36          6           0        2.689034   -2.142735   -0.541034
     37          1           0        2.742222   -2.577284    0.464864
     38          6           0        2.659721   -0.605478   -0.388857
     39          6           0        3.937032   -2.544595   -1.337663
     40          1           0        4.822773   -2.302007   -0.741941
     41          1           0        3.989697   -1.955736   -2.264900
     42          8           0        3.698894    0.046281   -0.506642
     43          8           0        3.817789   -3.936239   -1.607445
     44          1           0        4.607298   -4.219891   -2.093170
     45          7           0        1.464769   -0.038036   -0.102468
     46          1           0        0.648996   -0.613751    0.078331
     47          6           0        1.295074    1.415834   -0.084540
     48          1           0        2.061573    1.808563   -0.758832
     49          6           0        1.608024    1.981049    1.335401
     50          6           0       -0.105453    1.876215   -0.575554
     51          1           0       -0.590178    2.404779    0.252780
     52          1           0        0.016137    2.585134   -1.395426
     53          8           0        0.717092    2.446154    2.061368
     54          6           0       -1.077956    0.787181   -1.038632
     55          8           0       -1.534432    0.910091   -2.210151
     56          8           0       -1.393125   -0.141524   -0.223818
     57          7           0        2.901179    1.882268    1.702054
     58          1           0        3.544847    1.408820    1.062610
     59          6           0        3.464052    2.332896    2.975380
     60          1           0        3.636253    3.417035    2.937364
     61          6           0        4.835732    1.672494    3.111367
     62          6           0        2.582257    2.066645    4.227531
     63          1           0        1.744813    2.763464    4.176556
     64          1           0        3.178827    2.333177    5.104810
     65          8           0        5.265610    0.808761    2.381066
     66          6           0        2.053800    0.623741    4.326487
     67          1           0        2.749658   -0.013338    4.885778
     68          1           0        1.990114    0.193846    3.321557
     69          6           0        0.653079    0.550274    4.968201
     70          1           0        0.700664    0.619597    6.058125
     71          1           0        0.030834    1.385581    4.633474
     72          7           0       -0.051411   -0.699999    4.649369
     73          1           0        0.162767   -1.500775    5.228214
     74          7           0       -0.740594   -0.005944    2.535231
     75          1           0       -1.121047   -0.190552    1.595138
     76          1           0       -0.318680    0.917838    2.636243
     77          7           0       -1.026841   -2.213000    3.157760
     78          1           0       -0.829593   -2.942505    3.829627
     79          1           0       -0.932858   -2.508017    2.182936
     80          6           0       -0.582740   -0.964431    3.437521
     81          8           0        5.513794    2.177832    4.159220
     82          1           0        6.379516    1.727012    4.185942
 ---------------------------------------------------------------------

 SCF Done:  E(RB3LYP) =  -2166.32021913     A.U. after    2 cycles

 Alpha  occ. eigenvalues --  -19.29097 -19.24314 -19.24030 -19.23635 -19.23265
 Alpha  occ. eigenvalues --  -19.22156 -19.21603 -19.21502 -19.21457 -19.20774
 Alpha  occ. eigenvalues --  -14.52250 -14.49751 -14.47958 -14.47765 -14.47030
 Alpha  occ. eigenvalues --  -14.46919 -14.45763 -14.45570 -10.44891 -10.41669
 Alpha  occ. eigenvalues --  -10.40916 -10.40398 -10.39215 -10.39009 -10.38807
 Alpha  occ. eigenvalues --  -10.35599 -10.34227 -10.34043 -10.34006 -10.33967
 Alpha  occ. eigenvalues --  -10.33434 -10.33052 -10.32578 -10.29738 -10.29353
 Alpha  occ. eigenvalues --  -10.29132 -10.28828 -10.28043 -10.27891 -10.27709
 Alpha  occ. eigenvalues --  -10.27623 -10.27610 -10.27383  -1.20172  -1.15923
 Alpha  occ. eigenvalues --   -1.14954  -1.14452  -1.13918  -1.13465  -1.13153
 Alpha  occ. eigenvalues --   -1.11626  -1.11311  -1.09040  -1.07691  -1.05469
 Alpha  occ. eigenvalues --   -1.04037  -1.03306  -1.03136  -1.02576  -1.01573
 Alpha  occ. eigenvalues --   -1.00854  -0.94569  -0.90526  -0.89414  -0.88402
 Alpha  occ. eigenvalues --   -0.86742  -0.85377  -0.84714  -0.83162  -0.82328
 Alpha  occ. eigenvalues --   -0.79694  -0.77179  -0.76578  -0.75285  -0.74499
 Alpha  occ. eigenvalues --   -0.73710  -0.72078  -0.71200  -0.70756  -0.70341
 Alpha  occ. eigenvalues --   -0.69405  -0.68531  -0.68478  -0.67615  -0.67191
 Alpha  occ. eigenvalues --   -0.66970  -0.66379  -0.65905  -0.64138  -0.63694
 Alpha  occ. eigenvalues --   -0.62371  -0.62270  -0.61707  -0.60926  -0.60266
 Alpha  occ. eigenvalues --   -0.59949  -0.59447  -0.59230  -0.59004  -0.58289
 Alpha  occ. eigenvalues --   -0.58049  -0.57867  -0.57539  -0.56881  -0.56693
 Alpha  occ. eigenvalues --   -0.56416  -0.56119  -0.55388  -0.54885  -0.54149
 Alpha  occ. eigenvalues --   -0.54069  -0.53516  -0.53112  -0.52986  -0.52435
 Alpha  occ. eigenvalues --   -0.51995  -0.51847  -0.51593  -0.51239  -0.50966
 Alpha  occ. eigenvalues --   -0.50730  -0.50625  -0.50403  -0.50102  -0.49645
 Alpha  occ. eigenvalues --   -0.49623  -0.49086  -0.48832  -0.48700  -0.48058
 Alpha  occ. eigenvalues --   -0.47442  -0.47171  -0.46770  -0.46318  -0.46089
 Alpha  occ. eigenvalues --   -0.45117  -0.44458  -0.44433  -0.43937  -0.43545
 Alpha  occ. eigenvalues --   -0.42870  -0.42712  -0.41536  -0.41299  -0.39403
 Alpha  occ. eigenvalues --   -0.39106  -0.38716  -0.38224  -0.37928  -0.37355
 Alpha  occ. eigenvalues --   -0.37094  -0.36838  -0.36628  -0.36477  -0.36097
 Alpha  occ. eigenvalues --   -0.35733  -0.35398  -0.34604  -0.33970  -0.33867
 Alpha  occ. eigenvalues --   -0.33715  -0.33404
 Alpha virt. eigenvalues --   -0.10845  -0.10042  -0.09730  -0.09214  -0.09134
 Alpha virt. eigenvalues --   -0.08668  -0.08506  -0.07352  -0.06248  -0.05478
 Alpha virt. eigenvalues --   -0.03301  -0.02033  -0.01439  -0.00548  -0.00155

 Mulliken charges:
               1
     1  N   -0.784852
     2  H    0.457898
     3  H    0.387159
     4  H    0.388277
     5  C   -0.091403
     6  H    0.199916
     7  C    0.630115
     8  C   -0.364170
     9  H    0.194844
    10  H    0.184378
    11  O   -0.548306
    12  C    0.130038
    13  C   -0.175631
    14  H    0.134393
    15  C   -0.213406
    16  H    0.141324
    17  C   -0.124348
    18  H    0.152630
    19  C   -0.121708
    20  H    0.156493
    21  C   -0.125612
    22  H    0.156964
    23  N   -0.664517
    24  H    0.410088
    25  C   -0.008357
    26  H    0.198761
    27  C    0.576700
    28  C   -0.052516
    29  H    0.164879
    30  H    0.134323
    31  O   -0.568953
    32  O   -0.630982
    33  H    0.431555
    34  N   -0.591181
    35  H    0.375726
    36  C   -0.067776
    37  H    0.204077
    38  C    0.630779
    39  C   -0.066323
    40  H    0.184289
    41  H    0.155843
    42  O   -0.528102
    43  O   -0.631233
    44  H    0.417787
    45  N   -0.647317
    46  H    0.399751
    47  C   -0.060655
    48  H    0.202818
    49  C    0.617726
    50  C   -0.379815
    51  H    0.204132
    52  H    0.187969
    53  O   -0.558112
    54  C    0.607563
    55  O   -0.585252
    56  O   -0.617718
    57  N   -0.636759
    58  H    0.406809
    59  C   -0.013727
    60  H    0.203711
    61  C    0.571613
    62  C   -0.294765
    63  H    0.191941
    64  H    0.182553
    65  O   -0.448765
    66  C   -0.283357
    67  H    0.159390
    68  H    0.161800
    69  C   -0.185354
    70  H    0.188706
    71  H    0.197470
    72  N   -0.588341
    73  H    0.349303
    74  N   -0.824061
    75  H    0.413790
    76  H    0.416995
    77  N   -0.768760
    78  H    0.350042
    79  H    0.396588
    80  C    0.775473
    81  O   -0.562351
    82  H    0.429105
 Sum of Mulliken charges =   1.00000

 Dipole moment (field-independent basis, Debye):
    X=             -2.3420    Y=             -2.5987    Z=              6.0142  Tot=              6.9576
 Quadrupole moment (field-independent basis, Debye-Ang):
   XX=           -159.3534   YY=           -240.6378   ZZ=           -166.4697
   XY=             -9.6307   XZ=             35.7541   YZ=             -8.0896

 Normal termination of Gaussian 16 at Thu May 26 21:38:46 2022.
