 Gaussian 16, Revision C.01,
 Gaussian 16:  ES64L-G16RevC.01  3-Jul-2019

 -------------------------------------------------------------------
 # B3LYP/6-31G* guess=read geom=check nosymm integral(ultrafinegrid)
 -------------------------------------------------------------------

 ------------------------------------------------------
 Candidate Structure: Conf:684 Charge calc in gas phase
 ------------------------------------------------------
 Structure from the checkpoint file:  "conf-684.chk"
 Charge =  1 Multiplicity = 1

                          Input orientation:
 ---------------------------------------------------------------------
 Center     Atomic      Atomic             Coordinates (Angstroms)
 Number     Number       Type             X           Y           Z
 ---------------------------------------------------------------------
      1          7           0       -1.717001   -1.906849   -2.427024
      2          1           0       -1.812342   -2.409518   -1.537804
      3          1           0       -1.559511   -2.549265   -3.212754
      4          1           0       -0.854446   -1.299297   -2.401146
      5          6           0       -2.960336   -1.094640   -2.714295
      6          1           0       -3.774526   -1.818314   -2.827097
      7          6           0       -2.646400   -0.460353   -4.089662
      8          6           0       -3.249862   -0.150980   -1.535191
      9          1           0       -2.470207    0.618202   -1.486807
     10          1           0       -4.198418    0.358215   -1.748578
     11          8           0       -1.930029   -1.104269   -4.858345
     12          6           0       -3.350327   -0.875977   -0.204335
     13          6           0       -4.478053   -1.656626    0.094760
     14          1           0       -5.296481   -1.727320   -0.619644
     15          6           0       -2.319634   -0.774400    0.742004
     16          1           0       -1.439744   -0.166669    0.537757
     17          6           0       -4.574850   -2.318909    1.317908
     18          1           0       -5.457790   -2.910499    1.542013
     19          6           0       -2.423401   -1.428304    1.973896
     20          1           0       -1.632079   -1.300866    2.707185
     21          6           0       -3.548900   -2.202113    2.259765
     22          1           0       -3.635382   -2.703101    3.219666
     23          7           0       -3.095817    0.785488   -4.339831
     24          1           0       -3.591311    1.276988   -3.605851
     25          6           0       -2.470085    1.632030   -5.373588
     26          1           0       -2.151401    0.975468   -6.186410
     27          6           0       -1.234680    2.329176   -4.730650
     28          6           0       -3.469075    2.670054   -5.911644
     29          1           0       -3.870336    3.260345   -5.071131
     30          1           0       -4.304184    2.144986   -6.384645
     31          8           0       -1.150473    3.552013   -4.658811
     32          8           0       -2.870663    3.482078   -6.888568
     33          1           0       -2.227514    4.038034   -6.413443
     34          7           0       -0.335723    1.466252   -4.187556
     35          1           0       -0.422386    0.477748   -4.399258
     36          6           0        0.743832    1.816310   -3.279980
     37          1           0        1.544398    2.353766   -3.803487
     38          6           0        1.291848    0.510338   -2.702186
     39          6           0        0.262494    2.724748   -2.092377
     40          1           0       -0.639931    2.269256   -1.657367
     41          1           0       -0.007566    3.696697   -2.505634
     42          8           0        0.645271   -0.554595   -2.730743
     43          8           0        1.268806    2.917237   -1.126987
     44          1           0        1.239254    2.150787   -0.514430
     45          7           0        2.508365    0.605009   -2.139675
     46          1           0        2.846117    1.553704   -2.001960
     47          6           0        3.001194   -0.407047   -1.214343
     48          1           0        2.925506   -1.381800   -1.703173
     49          6           0        2.081791   -0.435002    0.044546
     50          6           0        4.484814   -0.124649   -0.893724
     51          1           0        5.000228    0.093499   -1.836895
     52          1           0        4.586142    0.772556   -0.271596
     53          8           0        1.185853    0.401850    0.237293
     54          6           0        5.275849   -1.259114   -0.205250
     55          8           0        6.426911   -0.970645    0.176438
     56          8           0        4.702584   -2.397599   -0.075978
     57          7           0        2.364249   -1.448792    0.874727
     58          1           0        3.181111   -2.013130    0.589386
     59          6           0        1.796224   -1.670244    2.197727
     60          1           0        0.858968   -2.234986    2.123819
     61          6           0        1.433362   -0.374297    2.926276
     62          6           0        2.827469   -2.455285    3.045860
     63          1           0        2.476810   -2.484358    4.083936
     64          1           0        3.758137   -1.877319    3.040514
     65          8           0        0.375501   -0.191869    3.486574
     66          6           0        3.086078   -3.896031    2.555037
     67          1           0        2.981239   -3.972287    1.466376
     68          1           0        2.336522   -4.573477    2.979479
     69          6           0        4.477902   -4.427667    2.935368
     70          1           0        4.660547   -4.273183    4.006426
     71          1           0        4.511895   -5.509657    2.743155
     72          7           0        5.516433   -3.740590    2.166775
     73          1           0        5.251477   -3.295280    1.256660
     74          7           0        7.264677   -4.298138    3.605622
     75          1           0        8.231303   -4.190375    3.876449
     76          1           0        6.822922   -5.162853    3.880584
     77          7           0        7.587614   -2.786097    1.856800
     78          1           0        7.187414   -2.105990    1.158991
     79          1           0        8.583896   -2.791091    2.018697
     80          6           0        6.792637   -3.614994    2.530033
     81          8           0        2.461007    0.494835    2.967984
     82          1           0        2.151091    1.276000    3.465056
 ---------------------------------------------------------------------

 SCF Done:  E(RB3LYP) =  -2166.31171619     A.U. after    3 cycles

 Alpha  occ. eigenvalues --  -19.28203 -19.25084 -19.24154 -19.22646 -19.22416
 Alpha  occ. eigenvalues --  -19.22239 -19.21892 -19.21037 -19.19002 -19.18084
 Alpha  occ. eigenvalues --  -14.57026 -14.49304 -14.48305 -14.46637 -14.46024
 Alpha  occ. eigenvalues --  -14.45773 -14.45322 -14.44609 -10.43286 -10.42597
 Alpha  occ. eigenvalues --  -10.40927 -10.40411 -10.39307 -10.38948 -10.38625
 Alpha  occ. eigenvalues --  -10.36681 -10.33596 -10.33484 -10.33356 -10.33352
 Alpha  occ. eigenvalues --  -10.33070 -10.33023 -10.32368 -10.31756 -10.30557
 Alpha  occ. eigenvalues --  -10.29594 -10.29351 -10.29138 -10.28711 -10.28568
 Alpha  occ. eigenvalues --  -10.28241 -10.27929 -10.27794  -1.19240  -1.17707
 Alpha  occ. eigenvalues --   -1.15553  -1.13683  -1.13200  -1.12154  -1.11635
 Alpha  occ. eigenvalues --   -1.11416  -1.10208  -1.10085  -1.08910  -1.05477
 Alpha  occ. eigenvalues --   -1.03530  -1.03396  -1.02185  -1.01880  -1.01279
 Alpha  occ. eigenvalues --   -0.99659  -0.95955  -0.91815  -0.90436  -0.88231
 Alpha  occ. eigenvalues --   -0.86783  -0.85226  -0.84266  -0.83960  -0.82995
 Alpha  occ. eigenvalues --   -0.78320  -0.78297  -0.76440  -0.74933  -0.73949
 Alpha  occ. eigenvalues --   -0.73387  -0.72104  -0.71699  -0.71270  -0.70886
 Alpha  occ. eigenvalues --   -0.70393  -0.69821  -0.68945  -0.68593  -0.68057
 Alpha  occ. eigenvalues --   -0.67207  -0.67153  -0.65875  -0.65333  -0.63400
 Alpha  occ. eigenvalues --   -0.62796  -0.61642  -0.61194  -0.61011  -0.60928
 Alpha  occ. eigenvalues --   -0.60479  -0.59526  -0.59232  -0.58603  -0.58513
 Alpha  occ. eigenvalues --   -0.57506  -0.57197  -0.57126  -0.56748  -0.56233
 Alpha  occ. eigenvalues --   -0.55888  -0.55696  -0.55415  -0.55087  -0.54774
 Alpha  occ. eigenvalues --   -0.54486  -0.53743  -0.53059  -0.52767  -0.52466
 Alpha  occ. eigenvalues --   -0.52101  -0.51763  -0.51544  -0.51313  -0.51036
 Alpha  occ. eigenvalues --   -0.50912  -0.50795  -0.50732  -0.50200  -0.49669
 Alpha  occ. eigenvalues --   -0.49565  -0.49272  -0.49001  -0.48657  -0.48386
 Alpha  occ. eigenvalues --   -0.47977  -0.47368  -0.46112  -0.45733  -0.45473
 Alpha  occ. eigenvalues --   -0.45126  -0.44751  -0.44393  -0.44068  -0.43651
 Alpha  occ. eigenvalues --   -0.43304  -0.41683  -0.41103  -0.40285  -0.40049
 Alpha  occ. eigenvalues --   -0.39086  -0.38919  -0.38692  -0.37926  -0.36938
 Alpha  occ. eigenvalues --   -0.36731  -0.35913  -0.35404  -0.35033  -0.34983
 Alpha  occ. eigenvalues --   -0.34726  -0.34517  -0.34104  -0.33879  -0.33796
 Alpha  occ. eigenvalues --   -0.33705  -0.32469
 Alpha virt. eigenvalues --   -0.12958  -0.10642  -0.09997  -0.09886  -0.08219
 Alpha virt. eigenvalues --   -0.07578  -0.07556  -0.07148  -0.05806  -0.04359
 Alpha virt. eigenvalues --   -0.03976  -0.03536  -0.02821  -0.01525  -0.01116

 Mulliken charges:
               1
     1  N   -0.755280
     2  H    0.402442
     3  H    0.417260
     4  H    0.450399
     5  C   -0.116407
     6  H    0.224596
     7  C    0.642941
     8  C   -0.403270
     9  H    0.193336
    10  H    0.189142
    11  O   -0.525729
    12  C    0.122694
    13  C   -0.185785
    14  H    0.137013
    15  C   -0.231241
    16  H    0.172843
    17  C   -0.126462
    18  H    0.158094
    19  C   -0.148628
    20  H    0.192816
    21  C   -0.127993
    22  H    0.156945
    23  N   -0.594485
    24  H    0.353106
    25  C   -0.115224
    26  H    0.223264
    27  C    0.630202
    28  C   -0.024949
    29  H    0.129972
    30  H    0.167509
    31  O   -0.520563
    32  O   -0.611920
    33  H    0.422996
    34  N   -0.660115
    35  H    0.373020
    36  C   -0.029150
    37  H    0.195431
    38  C    0.618680
    39  C   -0.055954
    40  H    0.127090
    41  H    0.209134
    42  O   -0.601219
    43  O   -0.644534
    44  H    0.435229
    45  N   -0.588530
    46  H    0.361057
    47  C   -0.065955
    48  H    0.204416
    49  C    0.638801
    50  C   -0.392621
    51  H    0.197415
    52  H    0.185265
    53  O   -0.575124
    54  C    0.625538
    55  O   -0.558821
    56  O   -0.628391
    57  N   -0.659674
    58  H    0.414614
    59  C    0.010751
    60  H    0.169605
    61  C    0.598596
    62  C   -0.315619
    63  H    0.173243
    64  H    0.185296
    65  O   -0.463088
    66  C   -0.313234
    67  H    0.176679
    68  H    0.166640
    69  C   -0.146346
    70  H    0.170470
    71  H    0.168438
    72  N   -0.640047
    73  H    0.423406
    74  N   -0.762508
    75  H    0.365172
    76  H    0.369626
    77  N   -0.794946
    78  H    0.436485
    79  H    0.349950
    80  C    0.781413
    81  O   -0.560885
    82  H    0.425668
 Sum of Mulliken charges =   1.00000

 Dipole moment (field-independent basis, Debye):
    X=              5.9762    Y=            -14.7963    Z=              3.9497  Tot=             16.4391
 Quadrupole moment (field-independent basis, Debye-Ang):
   XX=           -109.5324   YY=           -195.0493   ZZ=           -217.6967
   XY=            -48.6918   XZ=             69.3726   YZ=            -29.6887

 Normal termination of Gaussian 16 at Thu May 26 21:39:35 2022.
