 Gaussian 16, Revision C.01,
 Gaussian 16:  ES64L-G16RevC.01  3-Jul-2019

 -------------------------------------------------------------------
 # B3LYP/6-31G* guess=read geom=check nosymm integral(ultrafinegrid)
 -------------------------------------------------------------------

 ------------------------------------------------------
 Candidate Structure: Conf:231 Charge calc in gas phase
 ------------------------------------------------------
 Structure from the checkpoint file:  "conf-231.chk"
 Charge =  1 Multiplicity = 1

                          Input orientation:
 ---------------------------------------------------------------------
 Center     Atomic      Atomic             Coordinates (Angstroms)
 Number     Number       Type             X           Y           Z
 ---------------------------------------------------------------------
      1          7           0       -4.849276   -2.975169   -3.788829
      2          1           0       -4.671048   -3.375162   -4.713875
      3          1           0       -4.050791   -3.255444   -3.122624
      4          1           0       -5.757637   -3.306813   -3.454294
      5          6           0       -4.714226   -1.464076   -3.752808
      6          1           0       -4.729098   -1.091613   -4.779240
      7          6           0       -3.320892   -1.293626   -3.083461
      8          6           0       -5.868219   -0.843034   -2.927668
      9          1           0       -6.808952   -1.284857   -3.284404
     10          1           0       -5.741913   -1.132033   -1.877672
     11          8           0       -2.842190   -2.298532   -2.526174
     12          6           0       -5.951594    0.666411   -3.058738
     13          6           0       -5.361079    1.506718   -2.103608
     14          1           0       -4.810333    1.081688   -1.267859
     15          6           0       -6.629299    1.234230   -4.147421
     16          1           0       -7.107798    0.591864   -4.884811
     17          6           0       -5.450414    2.893760   -2.244133
     18          1           0       -4.993547    3.537181   -1.497801
     19          6           0       -6.714511    2.619331   -4.285257
     20          1           0       -7.246078    3.046701   -5.130347
     21          6           0       -6.124760    3.451754   -3.331600
     22          1           0       -6.193280    4.530632   -3.435262
     23          7           0       -2.758496   -0.097889   -3.133569
     24          1           0       -3.238114    0.653309   -3.616047
     25          6           0       -1.517611    0.240132   -2.438239
     26          1           0       -0.705657   -0.387867   -2.817075
     27          6           0       -1.650865    0.037592   -0.918005
     28          6           0       -1.153362    1.710357   -2.785684
     29          1           0       -0.401644    2.058147   -2.066099
     30          1           0       -2.048975    2.335163   -2.652949
     31          8           0       -2.692460    0.208077   -0.286451
     32          8           0       -0.705963    1.821107   -4.100775
     33          1           0        0.273144    1.642326   -4.051869
     34          7           0       -0.450380   -0.271460   -0.366405
     35          1           0        0.346886   -0.443047   -1.012593
     36          6           0       -0.192318   -0.354846    1.062674
     37          1           0       -0.744436    0.444097    1.577013
     38          6           0        1.328384   -0.138672    1.260441
     39          6           0       -0.662783   -1.717615    1.620369
     40          1           0       -0.309566   -2.514457    0.954566
     41          1           0       -1.753942   -1.732606    1.626876
     42          8           0        2.000287   -0.833311    2.059086
     43          8           0       -0.210533   -1.970348    2.955619
     44          1           0        0.763823   -1.983040    2.846618
     45          7           0        1.871036    0.799918    0.480170
     46          1           0        1.223907    1.292279   -0.121820
     47          6           0        3.264718    0.788661   -0.001169
     48          1           0        3.579833   -0.258964   -0.022672
     49          6           0        4.123938    1.609590    0.973039
     50          6           0        3.292615    1.377131   -1.424544
     51          1           0        3.187154    2.465527   -1.375600
     52          1           0        4.273965    1.175566   -1.870113
     53          8           0        3.765326    2.714275    1.360844
     54          6           0        2.183928    0.814165   -2.375241
     55          8           0        1.872121    1.574865   -3.318088
     56          8           0        1.693339   -0.321040   -2.091311
     57          7           0        5.275938    1.008721    1.404715
     58          1           0        5.510342    0.083172    1.072630
     59          6           0        6.026755    1.564162    2.517322
     60          1           0        5.775787    2.630689    2.534192
     61          6           0        7.538848    1.466531    2.349468
     62          6           0        5.618224    0.943341    3.885187
     63          1           0        6.107752    1.520969    4.675599
     64          1           0        6.013167   -0.080589    3.949525
     65          8           0        8.319853    1.765952    3.223120
     66          6           0        4.094844    0.913503    4.031688
     67          1           0        3.696142    0.377437    3.167213
     68          1           0        3.680510    1.926058    3.988525
     69          6           0        3.569080    0.191224    5.276238
     70          1           0        4.173661   -0.695809    5.507145
     71          1           0        3.591480    0.854313    6.148916
     72          7           0        2.178649   -0.222726    5.007933
     73          1           0        1.967195   -0.408247    4.024020
     74          7           0        1.470274   -0.336124    7.224135
     75          1           0        0.705508   -0.283758    7.881054
     76          1           0        2.368052   -0.014466    7.551715
     77          7           0       -0.019366   -0.774788    5.500749
     78          1           0       -0.199522   -1.057196    4.523372
     79          1           0       -0.663502   -1.149129    6.183730
     80          6           0        1.219454   -0.446450    5.902333
     81          8           0        7.914616    1.001212    1.138931
     82          1           0        8.891521    0.991254    1.139189
 ---------------------------------------------------------------------

 SCF Done:  E(RB3LYP) =  -2166.26064806     A.U. after    3 cycles

 Alpha  occ. eigenvalues --  -19.26931 -19.24991 -19.24582 -19.22829 -19.20826
 Alpha  occ. eigenvalues --  -19.19397 -19.18384 -19.17140 -19.13305 -19.13109
 Alpha  occ. eigenvalues --  -14.58227 -14.50436 -14.49416 -14.48421 -14.47589
 Alpha  occ. eigenvalues --  -14.44993 -14.43648 -14.42686 -10.46093 -10.41437
 Alpha  occ. eigenvalues --  -10.39263 -10.39199 -10.39078 -10.36311 -10.35757
 Alpha  occ. eigenvalues --  -10.34256 -10.32623 -10.32443 -10.32109 -10.31731
 Alpha  occ. eigenvalues --  -10.31538 -10.30791 -10.30302 -10.29498 -10.29409
 Alpha  occ. eigenvalues --  -10.28072 -10.27639 -10.27617 -10.27392 -10.27325
 Alpha  occ. eigenvalues --  -10.27227 -10.27169 -10.23983  -1.17727  -1.17503
 Alpha  occ. eigenvalues --   -1.14553  -1.13969  -1.12013  -1.11191  -1.10804
 Alpha  occ. eigenvalues --   -1.10523  -1.08647  -1.06618  -1.05637  -1.03887
 Alpha  occ. eigenvalues --   -1.03656  -1.02410  -1.02336  -1.00104  -0.99407
 Alpha  occ. eigenvalues --   -0.97614  -0.95036  -0.91059  -0.89324  -0.86682
 Alpha  occ. eigenvalues --   -0.85249  -0.84182  -0.82944  -0.82904  -0.81444
 Alpha  occ. eigenvalues --   -0.78549  -0.77954  -0.76084  -0.74680  -0.72589
 Alpha  occ. eigenvalues --   -0.72449  -0.71944  -0.71514  -0.70570  -0.70380
 Alpha  occ. eigenvalues --   -0.69929  -0.69049  -0.68167  -0.68029  -0.67245
 Alpha  occ. eigenvalues --   -0.66819  -0.65963  -0.65565  -0.63897  -0.63123
 Alpha  occ. eigenvalues --   -0.62040  -0.61559  -0.60917  -0.60689  -0.59962
 Alpha  occ. eigenvalues --   -0.59524  -0.58935  -0.58123  -0.57827  -0.57332
 Alpha  occ. eigenvalues --   -0.56973  -0.56399  -0.55964  -0.55499  -0.55372
 Alpha  occ. eigenvalues --   -0.54909  -0.54629  -0.54315  -0.53925  -0.53664
 Alpha  occ. eigenvalues --   -0.53229  -0.51980  -0.51848  -0.51339  -0.50964
 Alpha  occ. eigenvalues --   -0.50458  -0.50190  -0.50076  -0.49931  -0.49386
 Alpha  occ. eigenvalues --   -0.49232  -0.48693  -0.48609  -0.48414  -0.48135
 Alpha  occ. eigenvalues --   -0.47897  -0.47168  -0.46407  -0.46239  -0.45665
 Alpha  occ. eigenvalues --   -0.45322  -0.44887  -0.44535  -0.44299  -0.43954
 Alpha  occ. eigenvalues --   -0.43677  -0.43504  -0.43047  -0.42615  -0.42519
 Alpha  occ. eigenvalues --   -0.41600  -0.41018  -0.39853  -0.39693  -0.38717
 Alpha  occ. eigenvalues --   -0.38434  -0.37903  -0.37845  -0.37237  -0.36386
 Alpha  occ. eigenvalues --   -0.35712  -0.35283  -0.33717  -0.33505  -0.33114
 Alpha  occ. eigenvalues --   -0.32753  -0.32610  -0.31827  -0.30579  -0.28997
 Alpha  occ. eigenvalues --   -0.27844  -0.27122
 Alpha virt. eigenvalues --   -0.10538  -0.09855  -0.09674  -0.09598  -0.08927
 Alpha virt. eigenvalues --   -0.08623  -0.06253  -0.06125  -0.05570  -0.05107
 Alpha virt. eigenvalues --   -0.04783  -0.02975  -0.01661  -0.01092  -0.00165

 Mulliken charges:
               1
     1  N   -0.761972
     2  H    0.413995
     3  H    0.434241
     4  H    0.407326
     5  C   -0.112136
     6  H    0.217197
     7  C    0.671007
     8  C   -0.379344
     9  H    0.170581
    10  H    0.198297
    11  O   -0.552899
    12  C    0.127339
    13  C   -0.205706
    14  H    0.191301
    15  C   -0.180104
    16  H    0.127560
    17  C   -0.136219
    18  H    0.157270
    19  C   -0.125190
    20  H    0.156302
    21  C   -0.119649
    22  H    0.158886
    23  N   -0.581654
    24  H    0.368641
    25  C   -0.074417
    26  H    0.220175
    27  C    0.609452
    28  C   -0.052860
    29  H    0.141291
    30  H    0.137293
    31  O   -0.545068
    32  O   -0.647216
    33  H    0.442222
    34  N   -0.682948
    35  H    0.429502
    36  C   -0.055141
    37  H    0.189445
    38  C    0.606169
    39  C   -0.050200
    40  H    0.164327
    41  H    0.183730
    42  O   -0.596742
    43  O   -0.651458
    44  H    0.426420
    45  N   -0.540998
    46  H    0.363751
    47  C   -0.051234
    48  H    0.167960
    49  C    0.635414
    50  C   -0.397260
    51  H    0.185952
    52  H    0.179634
    53  O   -0.521573
    54  C    0.572845
    55  O   -0.569390
    56  O   -0.609649
    57  N   -0.605688
    58  H    0.339779
    59  C   -0.061753
    60  H    0.226707
    61  C    0.593361
    62  C   -0.274075
    63  H    0.181590
    64  H    0.143794
    65  O   -0.453530
    66  C   -0.329060
    67  H    0.188642
    68  H    0.187378
    69  C   -0.138909
    70  H    0.182830
    71  H    0.163571
    72  N   -0.638694
    73  H    0.398024
    74  N   -0.761560
    75  H    0.375182
    76  H    0.381412
    77  N   -0.787869
    78  H    0.411132
    79  H    0.361346
    80  C    0.802364
    81  O   -0.564223
    82  H    0.423754
 Sum of Mulliken charges =   1.00000

 Dipole moment (field-independent basis, Debye):
    X=            -12.5566    Y=             -9.9338    Z=              9.0968  Tot=             18.4147
 Quadrupole moment (field-independent basis, Debye-Ang):
   XX=           -116.8359   YY=           -227.2463   ZZ=            -86.3268
   XY=             23.9284   XZ=            103.1201   YZ=             27.1566

 Normal termination of Gaussian 16 at Thu May 26 21:35:45 2022.
