 Gaussian 16, Revision C.01,
 Gaussian 16:  ES64L-G16RevC.01  3-Jul-2019

 -------------------------------------------------------------------
 # B3LYP/6-31G* guess=read geom=check nosymm integral(ultrafinegrid)
 -------------------------------------------------------------------

 ------------------------------------------------------
 Candidate Structure: Conf:472 Charge calc in gas phase
 ------------------------------------------------------
 Structure from the checkpoint file:  "conf-472.chk"
 Charge =  1 Multiplicity = 1

                          Input orientation:
 ---------------------------------------------------------------------
 Center     Atomic      Atomic             Coordinates (Angstroms)
 Number     Number       Type             X           Y           Z
 ---------------------------------------------------------------------
      1          7           0       -4.900264   -1.713705   -5.624798
      2          1           0       -4.222172   -2.193540   -6.222951
      3          1           0       -5.048159   -2.297369   -4.754304
      4          1           0       -5.766222   -1.561008   -6.162854
      5          6           0       -4.369446   -0.418086   -5.056535
      6          1           0       -3.553814   -0.074330   -5.695854
      7          6           0       -3.880673   -0.832537   -3.643316
      8          6           0       -5.504004    0.634771   -4.997990
      9          1           0       -6.222548    0.331148   -4.227190
     10          1           0       -5.052661    1.572466   -4.656789
     11          8           0       -4.296281   -1.912423   -3.193734
     12          6           0       -6.198216    0.810593   -6.332603
     13          6           0       -5.603828    1.558449   -7.360240
     14          1           0       -4.661212    2.071582   -7.181566
     15          6           0       -7.426722    0.175999   -6.578902
     16          1           0       -7.927481   -0.364224   -5.776363
     17          6           0       -6.224305    1.669335   -8.603588
     18          1           0       -5.760025    2.262457   -9.385937
     19          6           0       -8.046103    0.283620   -7.828685
     20          1           0       -9.003008   -0.200577   -7.999847
     21          6           0       -7.443866    1.028083   -8.841963
     22          1           0       -7.925962    1.119829   -9.810531
     23          7           0       -3.086923    0.030908   -3.027561
     24          1           0       -2.807569    0.925215   -3.444573
     25          6           0       -2.568482   -0.095110   -1.669693
     26          1           0       -3.369522   -0.396222   -0.986957
     27          6           0       -2.037181    1.309189   -1.330239
     28          6           0       -1.421418   -1.152995   -1.586634
     29          1           0       -0.653015   -0.889754   -2.326041
     30          1           0       -1.848500   -2.124207   -1.856685
     31          8           0       -1.937768    2.158150   -2.218989
     32          8           0       -0.893366   -1.242106   -0.287091
     33          1           0       -0.129508   -0.616172   -0.240043
     34          7           0       -1.672709    1.490330   -0.039775
     35          1           0       -1.622947    0.629125    0.499436
     36          6           0       -0.681555    2.503363    0.301258
     37          1           0       -0.913028    3.408329   -0.264739
     38          6           0        0.725256    1.996701   -0.072926
     39          6           0       -0.748439    2.842171    1.816996
     40          1           0       -0.544644    1.926628    2.395783
     41          1           0       -1.774630    3.157285    2.039011
     42          8           0        0.946908    0.800559   -0.316289
     43          8           0        0.123636    3.885128    2.161885
     44          1           0        1.019632    3.494706    2.349901
     45          7           0        1.675061    2.950795   -0.077123
     46          1           0        1.381061    3.845106    0.304683
     47          6           0        3.095015    2.634341    0.059849
     48          1           0        3.197306    1.593629   -0.261094
     49          6           0        3.484129    2.718509    1.564260
     50          6           0        3.942171    3.549951   -0.862071
     51          1           0        3.351253    3.811499   -1.741843
     52          1           0        4.190292    4.476784   -0.328565
     53          8           0        2.584563    2.791305    2.451794
     54          6           0        5.243450    2.927734   -1.397917
     55          8           0        5.497243    2.930431   -2.586010
     56          8           0        6.066269    2.403778   -0.492283
     57          7           0        4.783177    2.695415    1.783885
     58          1           0        5.671528    2.519585    0.448326
     59          6           0        5.161313    2.784275    3.172632
     60          1           0        4.725709    1.954272    3.751198
     61          6           0        4.646181    4.072212    3.827454
     62          6           0        6.704455    2.733948    3.252021
     63          1           0        7.100449    3.537765    2.622727
     64          1           0        7.020963    1.791270    2.789783
     65          8           0        4.598137    5.168978    3.329148
     66          6           0        7.317744    2.861100    4.655946
     67          1           0        7.143119    3.863927    5.063690
     68          1           0        8.406340    2.728605    4.576036
     69          6           0        6.749323    1.834033    5.637705
     70          1           0        5.693796    2.057419    5.807647
     71          1           0        6.849380    0.814914    5.243920
     72          7           0        7.446903    1.919750    6.939091
     73          1           0        8.427710    2.172668    6.908899
     74          7           0        5.713976    1.074114    8.240416
     75          1           0        5.183176    1.165635    9.095321
     76          1           0        5.201608    0.797055    7.414907
     77          7           0        7.589518    1.961162    9.257573
     78          1           0        8.446816    2.493937    9.225602
     79          1           0        7.364575    1.506082   10.130827
     80          6           0        6.920120    1.653938    8.128246
     81          8           0        4.310283    3.874168    5.148090
     82          1           0        3.991687    4.743786    5.458271
 ---------------------------------------------------------------------

 SCF Done:  E(RB3LYP) =  -2166.23296678     A.U. after    2 cycles

 Alpha  occ. eigenvalues --  -19.24774 -19.24102 -19.19914 -19.19725 -19.17665
 Alpha  occ. eigenvalues --  -19.17320 -19.16558 -19.15592 -19.12901 -19.11391
 Alpha  occ. eigenvalues --  -14.58103 -14.52250 -14.52139 -14.52119 -14.47470
 Alpha  occ. eigenvalues --  -14.42603 -14.39899 -14.31870 -10.48511 -10.41655
 Alpha  occ. eigenvalues --  -10.39181 -10.36526 -10.35542 -10.33922 -10.33684
 Alpha  occ. eigenvalues --  -10.32790 -10.31772 -10.31158 -10.30496 -10.30422
 Alpha  occ. eigenvalues --  -10.29943 -10.29538 -10.29314 -10.29165 -10.28937
 Alpha  occ. eigenvalues --  -10.28448 -10.28254 -10.28032 -10.27990 -10.26473
 Alpha  occ. eigenvalues --  -10.25714 -10.24766 -10.21012  -1.17219  -1.16938
 Alpha  occ. eigenvalues --   -1.14271  -1.12264  -1.11664  -1.08719  -1.07375
 Alpha  occ. eigenvalues --   -1.07165  -1.06030  -1.05336  -1.05142  -1.04651
 Alpha  occ. eigenvalues --   -1.03981  -1.03002  -0.99376  -0.99023  -0.96551
 Alpha  occ. eigenvalues --   -0.96528  -0.91830  -0.91453  -0.88741  -0.86585
 Alpha  occ. eigenvalues --   -0.84860  -0.83942  -0.82371  -0.81155  -0.79142
 Alpha  occ. eigenvalues --   -0.78168  -0.77851  -0.75366  -0.73938  -0.73490
 Alpha  occ. eigenvalues --   -0.72303  -0.71832  -0.70927  -0.70579  -0.70280
 Alpha  occ. eigenvalues --   -0.69232  -0.68986  -0.68406  -0.67189  -0.65679
 Alpha  occ. eigenvalues --   -0.65377  -0.65088  -0.63790  -0.63116  -0.62050
 Alpha  occ. eigenvalues --   -0.61574  -0.61412  -0.60684  -0.59389  -0.58821
 Alpha  occ. eigenvalues --   -0.58605  -0.58184  -0.56524  -0.56465  -0.56099
 Alpha  occ. eigenvalues --   -0.55743  -0.55299  -0.55230  -0.54338  -0.54041
 Alpha  occ. eigenvalues --   -0.53877  -0.53180  -0.52550  -0.52358  -0.52191
 Alpha  occ. eigenvalues --   -0.51691  -0.51400  -0.51099  -0.50516  -0.49886
 Alpha  occ. eigenvalues --   -0.49808  -0.49474  -0.49247  -0.48712  -0.48527
 Alpha  occ. eigenvalues --   -0.47801  -0.47032  -0.46746  -0.46369  -0.45946
 Alpha  occ. eigenvalues --   -0.45660  -0.44890  -0.44721  -0.44671  -0.44414
 Alpha  occ. eigenvalues --   -0.43853  -0.43698  -0.43324  -0.43003  -0.42782
 Alpha  occ. eigenvalues --   -0.41857  -0.41359  -0.40631  -0.40194  -0.39693
 Alpha  occ. eigenvalues --   -0.39569  -0.39015  -0.38581  -0.38107  -0.37236
 Alpha  occ. eigenvalues --   -0.36060  -0.35751  -0.35643  -0.35346  -0.35158
 Alpha  occ. eigenvalues --   -0.34227  -0.33677  -0.32660  -0.31506  -0.31224
 Alpha  occ. eigenvalues --   -0.30787  -0.29567  -0.29225  -0.29036  -0.26294
 Alpha  occ. eigenvalues --   -0.25132  -0.24803
 Alpha virt. eigenvalues --   -0.12376  -0.11823  -0.11298  -0.09507  -0.08517
 Alpha virt. eigenvalues --   -0.08365  -0.05699  -0.04356  -0.03793  -0.03222
 Alpha virt. eigenvalues --   -0.03156  -0.02884  -0.02650  -0.01338  -0.00589

 Mulliken charges:
               1
     1  N   -0.751659
     2  H    0.414546
     3  H    0.426246
     4  H    0.402988
     5  C   -0.112908
     6  H    0.214102
     7  C    0.658613
     8  C   -0.384833
     9  H    0.193264
    10  H    0.212350
    11  O   -0.544455
    12  C    0.139204
    13  C   -0.181597
    14  H    0.150469
    15  C   -0.229590
    16  H    0.149695
    17  C   -0.122584
    18  H    0.167452
    19  C   -0.120576
    20  H    0.164951
    21  C   -0.124053
    22  H    0.167116
    23  N   -0.617412
    24  H    0.373166
    25  C   -0.077990
    26  H    0.195742
    27  C    0.613423
    28  C   -0.033392
    29  H    0.152750
    30  H    0.166903
    31  O   -0.538105
    32  O   -0.647421
    33  H    0.449515
    34  N   -0.592919
    35  H    0.346586
    36  C   -0.110350
    37  H    0.198090
    38  C    0.630139
    39  C   -0.030868
    40  H    0.131438
    41  H    0.152534
    42  O   -0.572749
    43  O   -0.658821
    44  H    0.447789
    45  N   -0.573119
    46  H    0.344986
    47  C   -0.086899
    48  H    0.201635
    49  C    0.614862
    50  C   -0.382017
    51  H    0.170998
    52  H    0.175585
    53  O   -0.641076
    54  C    0.577958
    55  O   -0.483158
    56  O   -0.615139
    57  N   -0.606311
    58  H    0.444710
    59  C   -0.000704
    60  H    0.125974
    61  C    0.599559
    62  C   -0.290104
    63  H    0.187251
    64  H    0.165070
    65  O   -0.460114
    66  C   -0.308875
    67  H    0.169946
    68  H    0.148610
    69  C   -0.165102
    70  H    0.208265
    71  H    0.190680
    72  N   -0.598097
    73  H    0.362890
    74  N   -0.750403
    75  H    0.383682
    76  H    0.399147
    77  N   -0.762044
    78  H    0.383394
    79  H    0.384387
    80  C    0.823518
    81  O   -0.609198
    82  H    0.402465
 Sum of Mulliken charges =   1.00000

 Dipole moment (field-independent basis, Debye):
    X=             -2.3116    Y=             -3.0409    Z=             11.3415  Tot=             11.9675
 Quadrupole moment (field-independent basis, Debye-Ang):
   XX=              1.9162   YY=           -260.9248   ZZ=            175.0267
   XY=             32.0556   XZ=            371.4570   YZ=             72.8390

 Normal termination of Gaussian 16 at Thu May 26 21:35:26 2022.
