 Gaussian 16, Revision C.01,
 Gaussian 16:  ES64L-G16RevC.01  3-Jul-2019

 -------------------------------------------------------------------
 # B3LYP/6-31G* guess=read geom=check nosymm integral(ultrafinegrid)
 -------------------------------------------------------------------

 ------------------------------------------------------
 Candidate Structure: Conf:428 Charge calc in gas phase
 ------------------------------------------------------
 Structure from the checkpoint file:  "conf-428.chk"
 Charge =  1 Multiplicity = 1

                          Input orientation:
 ---------------------------------------------------------------------
 Center     Atomic      Atomic             Coordinates (Angstroms)
 Number     Number       Type             X           Y           Z
 ---------------------------------------------------------------------
      1          7           0       -5.723988   -3.204515   -3.918417
      2          1           0       -6.021536   -3.273581   -4.894752
      3          1           0       -5.013154   -3.971530   -3.723489
      4          1           0       -6.556033   -3.257104   -3.313559
      5          6           0       -4.910720   -1.963475   -3.634735
      6          1           0       -5.110076   -1.235438   -4.423788
      7          6           0       -3.454459   -2.493079   -3.657909
      8          6           0       -5.276133   -1.390142   -2.241748
      9          1           0       -4.863168   -2.052714   -1.473648
     10          1           0       -4.740964   -0.440656   -2.140243
     11          8           0       -3.300653   -3.722435   -3.595939
     12          6           0       -6.768376   -1.204949   -2.066794
     13          6           0       -7.435216   -0.116408   -2.649652
     14          1           0       -6.867288    0.640597   -3.186509
     15          6           0       -7.520484   -2.157454   -1.359844
     16          1           0       -7.013287   -2.981382   -0.859557
     17          6           0       -8.817526    0.016202   -2.527675
     18          1           0       -9.318140    0.870893   -2.973274
     19          6           0       -8.908472   -2.027243   -1.242139
     20          1           0       -9.474071   -2.765592   -0.681217
     21          6           0       -9.557977   -0.941644   -1.827988
     22          1           0      -10.634273   -0.833936   -1.732508
     23          7           0       -2.500681   -1.575368   -3.733671
     24          1           0       -2.714384   -0.577164   -3.728431
     25          6           0       -1.103796   -1.804593   -3.388688
     26          1           0       -0.793568   -2.781138   -3.775692
     27          6           0       -1.014101   -1.863692   -1.836383
     28          6           0       -0.327484   -0.657978   -4.075305
     29          1           0       -0.372802   -0.834200   -5.158067
     30          1           0        0.724335   -0.646246   -3.772679
     31          8           0       -2.018067   -2.061158   -1.151421
     32          8           0       -0.968141    0.562945   -3.779378
     33          1           0       -0.422408    1.016257   -3.068038
     34          7           0        0.232152   -1.771822   -1.302365
     35          1           0        0.982682   -1.291315   -1.825636
     36          6           0        0.369087   -1.807313    0.156499
     37          1           0       -0.452319   -1.227685    0.601480
     38          6           0        1.718307   -1.178655    0.515660
     39          6           0        0.315275   -3.237220    0.709387
     40          1           0        1.170553   -3.803737    0.341970
     41          1           0       -0.612992   -3.722704    0.395908
     42          8           0        2.729953   -1.889412    0.602608
     43          8           0        0.425000   -3.228583    2.144333
     44          1           0       -0.418490   -2.913929    2.505821
     45          7           0        1.726089    0.158190    0.707282
     46          1           0        0.855191    0.648608    0.525145
     47          6           0        2.936710    0.942339    0.427597
     48          1           0        3.690339    0.223420    0.097913
     49          6           0        3.387578    1.675231    1.693865
     50          6           0        2.636995    1.918724   -0.738069
     51          1           0        2.111227    2.805612   -0.374212
     52          1           0        3.579494    2.227013   -1.203072
     53          8           0        2.593431    2.152105    2.491384
     54          6           0        1.739356    1.160298   -1.754809
     55          8           0        2.212261    0.093916   -2.233765
     56          8           0        0.576980    1.628218   -1.893895
     57          7           0        4.757226    1.717543    1.895927
     58          1           0        5.339927    1.529101    1.087297
     59          6           0        5.329208    2.633514    2.890082
     60          1           0        4.506502    3.274316    3.229733
     61          6           0        6.390737    3.560556    2.298955
     62          6           0        5.910056    1.889669    4.115858
     63          1           0        6.410553    2.626105    4.749466
     64          1           0        6.693365    1.206010    3.759792
     65          8           0        7.050002    4.324044    2.962036
     66          6           0        4.822762    1.113616    4.899817
     67          1           0        3.899568    1.090102    4.312349
     68          1           0        4.565000    1.657372    5.814968
     69          6           0        5.220003   -0.340274    5.261776
     70          1           0        5.988232   -0.721023    4.580122
     71          1           0        5.644688   -0.406067    6.266376
     72          7           0        4.097110   -1.287506    5.214196
     73          1           0        3.532079   -1.393589    6.045588
     74          7           0        4.114882   -1.376293    2.892711
     75          1           0        3.690725   -1.690804    2.003245
     76          1           0        4.635729   -0.509108    2.830783
     77          7           0        2.537243   -2.589315    4.077527
     78          1           0        2.282412   -3.056975    4.934929
     79          1           0        1.986080   -2.812731    3.241836
     80          6           0        3.573340   -1.737867    4.055400
     81          8           0        6.520232    3.432112    0.957083
     82          1           0        7.212010    4.063154    0.678701
 ---------------------------------------------------------------------

 SCF Done:  E(RB3LYP) =  -2166.27757869     A.U. after    1 cycles

 Alpha  occ. eigenvalues --  -19.28445 -19.25352 -19.23617 -19.22169 -19.21439
 Alpha  occ. eigenvalues --  -19.20621 -19.19387 -19.17600 -19.14586 -19.14001
 Alpha  occ. eigenvalues --  -14.57014 -14.49030 -14.47571 -14.46494 -14.45906
 Alpha  occ. eigenvalues --  -14.45410 -14.44784 -14.42831 -10.44400 -10.40611
 Alpha  occ. eigenvalues --  -10.40387 -10.38149 -10.38081 -10.37563 -10.36243
 Alpha  occ. eigenvalues --  -10.33629 -10.32750 -10.32509 -10.31491 -10.31461
 Alpha  occ. eigenvalues --  -10.31460 -10.31432 -10.30814 -10.30558 -10.29456
 Alpha  occ. eigenvalues --  -10.29089 -10.28960 -10.28812 -10.28593 -10.28434
 Alpha  occ. eigenvalues --  -10.28365 -10.28275 -10.24845  -1.19102  -1.16152
 Alpha  occ. eigenvalues --   -1.13499  -1.12806  -1.12462  -1.11561  -1.11314
 Alpha  occ. eigenvalues --   -1.10686  -1.10076  -1.07628  -1.05714  -1.02483
 Alpha  occ. eigenvalues --   -1.02328  -1.01531  -1.01460  -1.00437  -0.99355
 Alpha  occ. eigenvalues --   -0.98552  -0.95982  -0.90874  -0.89431  -0.86516
 Alpha  occ. eigenvalues --   -0.85616  -0.84487  -0.84319  -0.83056  -0.81341
 Alpha  occ. eigenvalues --   -0.78610  -0.77191  -0.75068  -0.74569  -0.72766
 Alpha  occ. eigenvalues --   -0.71526  -0.71210  -0.70971  -0.70523  -0.70407
 Alpha  occ. eigenvalues --   -0.69936  -0.69564  -0.68500  -0.68428  -0.67469
 Alpha  occ. eigenvalues --   -0.66614  -0.66323  -0.65506  -0.63793  -0.62226
 Alpha  occ. eigenvalues --   -0.61599  -0.61415  -0.60831  -0.60504  -0.60001
 Alpha  occ. eigenvalues --   -0.59043  -0.58136  -0.58033  -0.57372  -0.56645
 Alpha  occ. eigenvalues --   -0.56342  -0.56105  -0.55788  -0.55684  -0.55322
 Alpha  occ. eigenvalues --   -0.55121  -0.54637  -0.54350  -0.54093  -0.53784
 Alpha  occ. eigenvalues --   -0.53439  -0.52559  -0.51965  -0.51884  -0.51526
 Alpha  occ. eigenvalues --   -0.50922  -0.50786  -0.50423  -0.50104  -0.49868
 Alpha  occ. eigenvalues --   -0.49384  -0.49143  -0.48933  -0.48515  -0.48118
 Alpha  occ. eigenvalues --   -0.47905  -0.47383  -0.47047  -0.46734  -0.46248
 Alpha  occ. eigenvalues --   -0.46011  -0.45725  -0.44909  -0.44824  -0.44288
 Alpha  occ. eigenvalues --   -0.44178  -0.43992  -0.43940  -0.43500  -0.42489
 Alpha  occ. eigenvalues --   -0.42036  -0.41210  -0.40108  -0.38971  -0.38562
 Alpha  occ. eigenvalues --   -0.38226  -0.37675  -0.37552  -0.37213  -0.36365
 Alpha  occ. eigenvalues --   -0.35778  -0.35241  -0.35019  -0.34694  -0.34176
 Alpha  occ. eigenvalues --   -0.33787  -0.33528  -0.32826  -0.31317  -0.30063
 Alpha  occ. eigenvalues --   -0.28932  -0.28053
 Alpha virt. eigenvalues --   -0.11182  -0.10837  -0.08888  -0.08644  -0.07889
 Alpha virt. eigenvalues --   -0.07706  -0.07566  -0.07107  -0.05301  -0.04693
 Alpha virt. eigenvalues --   -0.02618  -0.02435  -0.01769  -0.00464   0.00011

 Mulliken charges:
               1
     1  N   -0.754335
     2  H    0.409718
     3  H    0.425174
     4  H    0.400332
     5  C   -0.121561
     6  H    0.208276
     7  C    0.679388
     8  C   -0.382341
     9  H    0.212315
    10  H    0.207620
    11  O   -0.548049
    12  C    0.137658
    13  C   -0.182134
    14  H    0.147494
    15  C   -0.229039
    16  H    0.147960
    17  C   -0.123134
    18  H    0.163396
    19  C   -0.121341
    20  H    0.160594
    21  C   -0.125556
    22  H    0.163335
    23  N   -0.582048
    24  H    0.368152
    25  C   -0.100924
    26  H    0.198154
    27  C    0.635075
    28  C   -0.083501
    29  H    0.143968
    30  H    0.195632
    31  O   -0.547779
    32  O   -0.684827
    33  H    0.448815
    34  N   -0.657786
    35  H    0.410535
    36  C   -0.034015
    37  H    0.157812
    38  C    0.603975
    39  C   -0.051310
    40  H    0.191269
    41  H    0.172231
    42  O   -0.560032
    43  O   -0.637490
    44  H    0.408600
    45  N   -0.569298
    46  H    0.361143
    47  C   -0.092109
    48  H    0.186522
    49  C    0.614181
    50  C   -0.349875
    51  H    0.174709
    52  H    0.166310
    53  O   -0.502983
    54  C    0.579424
    55  O   -0.587093
    56  O   -0.588491
    57  N   -0.635600
    58  H    0.356828
    59  C   -0.070709
    60  H    0.226740
    61  C    0.594176
    62  C   -0.280510
    63  H    0.199208
    64  H    0.144845
    65  O   -0.440019
    66  C   -0.314626
    67  H    0.190479
    68  H    0.173716
    69  C   -0.181792
    70  H    0.186165
    71  H    0.191693
    72  N   -0.593747
    73  H    0.352716
    74  N   -0.803033
    75  H    0.432471
    76  H    0.379935
    77  N   -0.807005
    78  H    0.359286
    79  H    0.425371
    80  C    0.798886
    81  O   -0.578819
    82  H    0.430629
 Sum of Mulliken charges =   1.00000

 Dipole moment (field-independent basis, Debye):
    X=             -9.2780    Y=            -10.6834    Z=              4.0799  Tot=             14.7262
 Quadrupole moment (field-independent basis, Debye-Ang):
   XX=            -39.8438   YY=           -225.6211   ZZ=           -141.4267
   XY=             51.0807   XZ=            115.2100   YZ=              3.6421

 Normal termination of Gaussian 16 at Thu May 26 21:35:17 2022.
