 Gaussian 16, Revision C.01,
 Gaussian 16:  ES64L-G16RevC.01  3-Jul-2019

 -------------------------------------------------------------------
 # B3LYP/6-31G* guess=read geom=check nosymm integral(ultrafinegrid)
 -------------------------------------------------------------------

 ------------------------------------------------------
 Candidate Structure: Conf:746 Charge calc in gas phase
 ------------------------------------------------------
 Structure from the checkpoint file:  "conf-746.chk"
 Charge =  1 Multiplicity = 1

                          Input orientation:
 ---------------------------------------------------------------------
 Center     Atomic      Atomic             Coordinates (Angstroms)
 Number     Number       Type             X           Y           Z
 ---------------------------------------------------------------------
      1          7           0       -4.177417   -1.031807   -6.162626
      2          1           0       -3.591526   -0.898266   -6.991630
      3          1           0       -3.984339   -2.003710   -5.755485
      4          1           0       -5.158927   -0.922596   -6.432432
      5          6           0       -3.776576   -0.148397   -4.993843
      6          1           0       -3.149286    0.660602   -5.373032
      7          6           0       -2.963571   -1.140656   -4.112480
      8          6           0       -5.042965    0.416322   -4.310236
      9          1           0       -5.641934    0.918062   -5.083623
     10          1           0       -5.637570   -0.421557   -3.926073
     11          8           0       -3.104924   -2.351881   -4.363282
     12          6           0       -4.728635    1.392237   -3.193798
     13          6           0       -4.947092    1.040847   -1.856287
     14          1           0       -5.355640    0.062460   -1.614099
     15          6           0       -4.214516    2.663159   -3.490425
     16          1           0       -4.063205    2.963379   -4.526159
     17          6           0       -4.651787    1.940774   -0.831716
     18          1           0       -4.827012    1.656852    0.201550
     19          6           0       -3.915479    3.560923   -2.466022
     20          1           0       -3.521175    4.543468   -2.707690
     21          6           0       -4.132768    3.199694   -1.134796
     22          1           0       -3.900468    3.898878   -0.337313
     23          7           0       -2.185059   -0.628009   -3.172743
     24          1           0       -2.185149    0.370525   -2.950420
     25          6           0       -1.403731   -1.424560   -2.226029
     26          1           0       -2.029325   -2.235467   -1.838229
     27          6           0       -1.054073   -0.462365   -1.076837
     28          6           0       -0.151224   -2.052240   -2.903376
     29          1           0        0.397025   -1.259615   -3.422610
     30          1           0       -0.509602   -2.783028   -3.638704
     31          8           0       -1.287067    0.746611   -1.175651
     32          8           0        0.667977   -2.681641   -1.945993
     33          1           0        1.522490   -2.164401   -1.972572
     34          7           0       -0.542893   -1.056950    0.026458
     35          1           0       -0.069735   -1.945342   -0.157452
     36          6           0       -0.246950   -0.305303    1.252537
     37          1           0       -0.884879    0.583225    1.218790
     38          6           0        1.223409    0.144106    1.314991
     39          6           0       -0.637886   -1.141682    2.478377
     40          1           0       -0.414010   -0.574570    3.383797
     41          1           0       -0.035777   -2.061715    2.511956
     42          8           0        1.976756   -0.251970    2.211000
     43          8           0       -2.027585   -1.412039    2.496336
     44          1           0       -2.224217   -1.952115    1.714813
     45          7           0        1.611204    0.961180    0.309172
     46          1           0        0.913034    1.289615   -0.349098
     47          6           0        2.992475    1.366494    0.157696
     48          1           0        3.554617    0.661722    0.768154
     49          6           0        3.260983    2.713088    0.862078
     50          6           0        3.480254    1.148815   -1.288283
     51          1           0        2.872679    1.711413   -2.003307
     52          1           0        4.522139    1.473475   -1.391135
     53          8           0        2.395605    3.319522    1.472691
     54          6           0        3.366258   -0.374920   -1.554069
     55          8           0        2.400733   -0.742340   -2.259119
     56          8           0        4.194549   -1.130622   -0.953475
     57          7           0        4.590870    3.050446    0.914825
     58          1           0        5.257457    2.597282    0.304421
     59          6           0        5.127785    3.924204    1.939357
     60          1           0        4.284838    4.448166    2.393418
     61          6           0        6.089958    4.916303    1.297261
     62          6           0        5.919811    3.115833    3.011453
     63          1           0        6.284676    3.811086    3.775743
     64          1           0        6.811752    2.724870    2.503054
     65          8           0        6.773473    4.657777    0.330212
     66          6           0        5.122989    1.960546    3.659797
     67          1           0        4.242954    1.716112    3.057549
     68          1           0        4.736127    2.269115    4.637756
     69          6           0        5.946486    0.672062    3.872372
     70          1           0        6.772525    0.846386    4.568052
     71          1           0        5.326369   -0.111727    4.318723
     72          7           0        6.556527    0.141372    2.643196
     73          1           0        7.441747    0.550499    2.378740
     74          7           0        4.705238   -1.071229    1.841329
     75          1           0        4.263228   -1.411927    0.979342
     76          1           0        4.042175   -0.723573    2.526311
     77          7           0        6.483189   -0.684310    0.459245
     78          1           0        7.410009   -0.333962    0.268700
     79          1           0        5.833919   -0.907930   -0.321276
     80          6           0        5.909034   -0.516558    1.658429
     81          8           0        6.144981    6.080246    1.969697
     82          1           0        6.815983    6.637111    1.528780
 ---------------------------------------------------------------------

 SCF Done:  E(RB3LYP) =  -2166.27267868     A.U. after    1 cycles

 Alpha  occ. eigenvalues --  -19.27612 -19.26190 -19.21899 -19.21889 -19.20920
 Alpha  occ. eigenvalues --  -19.19907 -19.19892 -19.18915 -19.16073 -19.15930
 Alpha  occ. eigenvalues --  -14.59487 -14.48740 -14.48060 -14.45534 -14.45091
 Alpha  occ. eigenvalues --  -14.44741 -14.43564 -14.43503 -10.42961 -10.42898
 Alpha  occ. eigenvalues --  -10.40432 -10.39907 -10.38488 -10.36785 -10.36200
 Alpha  occ. eigenvalues --  -10.34239 -10.33821 -10.33045 -10.33014 -10.31870
 Alpha  occ. eigenvalues --  -10.30770 -10.30734 -10.30690 -10.30417 -10.29921
 Alpha  occ. eigenvalues --  -10.28977 -10.28702 -10.28438 -10.28241 -10.28036
 Alpha  occ. eigenvalues --  -10.28030 -10.27911 -10.26044  -1.18676  -1.18494
 Alpha  occ. eigenvalues --   -1.13712  -1.13083  -1.11756  -1.11507  -1.10735
 Alpha  occ. eigenvalues --   -1.09541  -1.09160  -1.08460  -1.07541  -1.05169
 Alpha  occ. eigenvalues --   -1.01812  -1.01311  -1.00373  -1.00121  -0.99908
 Alpha  occ. eigenvalues --   -0.98589  -0.96129  -0.92188  -0.88791  -0.87172
 Alpha  occ. eigenvalues --   -0.85804  -0.84521  -0.83893  -0.83302  -0.81945
 Alpha  occ. eigenvalues --   -0.79052  -0.77827  -0.74688  -0.74300  -0.73736
 Alpha  occ. eigenvalues --   -0.73244  -0.72574  -0.71999  -0.70301  -0.70153
 Alpha  occ. eigenvalues --   -0.69928  -0.68783  -0.68209  -0.67833  -0.67159
 Alpha  occ. eigenvalues --   -0.66458  -0.66194  -0.65192  -0.64211  -0.62594
 Alpha  occ. eigenvalues --   -0.61989  -0.60759  -0.60569  -0.60100  -0.59834
 Alpha  occ. eigenvalues --   -0.58520  -0.58153  -0.57758  -0.57432  -0.57041
 Alpha  occ. eigenvalues --   -0.56992  -0.56442  -0.56148  -0.56030  -0.55742
 Alpha  occ. eigenvalues --   -0.55281  -0.55170  -0.54669  -0.54444  -0.54116
 Alpha  occ. eigenvalues --   -0.53466  -0.53083  -0.52442  -0.51508  -0.51457
 Alpha  occ. eigenvalues --   -0.51243  -0.51006  -0.50643  -0.50334  -0.50218
 Alpha  occ. eigenvalues --   -0.50074  -0.49775  -0.49355  -0.49030  -0.48584
 Alpha  occ. eigenvalues --   -0.48117  -0.47390  -0.47010  -0.46803  -0.46407
 Alpha  occ. eigenvalues --   -0.46270  -0.45498  -0.45304  -0.44676  -0.44298
 Alpha  occ. eigenvalues --   -0.44025  -0.43644  -0.43607  -0.43379  -0.43140
 Alpha  occ. eigenvalues --   -0.41874  -0.40941  -0.39961  -0.39921  -0.39575
 Alpha  occ. eigenvalues --   -0.39177  -0.37265  -0.36636  -0.36614  -0.35748
 Alpha  occ. eigenvalues --   -0.35690  -0.34399  -0.34366  -0.34216  -0.34038
 Alpha  occ. eigenvalues --   -0.33180  -0.32890  -0.32797  -0.31982  -0.31557
 Alpha  occ. eigenvalues --   -0.30412  -0.29722
 Alpha virt. eigenvalues --   -0.11976  -0.10702  -0.10483  -0.09596  -0.08034
 Alpha virt. eigenvalues --   -0.07724  -0.07048  -0.05898  -0.05588  -0.05323
 Alpha virt. eigenvalues --   -0.04405  -0.02441  -0.02171  -0.01159  -0.00419

 Mulliken charges:
               1
     1  N   -0.760007
     2  H    0.416023
     3  H    0.435542
     4  H    0.411526
     5  C   -0.108117
     6  H    0.216714
     7  C    0.655065
     8  C   -0.381884
     9  H    0.180436
    10  H    0.186494
    11  O   -0.546540
    12  C    0.144899
    13  C   -0.179381
    14  H    0.140913
    15  C   -0.190389
    16  H    0.127910
    17  C   -0.114258
    18  H    0.162541
    19  C   -0.120059
    20  H    0.157359
    21  C   -0.112973
    22  H    0.161865
    23  N   -0.610730
    24  H    0.386355
    25  C   -0.074137
    26  H    0.193340
    27  C    0.615929
    28  C   -0.023218
    29  H    0.169039
    30  H    0.156933
    31  O   -0.548544
    32  O   -0.659960
    33  H    0.441870
    34  N   -0.620059
    35  H    0.370389
    36  C   -0.108802
    37  H    0.206091
    38  C    0.644514
    39  C   -0.032064
    40  H    0.177851
    41  H    0.141797
    42  O   -0.565549
    43  O   -0.610232
    44  H    0.390701
    45  N   -0.578878
    46  H    0.360062
    47  C   -0.098477
    48  H    0.182363
    49  C    0.613915
    50  C   -0.342694
    51  H    0.159524
    52  H    0.138632
    53  O   -0.501414
    54  C    0.608747
    55  O   -0.575127
    56  O   -0.615486
    57  N   -0.604249
    58  H    0.334924
    59  C   -0.047578
    60  H    0.215106
    61  C    0.590755
    62  C   -0.280877
    63  H    0.180184
    64  H    0.121660
    65  O   -0.468456
    66  C   -0.280579
    67  H    0.180705
    68  H    0.175467
    69  C   -0.183305
    70  H    0.184088
    71  H    0.191536
    72  N   -0.592113
    73  H    0.348169
    74  N   -0.760753
    75  H    0.404761
    76  H    0.395683
    77  N   -0.778412
    78  H    0.349719
    79  H    0.417772
    80  C    0.761570
    81  O   -0.555025
    82  H    0.422883
 Sum of Mulliken charges =   1.00000

 Dipole moment (field-independent basis, Debye):
    X=             -1.4915    Y=              4.1387    Z=            -13.4988  Tot=             14.1975
 Quadrupole moment (field-independent basis, Debye-Ang):
   XX=            -71.8564   YY=           -236.2213   ZZ=           -108.8319
   XY=             34.4093   XZ=            135.5395   YZ=             10.8696

 Normal termination of Gaussian 16 at Thu May 26 21:38:25 2022.
