 Gaussian 16, Revision C.01,
 Gaussian 16:  ES64L-G16RevC.01  3-Jul-2019

 -------------------------------------------------------------------
 # B3LYP/6-31G* guess=read geom=check nosymm integral(ultrafinegrid)
 -------------------------------------------------------------------

 ------------------------------------------------------
 Candidate Structure: Conf:879 Charge calc in gas phase
 ------------------------------------------------------
 Structure from the checkpoint file:  "conf-879.chk"
 Charge =  1 Multiplicity = 1

                          Input orientation:
 ---------------------------------------------------------------------
 Center     Atomic      Atomic             Coordinates (Angstroms)
 Number     Number       Type             X           Y           Z
 ---------------------------------------------------------------------
      1          7           0       -5.978793   -3.792906   -3.570739
      2          1           0       -6.082142   -4.368405   -4.410151
      3          1           0       -5.409142   -4.334369   -2.853117
      4          1           0       -6.914941   -3.528072   -3.232597
      5          6           0       -5.105377   -2.580258   -3.789614
      6          1           0       -5.061900   -2.377696   -4.861721
      7          6           0       -3.741700   -3.027727   -3.204258
      8          6           0       -5.672890   -1.363634   -3.014843
      9          1           0       -5.495576   -1.519148   -1.945104
     10          1           0       -5.067081   -0.497471   -3.299552
     11          8           0       -3.742707   -4.038031   -2.483513
     12          6           0       -7.140683   -1.128610   -3.301420
     13          6           0       -7.554865   -0.513627   -4.492850
     14          1           0       -6.812030   -0.145070   -5.197202
     15          6           0       -8.117973   -1.576130   -2.397386
     16          1           0       -7.813721   -2.010314   -1.445895
     17          6           0       -8.910774   -0.349828   -4.771984
     18          1           0       -9.215997    0.139719   -5.692218
     19          6           0       -9.478816   -1.416629   -2.680126
     20          1           0      -10.222046   -1.756352   -1.964656
     21          6           0       -9.875916   -0.805567   -3.868618
     22          1           0      -10.931260   -0.673789   -4.087743
     23          7           0       -2.699625   -2.274548   -3.521183
     24          1           0       -2.785102   -1.445463   -4.111717
     25          6           0       -1.417121   -2.281608   -2.829983
     26          1           0       -1.165017   -3.312896   -2.558269
     27          6           0       -1.607140   -1.505463   -1.494317
     28          6           0       -0.409050   -1.719647   -3.856690
     29          1           0       -0.272505   -2.487701   -4.629786
     30          1           0        0.563250   -1.513543   -3.397970
     31          8           0       -2.727400   -1.399897   -0.993035
     32          8           0       -0.959822   -0.562423   -4.445216
     33          1           0       -0.483506    0.224042   -4.036355
     34          7           0       -0.486248   -1.061758   -0.864031
     35          1           0        0.399708   -0.932535   -1.378391
     36          6           0       -0.626879   -0.509221    0.488974
     37          1           0       -1.571948    0.050719    0.522112
     38          6           0        0.533957    0.454825    0.781639
     39          6           0       -0.712619   -1.652386    1.515434
     40          1           0        0.267692   -2.121497    1.626816
     41          1           0       -1.416509   -2.400520    1.135595
     42          8           0        1.327350    0.278971    1.725746
     43          8           0       -1.096368   -1.198626    2.812774
     44          1           0       -2.041306   -0.982028    2.780627
     45          7           0        0.691583    1.466602   -0.086468
     46          1           0        0.028081    1.532887   -0.855243
     47          6           0        2.046144    1.962982   -0.387240
     48          1           0        2.727086    1.135973   -0.168351
     49          6           0        2.396512    3.165729    0.490692
     50          6           0        2.125712    2.252035   -1.899089
     51          1           0        1.628161    3.193066   -2.146699
     52          1           0        3.177889    2.309670   -2.195831
     53          8           0        1.612876    4.080997    0.715758
     54          6           0        1.409412    1.068598   -2.599428
     55          8           0        0.362575    1.378574   -3.234354
     56          8           0        1.840536   -0.086731   -2.333923
     57          7           0        3.650589    3.097589    1.030536
     58          1           0        4.297452    2.385897    0.707920
     59          6           0        4.254291    4.170172    1.801590
     60          1           0        3.770978    5.114746    1.530721
     61          6           0        5.731564    4.236569    1.427865
     62          6           0        4.102940    3.924321    3.324882
     63          1           0        4.771784    4.598266    3.870750
     64          1           0        4.450015    2.901637    3.522149
     65          8           0        6.323973    3.365926    0.829022
     66          6           0        2.648959    4.113104    3.814113
     67          1           0        1.946270    4.063339    2.975719
     68          1           0        2.533889    5.118091    4.234416
     69          6           0        2.214686    3.116698    4.890684
     70          1           0        2.991271    3.034548    5.664584
     71          1           0        1.293637    3.474569    5.369284
     72          7           0        1.963960    1.784389    4.316495
     73          1           0        1.965183    1.669678    3.302183
     74          7           0        1.313635    0.860122    6.352316
     75          1           0        1.177572    0.021825    6.898909
     76          1           0        1.687365    1.654692    6.849003
     77          7           0        1.210658   -0.404738    4.403608
     78          1           0        1.139285   -0.383863    3.376624
     79          1           0        0.571825   -1.049892    4.848884
     80          6           0        1.496383    0.748237    5.016816
     81          8           0        6.309444    5.364321    1.880259
     82          1           0        7.252133    5.326101    1.627179
 ---------------------------------------------------------------------

 SCF Done:  E(RB3LYP) =  -2166.27986455     A.U. after    2 cycles

 Alpha  occ. eigenvalues --  -19.27693 -19.23834 -19.23479 -19.22195 -19.22011
 Alpha  occ. eigenvalues --  -19.19328 -19.18447 -19.17245 -19.14319 -19.13611
 Alpha  occ. eigenvalues --  -14.56918 -14.49506 -14.48491 -14.46482 -14.45788
 Alpha  occ. eigenvalues --  -14.43968 -14.43422 -14.43111 -10.44682 -10.40267
 Alpha  occ. eigenvalues --  -10.40158 -10.38191 -10.37981 -10.36340 -10.35751
 Alpha  occ. eigenvalues --  -10.33814 -10.32079 -10.31914 -10.31573 -10.31421
 Alpha  occ. eigenvalues --  -10.31412 -10.30779 -10.30487 -10.30246 -10.29387
 Alpha  occ. eigenvalues --  -10.29004 -10.28888 -10.28729 -10.28516 -10.28025
 Alpha  occ. eigenvalues --  -10.28021 -10.27966 -10.23910  -1.18701  -1.16017
 Alpha  occ. eigenvalues --   -1.13561  -1.12998  -1.11335  -1.10746  -1.10568
 Alpha  occ. eigenvalues --   -1.10481  -1.09745  -1.07347  -1.05446  -1.02861
 Alpha  occ. eigenvalues --   -1.02147  -1.01378  -1.00910  -1.00076  -0.99024
 Alpha  occ. eigenvalues --   -0.98232  -0.95907  -0.90795  -0.89301  -0.86156
 Alpha  occ. eigenvalues --   -0.85428  -0.84400  -0.84211  -0.82625  -0.81152
 Alpha  occ. eigenvalues --   -0.77920  -0.77096  -0.75435  -0.74147  -0.72590
 Alpha  occ. eigenvalues --   -0.71443  -0.71155  -0.70889  -0.70255  -0.69857
 Alpha  occ. eigenvalues --   -0.69801  -0.69559  -0.68426  -0.67960  -0.66623
 Alpha  occ. eigenvalues --   -0.66530  -0.65810  -0.65690  -0.63542  -0.61865
 Alpha  occ. eigenvalues --   -0.61634  -0.60847  -0.60476  -0.59968  -0.59634
 Alpha  occ. eigenvalues --   -0.58486  -0.58390  -0.57411  -0.57282  -0.57071
 Alpha  occ. eigenvalues --   -0.56238  -0.55886  -0.55791  -0.55673  -0.55231
 Alpha  occ. eigenvalues --   -0.54959  -0.54605  -0.54297  -0.53722  -0.53528
 Alpha  occ. eigenvalues --   -0.52238  -0.51947  -0.51815  -0.51740  -0.51506
 Alpha  occ. eigenvalues --   -0.51104  -0.50525  -0.50263  -0.49720  -0.49521
 Alpha  occ. eigenvalues --   -0.49100  -0.48830  -0.48469  -0.48236  -0.47807
 Alpha  occ. eigenvalues --   -0.47325  -0.46976  -0.46797  -0.46574  -0.46079
 Alpha  occ. eigenvalues --   -0.45527  -0.45126  -0.44427  -0.44140  -0.43973
 Alpha  occ. eigenvalues --   -0.43886  -0.43864  -0.43784  -0.43106  -0.41778
 Alpha  occ. eigenvalues --   -0.41311  -0.40450  -0.40021  -0.39757  -0.38445
 Alpha  occ. eigenvalues --   -0.37732  -0.37353  -0.37005  -0.36300  -0.35929
 Alpha  occ. eigenvalues --   -0.35738  -0.35163  -0.34805  -0.34615  -0.33420
 Alpha  occ. eigenvalues --   -0.32944  -0.32693  -0.31973  -0.31017  -0.29812
 Alpha  occ. eigenvalues --   -0.28522  -0.27638
 Alpha virt. eigenvalues --   -0.11089  -0.10760  -0.09132  -0.08486  -0.07876
 Alpha virt. eigenvalues --   -0.07656  -0.07158  -0.05404  -0.05193  -0.04811
 Alpha virt. eigenvalues --   -0.02337  -0.01857  -0.01050  -0.00387   0.00015

 Mulliken charges:
               1
     1  N   -0.754499
     2  H    0.409531
     3  H    0.424607
     4  H    0.400003
     5  C   -0.121087
     6  H    0.208579
     7  C    0.680969
     8  C   -0.382421
     9  H    0.211057
    10  H    0.207932
    11  O   -0.550279
    12  C    0.137981
    13  C   -0.182046
    14  H    0.148228
    15  C   -0.228863
    16  H    0.147398
    17  C   -0.123081
    18  H    0.163624
    19  C   -0.121295
    20  H    0.160236
    21  C   -0.125488
    22  H    0.163227
    23  N   -0.582242
    24  H    0.369562
    25  C   -0.104658
    26  H    0.196130
    27  C    0.635451
    28  C   -0.083118
    29  H    0.140872
    30  H    0.198722
    31  O   -0.546490
    32  O   -0.685687
    33  H    0.448553
    34  N   -0.663331
    35  H    0.405103
    36  C   -0.059859
    37  H    0.181016
    38  C    0.612669
    39  C   -0.049949
    40  H    0.165937
    41  H    0.167657
    42  O   -0.575968
    43  O   -0.639742
    44  H    0.405048
    45  N   -0.563645
    46  H    0.364580
    47  C   -0.075113
    48  H    0.181380
    49  C    0.627991
    50  C   -0.349904
    51  H    0.178400
    52  H    0.169611
    53  O   -0.521867
    54  C    0.559923
    55  O   -0.584986
    56  O   -0.580413
    57  N   -0.615316
    58  H    0.357270
    59  C   -0.046086
    60  H    0.209084
    61  C    0.580500
    62  C   -0.276883
    63  H    0.176676
    64  H    0.154346
    65  O   -0.455383
    66  C   -0.330030
    67  H    0.216068
    68  H    0.174133
    69  C   -0.157358
    70  H    0.167180
    71  H    0.179055
    72  N   -0.616749
    73  H    0.395396
    74  N   -0.757863
    75  H    0.373050
    76  H    0.378112
    77  N   -0.774132
    78  H    0.442130
    79  H    0.361650
    80  C    0.780782
    81  O   -0.558827
    82  H    0.427249
 Sum of Mulliken charges =   1.00000

 Dipole moment (field-independent basis, Debye):
    X=            -14.7042    Y=             -4.8052    Z=              8.2370  Tot=             17.5257
 Quadrupole moment (field-independent basis, Debye-Ang):
   XX=            -61.4386   YY=           -198.7628   ZZ=           -111.0252
   XY=             91.3513   XZ=            116.6408   YZ=             62.0323

 Normal termination of Gaussian 16 at Thu May 26 21:38:34 2022.
