 Gaussian 16, Revision C.01,
 Gaussian 16:  ES64L-G16RevC.01  3-Jul-2019

 -------------------------------------------------------------------
 # B3LYP/6-31G* guess=read geom=check nosymm integral(ultrafinegrid)
 -------------------------------------------------------------------

 ------------------------------------------------------
 Candidate Structure: Conf:448 Charge calc in gas phase
 ------------------------------------------------------
 Structure from the checkpoint file:  "conf-448.chk"
 Charge =  1 Multiplicity = 1

                          Input orientation:
 ---------------------------------------------------------------------
 Center     Atomic      Atomic             Coordinates (Angstroms)
 Number     Number       Type             X           Y           Z
 ---------------------------------------------------------------------
      1          7           0       -5.157875    2.067163   -3.985274
      2          1           0       -5.198189    2.822553   -4.671258
      3          1           0       -5.446608    1.131055   -4.409148
      4          1           0       -5.785655    2.274116   -3.192968
      5          6           0       -3.763560    1.752369   -3.481551
      6          1           0       -3.049151    2.329087   -4.074359
      7          6           0       -3.614977    0.242050   -3.830620
      8          6           0       -3.625351    2.125492   -1.984523
      9          1           0       -2.658146    1.739115   -1.646140
     10          1           0       -3.561638    3.218764   -1.922547
     11          8           0       -4.593032   -0.320046   -4.359834
     12          6           0       -4.780309    1.628499   -1.139602
     13          6           0       -5.835506    2.497959   -0.812888
     14          1           0       -5.774120    3.549605   -1.092725
     15          6           0       -4.844200    0.293360   -0.708826
     16          1           0       -4.031971   -0.392755   -0.937412
     17          6           0       -6.936383    2.045572   -0.078108
     18          1           0       -7.736998    2.734217    0.176546
     19          6           0       -5.942119   -0.152799    0.026682
     20          1           0       -5.976386   -1.185876    0.360897
     21          6           0       -6.991138    0.716697    0.339601
     22          1           0       -7.841317    0.361006    0.914391
     23          7           0       -2.441340   -0.311231   -3.559404
     24          1           0       -1.690939    0.269519   -3.106409
     25          6           0       -2.201621   -1.737184   -3.763763
     26          1           0       -3.174752   -2.172032   -4.019649
     27          6           0       -1.796333   -2.362130   -2.406929
     28          6           0       -1.245943   -2.018048   -4.959621
     29          1           0       -1.437798   -1.245514   -5.717453
     30          1           0       -1.516839   -2.982541   -5.402589
     31          8           0       -2.292383   -1.963140   -1.352328
     32          8           0        0.126893   -2.109316   -4.638366
     33          1           0        0.403002   -1.331106   -4.085450
     34          7           0       -0.909759   -3.398419   -2.469120
     35          1           0       -0.255870   -3.328156   -3.260181
     36          6           0       -0.418776   -4.025676   -1.235114
     37          1           0       -1.235953   -3.974299   -0.510618
     38          6           0        0.789067   -3.234066   -0.707670
     39          6           0       -0.088280   -5.498519   -1.503086
     40          1           0        0.300841   -5.953710   -0.587371
     41          1           0        0.697298   -5.569939   -2.270268
     42          8           0        1.947655   -3.677637   -0.838248
     43          8           0       -1.244450   -6.230091   -1.850772
     44          1           0       -1.622569   -5.811312   -2.641053
     45          7           0        0.495408   -2.037773   -0.170549
     46          1           0       -0.490926   -1.783758   -0.169473
     47          6           0        1.465956   -0.960051   -0.009072
     48          1           0        2.275830   -1.147401   -0.721562
     49          6           0        2.016785   -0.910661    1.425826
     50          6           0        0.812843    0.378563   -0.404616
     51          1           0       -0.026020    0.611221    0.260381
     52          1           0        1.534482    1.197119   -0.292998
     53          8           0        1.462911   -1.436681    2.376640
     54          6           0        0.304653    0.344921   -1.868689
     55          8           0        0.864951   -0.471069   -2.641263
     56          8           0       -0.653427    1.122745   -2.138059
     57          7           0        3.229743   -0.240966    1.552432
     58          1           0        3.488984    0.357804    0.775450
     59          6           0        3.669616    0.238758    2.870172
     60          1           0        2.847282    0.030585    3.565172
     61          6           0        3.893907    1.750993    2.900810
     62          6           0        4.934939   -0.486629    3.384600
     63          1           0        5.248778    0.007262    4.307371
     64          1           0        5.744626   -0.325748    2.659384
     65          8           0        4.338841    2.338961    3.855877
     66          6           0        4.690665   -2.000151    3.610293
     67          1           0        3.694170   -2.263356    3.240833
     68          1           0        4.667080   -2.216818    4.683328
     69          6           0        5.734022   -2.922352    2.928085
     70          1           0        6.233409   -2.411922    2.097248
     71          1           0        6.525623   -3.220615    3.619092
     72          7           0        5.154124   -4.162237    2.390290
     73          1           0        5.126756   -4.975320    2.990152
     74          7           0        4.232645   -3.071514    0.548413
     75          1           0        3.482938   -3.114233   -0.158646
     76          1           0        4.359169   -2.160756    0.976290
     77          7           0        3.775142   -5.298196    0.883625
     78          1           0        3.956295   -6.193406    1.311302
     79          1           0        3.093888   -5.235520    0.131601
     80          6           0        4.379946   -4.172523    1.292022
     81          8           0        3.548384    2.364656    1.741791
     82          1           0        3.728703    3.317009    1.863930
 ---------------------------------------------------------------------

 SCF Done:  E(RB3LYP) =  -2166.29301283     A.U. after    2 cycles

 Alpha  occ. eigenvalues --  -19.29570 -19.23233 -19.23066 -19.22962 -19.21975
 Alpha  occ. eigenvalues --  -19.21622 -19.21228 -19.20710 -19.16782 -19.16678
 Alpha  occ. eigenvalues --  -14.55434 -14.50148 -14.49097 -14.47259 -14.46341
 Alpha  occ. eigenvalues --  -14.45473 -14.44594 -14.44370 -10.45418 -10.41645
 Alpha  occ. eigenvalues --  -10.39504 -10.39087 -10.38756 -10.38090 -10.36794
 Alpha  occ. eigenvalues --  -10.34999 -10.34590 -10.33798 -10.32770 -10.31937
 Alpha  occ. eigenvalues --  -10.31742 -10.31260 -10.31149 -10.29297 -10.29276
 Alpha  occ. eigenvalues --  -10.29160 -10.28650 -10.27842 -10.27335 -10.27225
 Alpha  occ. eigenvalues --  -10.26955 -10.26890 -10.26606  -1.20157  -1.15303
 Alpha  occ. eigenvalues --   -1.14444  -1.13940  -1.13539  -1.12718  -1.11144
 Alpha  occ. eigenvalues --   -1.10126  -1.09546  -1.09306  -1.08224  -1.03935
 Alpha  occ. eigenvalues --   -1.02630  -1.02577  -1.01962  -1.01421  -1.00960
 Alpha  occ. eigenvalues --   -1.00498  -0.94102  -0.90440  -0.89309  -0.87733
 Alpha  occ. eigenvalues --   -0.85762  -0.84639  -0.83368  -0.82536  -0.81582
 Alpha  occ. eigenvalues --   -0.79636  -0.76252  -0.75966  -0.75427  -0.73380
 Alpha  occ. eigenvalues --   -0.72414  -0.72107  -0.71854  -0.70551  -0.69707
 Alpha  occ. eigenvalues --   -0.69201  -0.69116  -0.68121  -0.67754  -0.67360
 Alpha  occ. eigenvalues --   -0.66986  -0.66587  -0.65792  -0.64060  -0.63035
 Alpha  occ. eigenvalues --   -0.62699  -0.61795  -0.60565  -0.60301  -0.59739
 Alpha  occ. eigenvalues --   -0.59185  -0.59110  -0.58022  -0.57846  -0.57695
 Alpha  occ. eigenvalues --   -0.57428  -0.57047  -0.56927  -0.56226  -0.55694
 Alpha  occ. eigenvalues --   -0.55498  -0.55326  -0.54707  -0.53921  -0.53627
 Alpha  occ. eigenvalues --   -0.53376  -0.52996  -0.52449  -0.52183  -0.51865
 Alpha  occ. eigenvalues --   -0.51390  -0.51001  -0.50509  -0.50447  -0.50201
 Alpha  occ. eigenvalues --   -0.49847  -0.49705  -0.49530  -0.49073  -0.48783
 Alpha  occ. eigenvalues --   -0.48311  -0.48189  -0.47948  -0.47855  -0.47002
 Alpha  occ. eigenvalues --   -0.46620  -0.46259  -0.46193  -0.45564  -0.44937
 Alpha  occ. eigenvalues --   -0.44439  -0.44092  -0.43682  -0.43152  -0.42256
 Alpha  occ. eigenvalues --   -0.41937  -0.41203  -0.40935  -0.40335  -0.40049
 Alpha  occ. eigenvalues --   -0.38784  -0.38425  -0.38000  -0.37799  -0.36592
 Alpha  occ. eigenvalues --   -0.36104  -0.35394  -0.35282  -0.35098  -0.34950
 Alpha  occ. eigenvalues --   -0.33778  -0.33463  -0.32987  -0.32959  -0.32186
 Alpha  occ. eigenvalues --   -0.31472  -0.30823
 Alpha virt. eigenvalues --   -0.09896  -0.09566  -0.09225  -0.09042  -0.08721
 Alpha virt. eigenvalues --   -0.08223  -0.08181  -0.06859  -0.05737  -0.05554
 Alpha virt. eigenvalues --   -0.03271  -0.01753  -0.01602  -0.00710  -0.00563

 Mulliken charges:
               1
     1  N   -0.765468
     2  H    0.400838
     3  H    0.429206
     4  H    0.399596
     5  C   -0.106936
     6  H    0.219490
     7  C    0.643016
     8  C   -0.398975
     9  H    0.254268
    10  H    0.166042
    11  O   -0.561068
    12  C    0.115787
    13  C   -0.229477
    14  H    0.134708
    15  C   -0.191118
    16  H    0.197289
    17  C   -0.121763
    18  H    0.152492
    19  C   -0.134726
    20  H    0.155329
    21  C   -0.125000
    22  H    0.154490
    23  N   -0.617618
    24  H    0.422477
    25  C   -0.116778
    26  H    0.214303
    27  C    0.621472
    28  C   -0.042199
    29  H    0.155098
    30  H    0.158215
    31  O   -0.529549
    32  O   -0.650552
    33  H    0.438985
    34  N   -0.629670
    35  H    0.384635
    36  C   -0.105083
    37  H    0.203205
    38  C    0.652320
    39  C   -0.024232
    40  H    0.146407
    41  H    0.145575
    42  O   -0.590413
    43  O   -0.606853
    44  H    0.400336
    45  N   -0.567782
    46  H    0.381182
    47  C   -0.072738
    48  H    0.184572
    49  C    0.601354
    50  C   -0.402932
    51  H    0.176082
    52  H    0.174238
    53  O   -0.487546
    54  C    0.620275
    55  O   -0.586074
    56  O   -0.600599
    57  N   -0.639325
    58  H    0.355830
    59  C   -0.071850
    60  H    0.226797
    61  C    0.594319
    62  C   -0.282560
    63  H    0.201457
    64  H    0.147012
    65  O   -0.436422
    66  C   -0.313956
    67  H    0.191377
    68  H    0.177067
    69  C   -0.185181
    70  H    0.187701
    71  H    0.195537
    72  N   -0.591233
    73  H    0.356795
    74  N   -0.795977
    75  H    0.419981
    76  H    0.382806
    77  N   -0.783595
    78  H    0.368380
    79  H    0.406247
    80  C    0.802026
    81  O   -0.582442
    82  H    0.431072
 Sum of Mulliken charges =   1.00000

 Dipole moment (field-independent basis, Debye):
    X=              1.0754    Y=             -3.2584    Z=             -1.7608  Tot=              3.8566
 Quadrupole moment (field-independent basis, Debye-Ang):
   XX=           -104.0540   YY=           -169.3968   ZZ=           -206.0201
   XY=            -87.1250   XZ=             80.7367   YZ=            -51.3402

 Normal termination of Gaussian 16 at Thu May 26 21:35:40 2022.
