 Gaussian 16, Revision C.01,
 Gaussian 16:  ES64L-G16RevC.01  3-Jul-2019

 -------------------------------------------------------------------
 # B3LYP/6-31G* guess=read geom=check nosymm integral(ultrafinegrid)
 -------------------------------------------------------------------

 ------------------------------------------------------
 Candidate Structure: Conf:549 Charge calc in gas phase
 ------------------------------------------------------
 Structure from the checkpoint file:  "conf-549.chk"
 Charge =  1 Multiplicity = 1

                          Input orientation:
 ---------------------------------------------------------------------
 Center     Atomic      Atomic             Coordinates (Angstroms)
 Number     Number       Type             X           Y           Z
 ---------------------------------------------------------------------
      1          7           0       -5.392864    2.483294   -3.529781
      2          1           0       -5.479683    3.421321   -3.128048
      3          1           0       -4.671811    2.515024   -4.318337
      4          1           0       -6.311321    2.180120   -3.864991
      5          6           0       -4.738697    1.487499   -2.587633
      6          1           0       -4.858029    1.843960   -1.562736
      7          6           0       -3.261774    1.530899   -3.067081
      8          6           0       -5.399476    0.098394   -2.771841
      9          1           0       -6.483191    0.225025   -2.641636
     10          1           0       -5.226670   -0.231602   -3.803842
     11          8           0       -3.067198    1.954623   -4.223066
     12          6           0       -4.888145   -0.935189   -1.788792
     13          6           0       -3.853306   -1.810712   -2.141482
     14          1           0       -3.427659   -1.771612   -3.141531
     15          6           0       -5.432481   -1.007434   -0.498911
     16          1           0       -6.251053   -0.347797   -0.216014
     17          6           0       -3.351987   -2.726779   -1.216556
     18          1           0       -2.518182   -3.365072   -1.492264
     19          6           0       -4.944361   -1.934431    0.421794
     20          1           0       -5.379526   -1.987920    1.415468
     21          6           0       -3.899994   -2.789926    0.065306
     22          1           0       -3.512740   -3.502942    0.787039
     23          7           0       -2.334959    1.094188   -2.234394
     24          1           0       -2.556382    0.719141   -1.310554
     25          6           0       -0.924369    0.939399   -2.583432
     26          1           0       -0.857645    0.598028   -3.623274
     27          6           0       -0.407474   -0.142448   -1.617702
     28          6           0       -0.155918    2.284636   -2.444925
     29          1           0       -0.597302    2.978233   -3.173406
     30          1           0        0.887814    2.114911   -2.749315
     31          8           0       -1.022329   -0.403650   -0.587377
     32          8           0       -0.260398    2.814242   -1.157560
     33          1           0        0.611412    2.690365   -0.697820
     34          7           0        0.752935   -0.738823   -1.984081
     35          1           0        1.165754   -0.493907   -2.875204
     36          6           0        1.365394   -1.828669   -1.234856
     37          1           0        0.710367   -1.996908   -0.373323
     38          6           0        2.771771   -1.466865   -0.710193
     39          6           0        1.423486   -3.118645   -2.056523
     40          1           0        1.898434   -3.890062   -1.440895
     41          1           0        2.058141   -2.965684   -2.944871
     42          8           0        3.585845   -2.354429   -0.428197
     43          8           0        0.092091   -3.460084   -2.428438
     44          1           0        0.127309   -4.316025   -2.881758
     45          7           0        3.009126   -0.149789   -0.589817
     46          1           0        2.250804    0.539429   -0.564455
     47          6           0        4.269728    0.431794   -0.131911
     48          1           0        5.080600   -0.190491   -0.528791
     49          6           0        4.372504    0.401188    1.409164
     50          6           0        4.389862    1.864859   -0.671893
     51          1           0        5.324283    2.314461   -0.330379
     52          1           0        4.441066    1.814053   -1.767231
     53          8           0        4.502432    1.436476    2.076761
     54          6           0        3.245311    2.833828   -0.291777
     55          8           0        2.102498    2.266673    0.036678
     56          8           0        3.444763    4.040885   -0.316570
     57          7           0        4.310266   -0.823950    1.969907
     58          1           0        4.279282   -1.638477    1.354785
     59          6           0        4.382803   -1.008007    3.420809
     60          1           0        5.355421   -0.620386    3.763143
     61          6           0        4.422171   -2.500689    3.759637
     62          6           0        3.258168   -0.272740    4.200344
     63          1           0        2.796690   -0.984147    4.890043
     64          1           0        2.488734    0.014962    3.477001
     65          8           0        4.005522   -2.982705    4.786537
     66          6           0        3.752530    0.961597    4.988911
     67          1           0        4.677674    1.343142    4.547285
     68          1           0        3.982103    0.681039    6.022983
     69          6           0        2.746952    2.116429    5.035793
     70          1           0        1.785700    1.789496    5.453138
     71          1           0        3.148036    2.900891    5.694441
     72          7           0        2.523275    2.651986    3.687224
     73          1           0        3.143333    2.310963    2.943057
     74          7           0        1.021469    4.275321    4.390255
     75          1           0        0.325437    4.969881    4.163723
     76          1           0        1.481172    4.373321    5.283450
     77          7           0        1.308680    3.850801    2.120592
     78          1           0        1.633059    3.244235    1.326350
     79          1           0        0.932349    4.754013    1.869136
     80          6           0        1.638498    3.601993    3.384255
     81          8           0        5.035409   -3.221799    2.796671
     82          1           0        5.043914   -4.150202    3.098376
 ---------------------------------------------------------------------

 SCF Done:  E(RB3LYP) =  -2166.27991197     A.U. after    1 cycles

 Alpha  occ. eigenvalues --  -19.27084 -19.25681 -19.22742 -19.21301 -19.21010
 Alpha  occ. eigenvalues --  -19.19310 -19.19052 -19.18992 -19.16131 -19.13870
 Alpha  occ. eigenvalues --  -14.59350 -14.48257 -14.47084 -14.45523 -14.45282
 Alpha  occ. eigenvalues --  -14.43864 -14.42999 -14.42197 -10.42388 -10.42015
 Alpha  occ. eigenvalues --  -10.40074 -10.39572 -10.38190 -10.36153 -10.36035
 Alpha  occ. eigenvalues --  -10.33456 -10.32974 -10.32832 -10.31667 -10.31567
 Alpha  occ. eigenvalues --  -10.31392 -10.31310 -10.31305 -10.30019 -10.29902
 Alpha  occ. eigenvalues --  -10.28462 -10.28152 -10.27771 -10.27460 -10.27335
 Alpha  occ. eigenvalues --  -10.26470 -10.25997 -10.24098  -1.18225  -1.18043
 Alpha  occ. eigenvalues --   -1.13381  -1.12793  -1.11237  -1.10632  -1.10392
 Alpha  occ. eigenvalues --   -1.09779  -1.09001  -1.08135  -1.07208  -1.04623
 Alpha  occ. eigenvalues --   -1.01988  -1.00206  -0.99971  -0.99502  -0.98526
 Alpha  occ. eigenvalues --   -0.97942  -0.95645  -0.91777  -0.87674  -0.87125
 Alpha  occ. eigenvalues --   -0.85044  -0.83848  -0.83364  -0.82745  -0.81963
 Alpha  occ. eigenvalues --   -0.78707  -0.76749  -0.74494  -0.73578  -0.73023
 Alpha  occ. eigenvalues --   -0.72977  -0.72427  -0.71656  -0.69892  -0.69856
 Alpha  occ. eigenvalues --   -0.69526  -0.67826  -0.67616  -0.67325  -0.66969
 Alpha  occ. eigenvalues --   -0.66073  -0.64888  -0.64664  -0.64306  -0.62395
 Alpha  occ. eigenvalues --   -0.61909  -0.60916  -0.60244  -0.60112  -0.59739
 Alpha  occ. eigenvalues --   -0.58782  -0.58397  -0.57624  -0.57187  -0.56466
 Alpha  occ. eigenvalues --   -0.56322  -0.56186  -0.55988  -0.55052  -0.54866
 Alpha  occ. eigenvalues --   -0.54816  -0.54663  -0.54306  -0.54099  -0.53283
 Alpha  occ. eigenvalues --   -0.52631  -0.52084  -0.51666  -0.51121  -0.50993
 Alpha  occ. eigenvalues --   -0.50641  -0.50508  -0.50260  -0.49700  -0.49581
 Alpha  occ. eigenvalues --   -0.49370  -0.48945  -0.48739  -0.48440  -0.47935
 Alpha  occ. eigenvalues --   -0.47489  -0.46981  -0.46613  -0.46149  -0.45789
 Alpha  occ. eigenvalues --   -0.45637  -0.44815  -0.44160  -0.43701  -0.43523
 Alpha  occ. eigenvalues --   -0.43141  -0.42935  -0.42711  -0.42368  -0.41795
 Alpha  occ. eigenvalues --   -0.41208  -0.40899  -0.40521  -0.39065  -0.38794
 Alpha  occ. eigenvalues --   -0.38571  -0.37568  -0.36467  -0.35546  -0.35242
 Alpha  occ. eigenvalues --   -0.34962  -0.34716  -0.34613  -0.33799  -0.33713
 Alpha  occ. eigenvalues --   -0.33031  -0.32679  -0.31979  -0.31266  -0.31162
 Alpha  occ. eigenvalues --   -0.30496  -0.27768
 Alpha virt. eigenvalues --   -0.11563  -0.10389  -0.10103  -0.09063  -0.06968
 Alpha virt. eigenvalues --   -0.06666  -0.06625  -0.06103  -0.05431  -0.04507
 Alpha virt. eigenvalues --   -0.03069  -0.02061  -0.01603  -0.00727  -0.00492

 Mulliken charges:
               1
     1  N   -0.756214
     2  H    0.415631
     3  H    0.432837
     4  H    0.409936
     5  C   -0.106123
     6  H    0.215332
     7  C    0.655782
     8  C   -0.384251
     9  H    0.174305
    10  H    0.188106
    11  O   -0.556011
    12  C    0.147727
    13  C   -0.184352
    14  H    0.137265
    15  C   -0.185813
    16  H    0.126440
    17  C   -0.110636
    18  H    0.169715
    19  C   -0.122882
    20  H    0.152445
    21  C   -0.119199
    22  H    0.154546
    23  N   -0.579304
    24  H    0.386367
    25  C   -0.082683
    26  H    0.176666
    27  C    0.641094
    28  C   -0.031712
    29  H    0.157516
    30  H    0.136532
    31  O   -0.524444
    32  O   -0.664548
    33  H    0.450318
    34  N   -0.614798
    35  H    0.338732
    36  C   -0.078766
    37  H    0.219367
    38  C    0.618695
    39  C   -0.035744
    40  H    0.175987
    41  H    0.131155
    42  O   -0.557229
    43  O   -0.624961
    44  H    0.406854
    45  N   -0.614608
    46  H    0.385558
    47  C   -0.078848
    48  H    0.185932
    49  C    0.646632
    50  C   -0.370434
    51  H    0.187703
    52  H    0.159465
    53  O   -0.560976
    54  C    0.606036
    55  O   -0.696689
    56  O   -0.518309
    57  N   -0.648735
    58  H    0.400436
    59  C   -0.001221
    60  H    0.201184
    61  C    0.557588
    62  C   -0.295368
    63  H    0.190196
    64  H    0.162336
    65  O   -0.446629
    66  C   -0.308901
    67  H    0.186804
    68  H    0.164851
    69  C   -0.146841
    70  H    0.173672
    71  H    0.156120
    72  N   -0.633722
    73  H    0.429992
    74  N   -0.758417
    75  H    0.361329
    76  H    0.368465
    77  N   -0.791093
    78  H    0.451035
    79  H    0.351326
    80  C    0.776780
    81  O   -0.558574
    82  H    0.426245
 Sum of Mulliken charges =   1.00000

 Dipole moment (field-independent basis, Debye):
    X=            -15.4014    Y=              6.2658    Z=             -2.5690  Tot=             16.8244
 Quadrupole moment (field-independent basis, Debye-Ang):
   XX=           -131.0887   YY=           -194.6723   ZZ=           -160.6508
   XY=            -55.2287   XZ=             68.3373   YZ=             25.7980

 Normal termination of Gaussian 16 at Thu May 26 21:35:21 2022.
