 Gaussian 16, Revision C.01,
 Gaussian 16:  ES64L-G16RevC.01  3-Jul-2019

 -------------------------------------------------------------------
 # B3LYP/6-31G* guess=read geom=check nosymm integral(ultrafinegrid)
 -------------------------------------------------------------------

 ------------------------------------------------------
 Candidate Structure: Conf:669 Charge calc in gas phase
 ------------------------------------------------------
 Structure from the checkpoint file:  "conf-669.chk"
 Charge =  1 Multiplicity = 1

                          Input orientation:
 ---------------------------------------------------------------------
 Center     Atomic      Atomic             Coordinates (Angstroms)
 Number     Number       Type             X           Y           Z
 ---------------------------------------------------------------------
      1          7           0       -3.964745    0.395057   -5.303511
      2          1           0       -3.506988    0.384109   -6.218367
      3          1           0       -4.591133   -0.446979   -5.226807
      4          1           0       -4.478255    1.281273   -5.195859
      5          6           0       -2.989296    0.196734   -4.161446
      6          1           0       -1.993790    0.528857   -4.470865
      7          6           0       -3.079024   -1.328015   -3.900143
      8          6           0       -3.455406    1.024191   -2.940514
      9          1           0       -4.345850    0.555962   -2.503732
     10          1           0       -2.640326    0.949338   -2.214367
     11          8           0       -4.097147   -1.918283   -4.283772
     12          6           0       -3.744570    2.467103   -3.306891
     13          6           0       -2.703392    3.330840   -3.690887
     14          1           0       -1.679152    2.962674   -3.706532
     15          6           0       -5.063954    2.946537   -3.314449
     16          1           0       -5.875953    2.294011   -2.997804
     17          6           0       -2.986173    4.645973   -4.057749
     18          1           0       -2.174099    5.307512   -4.346933
     19          6           0       -5.342315    4.266910   -3.683505
     20          1           0       -6.367530    4.626045   -3.671813
     21          6           0       -4.302750    5.118149   -4.054751
     22          1           0       -4.514719    6.144838   -4.339471
     23          7           0       -2.037337   -1.854914   -3.250405
     24          1           0       -1.308441   -1.185338   -2.940950
     25          6           0       -1.974772   -3.260356   -2.841695
     26          1           0       -2.998523   -3.639056   -2.811822
     27          6           0       -1.439446   -3.308871   -1.392370
     28          6           0       -1.181462   -4.112689   -3.842862
     29          1           0       -1.116760   -5.140029   -3.451314
     30          1           0       -0.151855   -3.726316   -3.946853
     31          8           0       -2.188031   -3.261059   -0.429827
     32          8           0       -1.860318   -4.055526   -5.080723
     33          1           0       -1.416973   -4.656335   -5.698899
     34          7           0       -0.070679   -3.341374   -1.252011
     35          1           0        0.508882   -3.301816   -2.079157
     36          6           0        0.560079   -3.021708    0.026209
     37          1           0       -0.186145   -2.449511    0.593129
     38          6           0        1.780642   -2.099207   -0.197334
     39          6           0        0.916886   -4.244552    0.880141
     40          1           0        1.861454   -4.687525    0.556335
     41          1           0        0.123322   -4.991893    0.790540
     42          8           0        2.862224   -2.281699    0.375029
     43          8           0        1.087667   -3.851233    2.254006
     44          1           0        0.248340   -4.004957    2.715033
     45          7           0        1.527379   -1.109742   -1.067518
     46          1           0        0.556091   -0.915452   -1.364362
     47          6           0        2.328729    0.079131   -1.252182
     48          1           0        3.387227   -0.205902   -1.279781
     49          6           0        2.161175    1.014039   -0.023144
     50          6           0        1.943792    0.739026   -2.607496
     51          1           0        2.344887    1.754720   -2.677037
     52          1           0        2.430744    0.171174   -3.409444
     53          8           0        1.390277    0.753390    0.902393
     54          6           0        0.432679    0.810309   -2.993353
     55          8           0        0.148535    1.491508   -3.987851
     56          8           0       -0.396404    0.118353   -2.292593
     57          7           0        2.968371    2.104542   -0.024672
     58          1           0        3.511909    2.308375   -0.852902
     59          6           0        2.941246    3.139783    1.010101
     60          1           0        1.889617    3.361779    1.238109
     61          6           0        3.522108    4.453727    0.481194
     62          6           0        3.656457    2.722888    2.328724
     63          1           0        4.182661    3.593179    2.730521
     64          1           0        4.413387    1.977986    2.056688
     65          8           0        3.753479    5.408420    1.181741
     66          6           0        2.692559    2.160276    3.392787
     67          1           0        1.830364    1.713572    2.895073
     68          1           0        2.301409    2.979297    4.009197
     69          6           0        3.319310    1.137496    4.352590
     70          1           0        4.094479    1.604931    4.967002
     71          1           0        2.554535    0.746677    5.031465
     72          7           0        3.970680   -0.012880    3.698052
     73          1           0        4.978539    0.004000    3.629688
     74          7           0        2.026020   -1.145272    3.072922
     75          1           0        1.652748   -2.047991    2.759703
     76          1           0        1.585526   -0.335162    2.639599
     77          7           0        4.064297   -2.216304    2.942920
     78          1           0        5.046350   -2.272936    3.172496
     79          1           0        3.726302   -2.764597    2.151732
     80          6           0        3.358628   -1.108039    3.221481
     81          8           0        3.732147    4.443402   -0.856623
     82          1           0        4.081745    5.323513   -1.095762
 ---------------------------------------------------------------------

 SCF Done:  E(RB3LYP) =  -2166.28402179     A.U. after    2 cycles

 Alpha  occ. eigenvalues --  -19.29662 -19.25695 -19.23354 -19.22866 -19.21738
 Alpha  occ. eigenvalues --  -19.21725 -19.21191 -19.20484 -19.17371 -19.16093
 Alpha  occ. eigenvalues --  -14.54911 -14.49669 -14.47719 -14.46169 -14.45978
 Alpha  occ. eigenvalues --  -14.45624 -14.44465 -14.43024 -10.44329 -10.41865
 Alpha  occ. eigenvalues --  -10.38595 -10.38500 -10.37914 -10.37872 -10.35110
 Alpha  occ. eigenvalues --  -10.34623 -10.34140 -10.33769 -10.32681 -10.32650
 Alpha  occ. eigenvalues --  -10.32433 -10.32285 -10.31957 -10.28666 -10.28340
 Alpha  occ. eigenvalues --  -10.28281 -10.27842 -10.27172 -10.26985 -10.26565
 Alpha  occ. eigenvalues --  -10.26338 -10.26275 -10.25879  -1.20347  -1.14101
 Alpha  occ. eigenvalues --   -1.13668  -1.13028  -1.12803  -1.12267  -1.11765
 Alpha  occ. eigenvalues --   -1.11300  -1.10449  -1.09942  -1.08886  -1.02963
 Alpha  occ. eigenvalues --   -1.02609  -1.02448  -1.01514  -1.01299  -1.00232
 Alpha  occ. eigenvalues --   -0.99702  -0.93344  -0.90058  -0.88603  -0.87206
 Alpha  occ. eigenvalues --   -0.86004  -0.84287  -0.83196  -0.81867  -0.81348
 Alpha  occ. eigenvalues --   -0.79331  -0.75977  -0.75306  -0.75107  -0.73708
 Alpha  occ. eigenvalues --   -0.72536  -0.71717  -0.70235  -0.69207  -0.69092
 Alpha  occ. eigenvalues --   -0.68524  -0.68399  -0.68092  -0.67668  -0.67019
 Alpha  occ. eigenvalues --   -0.66883  -0.65885  -0.65457  -0.64626  -0.63193
 Alpha  occ. eigenvalues --   -0.61950  -0.61577  -0.60499  -0.60362  -0.59283
 Alpha  occ. eigenvalues --   -0.58917  -0.58622  -0.58121  -0.57859  -0.57467
 Alpha  occ. eigenvalues --   -0.57402  -0.57068  -0.56579  -0.56473  -0.56354
 Alpha  occ. eigenvalues --   -0.54725  -0.54224  -0.53650  -0.53591  -0.53115
 Alpha  occ. eigenvalues --   -0.52974  -0.52916  -0.52263  -0.51738  -0.51506
 Alpha  occ. eigenvalues --   -0.51195  -0.50955  -0.50799  -0.49925  -0.49632
 Alpha  occ. eigenvalues --   -0.49439  -0.49303  -0.49156  -0.48791  -0.48703
 Alpha  occ. eigenvalues --   -0.48291  -0.47748  -0.47443  -0.47335  -0.46656
 Alpha  occ. eigenvalues --   -0.46308  -0.45756  -0.45202  -0.44747  -0.44616
 Alpha  occ. eigenvalues --   -0.44185  -0.43736  -0.43364  -0.43283  -0.42903
 Alpha  occ. eigenvalues --   -0.42510  -0.41646  -0.41229  -0.41123  -0.39423
 Alpha  occ. eigenvalues --   -0.38806  -0.38290  -0.37426  -0.36504  -0.36090
 Alpha  occ. eigenvalues --   -0.35991  -0.35795  -0.35409  -0.35217  -0.34700
 Alpha  occ. eigenvalues --   -0.33232  -0.33054  -0.32760  -0.32469  -0.32237
 Alpha  occ. eigenvalues --   -0.31673  -0.30261
 Alpha virt. eigenvalues --   -0.10153  -0.09073  -0.08803  -0.08146  -0.07761
 Alpha virt. eigenvalues --   -0.07476  -0.07018  -0.05972  -0.05336  -0.05290
 Alpha virt. eigenvalues --   -0.02911  -0.02817  -0.02107  -0.01073  -0.00465

 Mulliken charges:
               1
     1  N   -0.749947
     2  H    0.408740
     3  H    0.416856
     4  H    0.399369
     5  C   -0.128989
     6  H    0.243132
     7  C    0.647998
     8  C   -0.373106
     9  H    0.169706
    10  H    0.233651
    11  O   -0.543610
    12  C    0.090699
    13  C   -0.193991
    14  H    0.199573
    15  C   -0.213860
    16  H    0.140241
    17  C   -0.136653
    18  H    0.149414
    19  C   -0.124917
    20  H    0.150765
    21  C   -0.126494
    22  H    0.150559
    23  N   -0.639115
    24  H    0.414249
    25  C   -0.065339
    26  H    0.219033
    27  C    0.588304
    28  C   -0.025355
    29  H    0.148881
    30  H    0.111694
    31  O   -0.491221
    32  O   -0.605605
    33  H    0.407305
    34  N   -0.628152
    35  H    0.340183
    36  C   -0.054614
    37  H    0.198336
    38  C    0.603600
    39  C   -0.051153
    40  H    0.169564
    41  H    0.170338
    42  O   -0.577918
    43  O   -0.627226
    44  H    0.420069
    45  N   -0.611134
    46  H    0.397556
    47  C   -0.076436
    48  H    0.177562
    49  C    0.642653
    50  C   -0.392606
    51  H    0.168626
    52  H    0.180497
    53  O   -0.549512
    54  C    0.606257
    55  O   -0.540988
    56  O   -0.633226
    57  N   -0.624821
    58  H    0.363303
    59  C   -0.028975
    60  H    0.214457
    61  C    0.576362
    62  C   -0.276809
    63  H    0.193066
    64  H    0.139411
    65  O   -0.437459
    66  C   -0.302730
    67  H    0.188582
    68  H    0.172388
    69  C   -0.164801
    70  H    0.178750
    71  H    0.196219
    72  N   -0.592091
    73  H    0.351916
    74  N   -0.784773
    75  H    0.404931
    76  H    0.404904
    77  N   -0.749936
    78  H    0.354080
    79  H    0.410570
    80  C    0.755853
    81  O   -0.579427
    82  H    0.432788
 Sum of Mulliken charges =   1.00000

 Dipole moment (field-independent basis, Debye):
    X=              6.1921    Y=             -0.7770    Z=             -4.1582  Tot=              7.4991
 Quadrupole moment (field-independent basis, Debye-Ang):
   XX=           -157.2472   YY=           -200.4883   ZZ=           -147.0073
   XY=            -18.3813   XZ=             68.9820   YZ=             -8.7063

 Normal termination of Gaussian 16 at Thu May 26 21:38:56 2022.
