 Gaussian 16, Revision C.01,
 Gaussian 16:  ES64L-G16RevC.01  3-Jul-2019

 -------------------------------------------------------------------
 # B3LYP/6-31G* guess=read geom=check nosymm integral(ultrafinegrid)
 -------------------------------------------------------------------

 ------------------------------------------------------
 Candidate Structure: Conf:742 Charge calc in gas phase
 ------------------------------------------------------
 Structure from the checkpoint file:  "conf-742.chk"
 Charge =  1 Multiplicity = 1

                          Input orientation:
 ---------------------------------------------------------------------
 Center     Atomic      Atomic             Coordinates (Angstroms)
 Number     Number       Type             X           Y           Z
 ---------------------------------------------------------------------
      1          7           0       -0.009736   -2.816671   -0.887995
      2          1           0        0.342149   -3.337610   -0.073670
      3          1           0        0.703514   -2.810694   -1.627302
      4          1           0       -0.099834   -1.825891   -0.566548
      5          6           0       -1.309344   -3.266185   -1.494968
      6          1           0       -1.163515   -4.301918   -1.820761
      7          6           0       -1.418477   -2.379745   -2.764185
      8          6           0       -2.446382   -3.197557   -0.462127
      9          1           0       -2.584683   -2.156577   -0.149729
     10          1           0       -3.367474   -3.522081   -0.961899
     11          8           0       -0.380971   -2.121118   -3.366909
     12          6           0       -2.203741   -4.080857    0.748086
     13          6           0       -2.544640   -5.440478    0.716211
     14          1           0       -3.010038   -5.860785   -0.173079
     15          6           0       -1.622184   -3.554408    1.909292
     16          1           0       -1.355912   -2.500818    1.951437
     17          6           0       -2.313262   -6.257102    1.822455
     18          1           0       -2.593306   -7.305872    1.787073
     19          6           0       -1.390348   -4.372094    3.017212
     20          1           0       -0.951450   -3.944664    3.914600
     21          6           0       -1.736569   -5.722921    2.977183
     22          1           0       -1.569323   -6.357380    3.843027
     23          7           0       -2.630545   -1.889768   -3.126238
     24          1           0       -3.454765   -2.118691   -2.586362
     25          6           0       -2.733809   -0.900331   -4.203453
     26          1           0       -2.070331   -1.215300   -5.012465
     27          6           0       -2.237450    0.503904   -3.791167
     28          6           0       -4.166413   -0.806306   -4.776679
     29          1           0       -4.839600   -0.377159   -4.011676
     30          1           0       -4.525105   -1.815231   -5.009386
     31          8           0       -2.046174    1.355657   -4.653344
     32          8           0       -4.183658   -0.072851   -5.971812
     33          1           0       -3.632836    0.722951   -5.843330
     34          7           0       -2.078003    0.720585   -2.456279
     35          1           0       -2.159862   -0.091094   -1.855750
     36          6           0       -1.124281    1.675867   -1.919684
     37          1           0       -0.383566    1.917553   -2.692622
     38          6           0       -0.409424    0.948489   -0.759126
     39          6           0       -1.763157    3.007958   -1.496270
     40          1           0       -2.439222    2.854316   -0.642391
     41          1           0       -2.348451    3.385674   -2.343984
     42          8           0       -0.747522   -0.224548   -0.466012
     43          8           0       -0.681628    3.874760   -1.174224
     44          1           0       -1.020650    4.674866   -0.745732
     45          7           0        0.565730    1.586963   -0.119477
     46          1           0        0.663490    2.600255   -0.228062
     47          6           0        1.293851    0.947002    0.969735
     48          1           0        0.555759    0.478585    1.634293
     49          6           0        1.984443    2.076724    1.768880
     50          6           0        2.260465   -0.163766    0.445819
     51          1           0        1.900243   -0.511020   -0.523269
     52          1           0        3.258770    0.259602    0.292997
     53          8           0        1.688739    3.255399    1.589211
     54          6           0        2.345390   -1.364317    1.410218
     55          8           0        1.782266   -2.439661    1.127709
     56          8           0        2.993927   -1.133584    2.495932
     57          7           0        2.883517    1.634307    2.669852
     58          1           0        3.088070    0.627087    2.682308
     59          6           0        3.606441    2.508211    3.573573
     60          1           0        2.908452    3.039765    4.230507
     61          6           0        4.409565    3.606007    2.868986
     62          6           0        4.579393    1.646903    4.409984
     63          1           0        5.156758    2.311333    5.059750
     64          1           0        5.293375    1.191934    3.710409
     65          8           0        4.644483    4.679258    3.370627
     66          6           0        3.881362    0.543567    5.243519
     67          1           0        2.883876    0.330161    4.847018
     68          1           0        3.744863    0.882416    6.277884
     69          6           0        4.695703   -0.757928    5.219944
     70          1           0        4.798894   -1.115990    4.193893
     71          1           0        5.704993   -0.590359    5.613161
     72          7           0        4.097631   -1.839173    6.016758
     73          1           0        4.105182   -1.720071    7.021612
     74          7           0        3.089081   -3.057925    4.293187
     75          1           0        2.750316   -3.956304    3.975642
     76          1           0        3.046338   -2.268720    3.564478
     77          7           0        3.142519   -3.885361    6.471327
     78          1           0        3.744052   -4.019408    7.272290
     79          1           0        2.621500   -4.698052    6.175783
     80          6           0        3.446502   -2.921540    5.558165
     81          8           0        4.900619    3.210482    1.673683
     82          1           0        5.408561    3.968238    1.325841
 ---------------------------------------------------------------------

 SCF Done:  E(RB3LYP) =  -2166.30076842     A.U. after    1 cycles

 Alpha  occ. eigenvalues --  -19.26338 -19.24177 -19.23837 -19.23811 -19.20950
 Alpha  occ. eigenvalues --  -19.20817 -19.20390 -19.20092 -19.19716 -19.19030
 Alpha  occ. eigenvalues --  -14.53854 -14.50148 -14.50135 -14.48636 -14.47438
 Alpha  occ. eigenvalues --  -14.45953 -14.44747 -14.42888 -10.45906 -10.41442
 Alpha  occ. eigenvalues --  -10.39947 -10.38682 -10.38014 -10.37652 -10.37413
 Alpha  occ. eigenvalues --  -10.36797 -10.33802 -10.33173 -10.32950 -10.32820
 Alpha  occ. eigenvalues --  -10.32736 -10.32163 -10.32047 -10.31822 -10.30332
 Alpha  occ. eigenvalues --  -10.29010 -10.28989 -10.28979 -10.28872 -10.28681
 Alpha  occ. eigenvalues --  -10.28667 -10.28627 -10.27769  -1.17170  -1.16447
 Alpha  occ. eigenvalues --   -1.15067  -1.14226  -1.12807  -1.12520  -1.11539
 Alpha  occ. eigenvalues --   -1.11310  -1.09219  -1.08719  -1.08159  -1.04640
 Alpha  occ. eigenvalues --   -1.03916  -1.03826  -1.02618  -1.01635  -1.01497
 Alpha  occ. eigenvalues --   -1.00518  -0.95839  -0.90931  -0.90055  -0.87881
 Alpha  occ. eigenvalues --   -0.86389  -0.84851  -0.84261  -0.83829  -0.82845
 Alpha  occ. eigenvalues --   -0.78793  -0.77613  -0.76933  -0.75108  -0.74588
 Alpha  occ. eigenvalues --   -0.72814  -0.71462  -0.71159  -0.70519  -0.70462
 Alpha  occ. eigenvalues --   -0.69552  -0.69270  -0.68680  -0.68345  -0.68013
 Alpha  occ. eigenvalues --   -0.67235  -0.66666  -0.66100  -0.65050  -0.63852
 Alpha  occ. eigenvalues --   -0.63289  -0.62437  -0.61268  -0.61085  -0.60946
 Alpha  occ. eigenvalues --   -0.60114  -0.59138  -0.58579  -0.58304  -0.57849
 Alpha  occ. eigenvalues --   -0.57307  -0.56985  -0.56565  -0.56163  -0.55803
 Alpha  occ. eigenvalues --   -0.55648  -0.55214  -0.54919  -0.54682  -0.54321
 Alpha  occ. eigenvalues --   -0.53571  -0.53174  -0.53026  -0.52729  -0.52138
 Alpha  occ. eigenvalues --   -0.51859  -0.51801  -0.51357  -0.51155  -0.50960
 Alpha  occ. eigenvalues --   -0.50661  -0.50586  -0.50096  -0.49639  -0.49210
 Alpha  occ. eigenvalues --   -0.48654  -0.48491  -0.48392  -0.47630  -0.47315
 Alpha  occ. eigenvalues --   -0.47221  -0.46242  -0.46185  -0.45691  -0.45240
 Alpha  occ. eigenvalues --   -0.44794  -0.44554  -0.44397  -0.43938  -0.43753
 Alpha  occ. eigenvalues --   -0.43298  -0.42733  -0.41299  -0.40779  -0.39226
 Alpha  occ. eigenvalues --   -0.38455  -0.38177  -0.38121  -0.37977  -0.37189
 Alpha  occ. eigenvalues --   -0.36255  -0.35639  -0.35374  -0.35013  -0.34791
 Alpha  occ. eigenvalues --   -0.34621  -0.34511  -0.34098  -0.33594  -0.33174
 Alpha  occ. eigenvalues --   -0.32947  -0.32323
 Alpha virt. eigenvalues --   -0.10858  -0.10283  -0.10171  -0.10115  -0.09255
 Alpha virt. eigenvalues --   -0.07228  -0.06922  -0.06111  -0.05303  -0.04734
 Alpha virt. eigenvalues --   -0.04212  -0.02914  -0.02320  -0.01778  -0.01372

 Mulliken charges:
               1
     1  N   -0.773034
     2  H    0.428503
     3  H    0.408667
     4  H    0.456062
     5  C   -0.095644
     6  H    0.217208
     7  C    0.638153
     8  C   -0.402430
     9  H    0.195619
    10  H    0.174327
    11  O   -0.511533
    12  C    0.140335
    13  C   -0.179338
    14  H    0.139987
    15  C   -0.187555
    16  H    0.149296
    17  C   -0.124992
    18  H    0.157456
    19  C   -0.125501
    20  H    0.134025
    21  C   -0.126001
    22  H    0.145401
    23  N   -0.653009
    24  H    0.352614
    25  C   -0.070096
    26  H    0.226940
    27  C    0.602510
    28  C   -0.026161
    29  H    0.127450
    30  H    0.162060
    31  O   -0.509909
    32  O   -0.613277
    33  H    0.422698
    34  N   -0.614174
    35  H    0.353009
    36  C   -0.061281
    37  H    0.216587
    38  C    0.617892
    39  C   -0.032166
    40  H    0.141618
    41  H    0.178762
    42  O   -0.617526
    43  O   -0.620687
    44  H    0.422796
    45  N   -0.600526
    46  H    0.402734
    47  C   -0.043038
    48  H    0.187315
    49  C    0.609947
    50  C   -0.370245
    51  H    0.147698
    52  H    0.187577
    53  O   -0.530157
    54  C    0.609087
    55  O   -0.594555
    56  O   -0.631529
    57  N   -0.672927
    58  H    0.414217
    59  C    0.003565
    60  H    0.187324
    61  C    0.597516
    62  C   -0.329575
    63  H    0.186201
    64  H    0.169932
    65  O   -0.455281
    66  C   -0.273085
    67  H    0.171471
    68  H    0.154223
    69  C   -0.171492
    70  H    0.208083
    71  H    0.182321
    72  N   -0.603160
    73  H    0.354335
    74  N   -0.788773
    75  H    0.353337
    76  H    0.458439
    77  N   -0.761698
    78  H    0.368695
    79  H    0.365638
    80  C    0.788261
    81  O   -0.568131
    82  H    0.420593
 Sum of Mulliken charges =   1.00000

 Dipole moment (field-independent basis, Debye):
    X=              4.5506    Y=            -15.7779    Z=             16.7321  Tot=             23.4438
 Quadrupole moment (field-independent basis, Debye-Ang):
   XX=           -188.4358   YY=           -176.9358   ZZ=           -154.2197
   XY=            -16.2078   XZ=             62.2983   YZ=            -55.7799

 Normal termination of Gaussian 16 at Thu May 26 21:38:26 2022.
