 Gaussian 16, Revision C.01,
 Gaussian 16:  ES64L-G16RevC.01  3-Jul-2019

 -------------------------------------------------------------------
 # B3LYP/6-31G* guess=read geom=check nosymm integral(ultrafinegrid)
 -------------------------------------------------------------------

 ------------------------------------------------------
 Candidate Structure: Conf:156 Charge calc in gas phase
 ------------------------------------------------------
 Structure from the checkpoint file:  "conf-156.chk"
 Charge =  1 Multiplicity = 1

                          Input orientation:
 ---------------------------------------------------------------------
 Center     Atomic      Atomic             Coordinates (Angstroms)
 Number     Number       Type             X           Y           Z
 ---------------------------------------------------------------------
      1          7           0       -1.266431    0.912461   -4.447234
      2          1           0       -1.142852   -0.104535   -4.608618
      3          1           0       -1.012489    1.435266   -5.288952
      4          1           0       -0.559251    1.155156   -3.628650
      5          6           0       -2.694432    1.217115   -4.014443
      6          1           0       -2.621814    2.044037   -3.301474
      7          6           0       -3.143969   -0.088028   -3.319277
      8          6           0       -3.583278    1.607411   -5.200312
      9          1           0       -3.039333    2.339136   -5.813101
     10          1           0       -3.756516    0.716784   -5.812179
     11          8           0       -3.840781   -0.915202   -3.890724
     12          6           0       -4.900193    2.214389   -4.751434
     13          6           0       -6.037164    1.417119   -4.566127
     14          1           0       -5.975036    0.349063   -4.750760
     15          6           0       -4.989184    3.590414   -4.500036
     16          1           0       -4.117837    4.224807   -4.653090
     17          6           0       -7.237495    1.987409   -4.139720
     18          1           0       -8.113301    1.358501   -4.005798
     19          6           0       -6.187909    4.160626   -4.071401
     20          1           0       -6.242317    5.230005   -3.887365
     21          6           0       -7.316135    3.358521   -3.890378
     22          1           0       -8.252381    3.801025   -3.561967
     23          7           0       -2.551499   -0.290008   -2.114769
     24          1           0       -1.991688    0.448438   -1.698763
     25          6           0       -2.245301   -1.627709   -1.636748
     26          1           0       -3.169235   -2.148210   -1.346357
     27          6           0       -1.431846   -1.435500   -0.343142
     28          6           0       -1.580673   -2.483874   -2.774381
     29          1           0       -2.385540   -2.869880   -3.400470
     30          1           0       -1.065605   -3.355466   -2.336887
     31          8           0       -1.390972   -0.338774    0.215531
     32          8           0       -0.725849   -1.757654   -3.621510
     33          1           0        0.029356   -1.361462   -3.096635
     34          7           0       -0.820856   -2.533898    0.191588
     35          1           0       -0.651173   -3.327960   -0.414139
     36          6           0       -0.014599   -2.445817    1.420610
     37          1           0       -0.547116   -1.762888    2.089617
     38          6           0        1.382482   -1.853129    1.133593
     39          6           0        0.046837   -3.821528    2.090016
     40          1           0        0.728669   -3.773389    2.942488
     41          1           0        0.461203   -4.559911    1.380807
     42          8           0        2.431792   -2.529424    1.215519
     43          8           0       -1.203666   -4.224030    2.600914
     44          1           0       -1.851371   -4.197069    1.878405
     45          7           0        1.372768   -0.572397    0.765198
     46          1           0        0.461239   -0.117169    0.725818
     47          6           0        2.499810    0.076364    0.102388
     48          1           0        2.968141   -0.673841   -0.541076
     49          6           0        3.509783    0.572602    1.147495
     50          6           0        1.963437    1.208661   -0.785123
     51          1           0        1.432830    1.958293   -0.188695
     52          1           0        2.801847    1.729043   -1.264528
     53          8           0        3.165843    1.059543    2.217957
     54          6           0        1.032933    0.673798   -1.894071
     55          8           0        1.126662   -0.547297   -2.178180
     56          8           0        0.254663    1.529757   -2.418003
     57          7           0        4.813037    0.380333    0.789811
     58          1           0        5.039401    0.099771   -0.158644
     59          6           0        5.937196    0.883296    1.562956
     60          1           0        5.596549    1.727823    2.171123
     61          6           0        6.993119    1.370090    0.574727
     62          6           0        6.531957   -0.214720    2.480938
     63          1           0        7.503734    0.119638    2.859060
     64          1           0        6.719597   -1.093913    1.850720
     65          8           0        6.981793    1.119291   -0.610931
     66          6           0        5.604121   -0.581523    3.662524
     67          1           0        4.579424   -0.243681    3.475090
     68          1           0        5.928033   -0.048534    4.562798
     69          6           0        5.590370   -2.075318    3.995296
     70          1           0        6.621533   -2.452350    4.020934
     71          1           0        5.141984   -2.239570    4.983416
     72          7           0        4.827584   -2.829643    2.985089
     73          1           0        4.174942   -2.322998    2.384305
     74          7           0        5.561580   -4.933244    3.667547
     75          1           0        5.398745   -5.925201    3.754453
     76          1           0        6.270399   -4.529277    4.259345
     77          7           0        3.814520   -4.732470    2.153046
     78          1           0        3.145456   -4.130858    1.657917
     79          1           0        3.860976   -5.716403    1.933997
     80          6           0        4.735827   -4.160173    2.936780
     81          8           0        7.957149    2.079389    1.185680
     82          1           0        8.606052    2.337962    0.502695
 ---------------------------------------------------------------------

 SCF Done:  E(RB3LYP) =  -2166.31021412     A.U. after    3 cycles

 Alpha  occ. eigenvalues --  -19.29249 -19.24091 -19.23984 -19.23805 -19.23177
 Alpha  occ. eigenvalues --  -19.21856 -19.20505 -19.20475 -19.19057 -19.18766
 Alpha  occ. eigenvalues --  -14.51491 -14.50287 -14.50098 -14.49588 -14.47814
 Alpha  occ. eigenvalues --  -14.45940 -14.45363 -14.44343 -10.47045 -10.41781
 Alpha  occ. eigenvalues --  -10.40269 -10.40147 -10.37799 -10.37683 -10.36866
 Alpha  occ. eigenvalues --  -10.35413 -10.34163 -10.33884 -10.33770 -10.33595
 Alpha  occ. eigenvalues --  -10.33238 -10.32422 -10.32393 -10.29572 -10.29523
 Alpha  occ. eigenvalues --  -10.27624 -10.27533 -10.25917 -10.24816 -10.24492
 Alpha  occ. eigenvalues --  -10.24351 -10.24309 -10.24266  -1.20293  -1.15699
 Alpha  occ. eigenvalues --   -1.15458  -1.14564  -1.12701  -1.12542  -1.12028
 Alpha  occ. eigenvalues --   -1.11704  -1.11392  -1.09229  -1.05524  -1.04806
 Alpha  occ. eigenvalues --   -1.03907  -1.03555  -1.03170  -1.02450  -1.01975
 Alpha  occ. eigenvalues --   -1.01037  -0.91516  -0.91021  -0.88794  -0.87159
 Alpha  occ. eigenvalues --   -0.86468  -0.85170  -0.83717  -0.79888  -0.79875
 Alpha  occ. eigenvalues --   -0.79689  -0.77620  -0.76756  -0.75273  -0.74593
 Alpha  occ. eigenvalues --   -0.73233  -0.73149  -0.71915  -0.70784  -0.69843
 Alpha  occ. eigenvalues --   -0.69009  -0.68535  -0.67683  -0.66930  -0.66242
 Alpha  occ. eigenvalues --   -0.65838  -0.64934  -0.64301  -0.63966  -0.63798
 Alpha  occ. eigenvalues --   -0.63241  -0.62252  -0.61421  -0.60340  -0.60272
 Alpha  occ. eigenvalues --   -0.59765  -0.59448  -0.58829  -0.58649  -0.58135
 Alpha  occ. eigenvalues --   -0.57577  -0.57457  -0.56928  -0.56667  -0.56393
 Alpha  occ. eigenvalues --   -0.55933  -0.55508  -0.55321  -0.54059  -0.53611
 Alpha  occ. eigenvalues --   -0.53423  -0.53145  -0.52568  -0.51863  -0.51757
 Alpha  occ. eigenvalues --   -0.51410  -0.51288  -0.51193  -0.50899  -0.50502
 Alpha  occ. eigenvalues --   -0.49964  -0.49608  -0.49213  -0.48955  -0.48756
 Alpha  occ. eigenvalues --   -0.48234  -0.47861  -0.47519  -0.47392  -0.47050
 Alpha  occ. eigenvalues --   -0.46424  -0.46126  -0.45502  -0.45273  -0.45005
 Alpha  occ. eigenvalues --   -0.44531  -0.44270  -0.43915  -0.43123  -0.41998
 Alpha  occ. eigenvalues --   -0.41755  -0.41345  -0.41289  -0.39969  -0.39916
 Alpha  occ. eigenvalues --   -0.39490  -0.39427  -0.37659  -0.37548  -0.37209
 Alpha  occ. eigenvalues --   -0.36821  -0.35946  -0.35587  -0.34868  -0.34756
 Alpha  occ. eigenvalues --   -0.34388  -0.34220  -0.33739  -0.33059  -0.32705
 Alpha  occ. eigenvalues --   -0.30478  -0.30191
 Alpha virt. eigenvalues --   -0.10907  -0.10461  -0.09021  -0.08764  -0.07879
 Alpha virt. eigenvalues --   -0.07022  -0.06930  -0.06119  -0.05579  -0.03840
 Alpha virt. eigenvalues --   -0.03736  -0.03184  -0.01618  -0.01514  -0.01312

 Mulliken charges:
               1
     1  N   -0.810520
     2  H    0.420226
     3  H    0.377875
     4  H    0.444897
     5  C   -0.080929
     6  H    0.200465
     7  C    0.625855
     8  C   -0.366823
     9  H    0.148112
    10  H    0.189435
    11  O   -0.503564
    12  C    0.146028
    13  C   -0.177618
    14  H    0.159939
    15  C   -0.181110
    16  H    0.122883
    17  C   -0.130020
    18  H    0.143264
    19  C   -0.126794
    20  H    0.142248
    21  C   -0.125480
    22  H    0.143844
    23  N   -0.608450
    24  H    0.369320
    25  C   -0.051638
    26  H    0.201676
    27  C    0.631512
    28  C   -0.053947
    29  H    0.201458
    30  H    0.114266
    31  O   -0.535773
    32  O   -0.668708
    33  H    0.444868
    34  N   -0.630973
    35  H    0.343793
    36  C   -0.106015
    37  H    0.219158
    38  C    0.653528
    39  C   -0.031099
    40  H    0.165383
    41  H    0.119092
    42  O   -0.602650
    43  O   -0.599118
    44  H    0.401147
    45  N   -0.576483
    46  H    0.398029
    47  C   -0.050658
    48  H    0.182226
    49  C    0.620165
    50  C   -0.397393
    51  H    0.193228
    52  H    0.186525
    53  O   -0.517900
    54  C    0.624744
    55  O   -0.591849
    56  O   -0.613791
    57  N   -0.613795
    58  H    0.355506
    59  C   -0.049354
    60  H    0.212262
    61  C    0.581967
    62  C   -0.275933
    63  H    0.180954
    64  H    0.151838
    65  O   -0.457570
    66  C   -0.328288
    67  H    0.212909
    68  H    0.179297
    69  C   -0.156494
    70  H    0.163895
    71  H    0.187659
    72  N   -0.626733
    73  H    0.399647
    74  N   -0.766058
    75  H    0.378269
    76  H    0.384731
    77  N   -0.799539
    78  H    0.429813
    79  H    0.364210
    80  C    0.821246
    81  O   -0.556095
    82  H    0.429773
 Sum of Mulliken charges =   1.00000

 Dipole moment (field-independent basis, Debye):
    X=             16.2724    Y=            -11.8708    Z=              4.3176  Tot=             20.5997
 Quadrupole moment (field-independent basis, Debye-Ang):
   XX=           -107.4717   YY=           -158.6969   ZZ=           -191.4473
   XY=            -63.4153   XZ=             76.9312   YZ=            -58.7075

 Normal termination of Gaussian 16 at Thu May 26 21:35:45 2022.
