 Gaussian 16, Revision C.01,
 Gaussian 16:  ES64L-G16RevC.01  3-Jul-2019

 -------------------------------------------------------------------
 # B3LYP/6-31G* guess=read geom=check nosymm integral(ultrafinegrid)
 -------------------------------------------------------------------

 ------------------------------------------------------
 Candidate Structure: Conf:497 Charge calc in gas phase
 ------------------------------------------------------
 Structure from the checkpoint file:  "conf-497.chk"
 Charge =  1 Multiplicity = 1

                          Input orientation:
 ---------------------------------------------------------------------
 Center     Atomic      Atomic             Coordinates (Angstroms)
 Number     Number       Type             X           Y           Z
 ---------------------------------------------------------------------
      1          7           0       -5.029462   -0.408494   -3.809798
      2          1           0       -5.575347   -0.665287   -4.635846
      3          1           0       -4.884160   -1.276050   -3.219524
      4          1           0       -5.515076    0.349956   -3.310749
      5          6           0       -3.601980   -0.024448   -4.136334
      6          1           0       -3.565849    0.313261   -5.174396
      7          6           0       -2.824451   -1.340717   -3.900525
      8          6           0       -3.122914    1.086994   -3.170018
      9          1           0       -3.095477    0.666720   -2.158545
     10          1           0       -2.079729    1.328861   -3.422059
     11          8           0       -3.373430   -2.216435   -3.217486
     12          6           0       -4.020943    2.302857   -3.232633
     13          6           0       -5.043277    2.488654   -2.287203
     14          1           0       -5.124810    1.805507   -1.441883
     15          6           0       -3.883932    3.242227   -4.266379
     16          1           0       -3.078140    3.128291   -4.987831
     17          6           0       -5.916276    3.578314   -2.379127
     18          1           0       -6.693255    3.712994   -1.631756
     19          6           0       -4.750405    4.330464   -4.355914
     20          1           0       -4.623499    5.055245   -5.155197
     21          6           0       -5.773297    4.497797   -3.416972
     22          1           0       -6.444894    5.348387   -3.488783
     23          7           0       -1.619555   -1.368059   -4.460952
     24          1           0       -1.298812   -0.573679   -5.032056
     25          6           0       -0.459675   -2.085542   -3.979134
     26          1           0       -0.579771   -3.167278   -4.110074
     27          6           0       -0.264433   -1.797855   -2.472953
     28          6           0        0.752665   -1.564213   -4.883230
     29          1           0        0.963263   -2.333590   -5.632592
     30          1           0        1.631755   -1.408362   -4.251323
     31          8           0       -0.988039   -1.009261   -1.858063
     32          8           0        0.419488   -0.387303   -5.570521
     33          1           0        0.515026    0.399693   -4.941728
     34          7           0        0.760736   -2.452816   -1.881574
     35          1           0        1.239721   -3.182065   -2.393428
     36          6           0        1.043466   -2.368677   -0.442710
     37          1           0        0.078745   -2.366365    0.079578
     38          6           0        1.816722   -1.068340   -0.086835
     39          6           0        1.860350   -3.585472   -0.017143
     40          1           0        1.960395   -3.570356    1.076196
     41          1           0        2.871980   -3.508356   -0.439266
     42          8           0        2.945348   -1.104815    0.413850
     43          8           0        1.180640   -4.746745   -0.480806
     44          1           0        1.718088   -5.518928   -0.249192
     45          7           0        1.158644    0.067593   -0.391128
     46          1           0        0.235766   -0.034770   -0.811381
     47          6           0        1.858676    1.330883   -0.588266
     48          1           0        2.833851    1.091975   -1.023854
     49          6           0        2.053513    2.038438    0.753481
     50          6           0        1.104319    2.157607   -1.638374
     51          1           0        0.072171    2.349634   -1.327297
     52          1           0        1.595370    3.131763   -1.758348
     53          8           0        1.197435    2.118200    1.626699
     54          6           0        1.148924    1.402858   -3.000008
     55          8           0        0.130162    1.522820   -3.755949
     56          8           0        2.169990    0.725788   -3.232755
     57          7           0        3.312339    2.558255    0.929484
     58          1           0        4.003545    2.470356    0.196830
     59          6           0        3.752412    3.010043    2.230868
     60          1           0        3.070382    3.791462    2.597257
     61          6           0        5.122246    3.649106    2.067415
     62          6           0        3.756410    1.864532    3.266825
     63          1           0        2.726148    1.510661    3.342982
     64          1           0        4.018850    2.284835    4.244566
     65          8           0        5.631828    3.984413    1.028859
     66          6           0        4.695676    0.706294    2.863618
     67          1           0        5.485800    1.054328    2.183009
     68          1           0        4.147721   -0.055667    2.299432
     69          6           0        5.376776    0.052909    4.064759
     70          1           0        4.637856   -0.336443    4.775953
     71          1           0        6.016552   -0.773460    3.731041
     72          7           0        6.207080    1.066773    4.755566
     73          1           0        6.228885    1.993988    4.331010
     74          7           0        6.955232   -0.324819    6.454314
     75          1           0        7.220952   -0.446187    7.420815
     76          1           0        6.681334   -1.148727    5.939499
     77          7           0        7.333913    1.956156    6.577402
     78          1           0        7.131687    2.898348    6.274988
     79          1           0        8.035177    1.839876    7.294762
     80          6           0        6.826747    0.898211    5.915584
     81          8           0        5.787164    3.816164    3.266765
     82          1           0        6.593101    4.314379    3.024466
 ---------------------------------------------------------------------

 SCF Done:  E(RB3LYP) =  -2166.23992446     A.U. after    3 cycles

 Alpha  occ. eigenvalues --  -19.31305 -19.24951 -19.20919 -19.20598 -19.17972
 Alpha  occ. eigenvalues --  -19.16907 -19.16751 -19.16449 -19.11111 -19.10012
 Alpha  occ. eigenvalues --  -14.54299 -14.53304 -14.53114 -14.52426 -14.42375
 Alpha  occ. eigenvalues --  -14.42288 -14.42258 -14.39369 -10.49348 -10.42710
 Alpha  occ. eigenvalues --  -10.37268 -10.35950 -10.34842 -10.34622 -10.33905
 Alpha  occ. eigenvalues --  -10.33540 -10.33054 -10.29538 -10.29240 -10.29192
 Alpha  occ. eigenvalues --  -10.29154 -10.28811 -10.28141 -10.27385 -10.27266
 Alpha  occ. eigenvalues --  -10.26877 -10.26778 -10.26496 -10.26209 -10.25949
 Alpha  occ. eigenvalues --  -10.25829 -10.25815 -10.21755  -1.21429  -1.17811
 Alpha  occ. eigenvalues --   -1.13030  -1.12582  -1.09988  -1.09093  -1.08328
 Alpha  occ. eigenvalues --   -1.08024  -1.07734  -1.06795  -1.06161  -1.04965
 Alpha  occ. eigenvalues --   -1.03460  -0.99414  -0.99335  -0.98369  -0.96488
 Alpha  occ. eigenvalues --   -0.94745  -0.92839  -0.90932  -0.87450  -0.86205
 Alpha  occ. eigenvalues --   -0.83772  -0.82131  -0.81455  -0.80975  -0.80158
 Alpha  occ. eigenvalues --   -0.78911  -0.78525  -0.75226  -0.73816  -0.73237
 Alpha  occ. eigenvalues --   -0.72111  -0.70901  -0.70313  -0.68673  -0.68582
 Alpha  occ. eigenvalues --   -0.68232  -0.67795  -0.66973  -0.66557  -0.66407
 Alpha  occ. eigenvalues --   -0.66199  -0.65266  -0.64692  -0.64222  -0.62456
 Alpha  occ. eigenvalues --   -0.60976  -0.60471  -0.59885  -0.59693  -0.59143
 Alpha  occ. eigenvalues --   -0.58694  -0.58078  -0.57455  -0.56877  -0.56439
 Alpha  occ. eigenvalues --   -0.56150  -0.55487  -0.54885  -0.54265  -0.53906
 Alpha  occ. eigenvalues --   -0.53287  -0.53002  -0.52865  -0.52642  -0.51929
 Alpha  occ. eigenvalues --   -0.51485  -0.50798  -0.50640  -0.50006  -0.49462
 Alpha  occ. eigenvalues --   -0.48951  -0.48832  -0.48359  -0.47778  -0.47632
 Alpha  occ. eigenvalues --   -0.47171  -0.46842  -0.46519  -0.46004  -0.45757
 Alpha  occ. eigenvalues --   -0.45458  -0.45219  -0.44824  -0.44611  -0.44538
 Alpha  occ. eigenvalues --   -0.44171  -0.44009  -0.43554  -0.43177  -0.43015
 Alpha  occ. eigenvalues --   -0.42404  -0.41950  -0.41882  -0.41395  -0.41294
 Alpha  occ. eigenvalues --   -0.41063  -0.40680  -0.39759  -0.38246  -0.38059
 Alpha  occ. eigenvalues --   -0.37492  -0.35969  -0.35293  -0.33858  -0.33437
 Alpha  occ. eigenvalues --   -0.32997  -0.32318  -0.31950  -0.31756  -0.31456
 Alpha  occ. eigenvalues --   -0.31357  -0.30451  -0.29405  -0.29305  -0.26082
 Alpha  occ. eigenvalues --   -0.25704  -0.24406
 Alpha virt. eigenvalues --   -0.13143  -0.10106  -0.09204  -0.08199  -0.07968
 Alpha virt. eigenvalues --   -0.05803  -0.05440  -0.05017  -0.04738  -0.04217
 Alpha virt. eigenvalues --   -0.03701  -0.03399  -0.02878  -0.01034   0.00764

 Mulliken charges:
               1
     1  N   -0.751760
     2  H    0.403452
     3  H    0.417958
     4  H    0.396452
     5  C   -0.130395
     6  H    0.202383
     7  C    0.682989
     8  C   -0.418699
     9  H    0.191383
    10  H    0.272570
    11  O   -0.550406
    12  C    0.150765
    13  C   -0.234306
    14  H    0.139711
    15  C   -0.182664
    16  H    0.161512
    17  C   -0.123569
    18  H    0.149018
    19  C   -0.125167
    20  H    0.154168
    21  C   -0.128031
    22  H    0.151284
    23  N   -0.602916
    24  H    0.374197
    25  C   -0.105419
    26  H    0.179296
    27  C    0.662397
    28  C   -0.046780
    29  H    0.144983
    30  H    0.187765
    31  O   -0.560556
    32  O   -0.660744
    33  H    0.449362
    34  N   -0.587057
    35  H    0.346371
    36  C   -0.070708
    37  H    0.191337
    38  C    0.642062
    39  C   -0.062407
    40  H    0.142812
    41  H    0.152467
    42  O   -0.562126
    43  O   -0.624621
    44  H    0.403459
    45  N   -0.606982
    46  H    0.390965
    47  C   -0.058938
    48  H    0.181754
    49  C    0.641009
    50  C   -0.385759
    51  H    0.154879
    52  H    0.158819
    53  O   -0.531437
    54  C    0.612622
    55  O   -0.642301
    56  O   -0.573003
    57  N   -0.621675
    58  H    0.354867
    59  C   -0.020313
    60  H    0.211889
    61  C    0.578366
    62  C   -0.304037
    63  H    0.220955
    64  H    0.133846
    65  O   -0.424261
    66  C   -0.339614
    67  H    0.156590
    68  H    0.243931
    69  C   -0.162470
    70  H    0.189342
    71  H    0.184061
    72  N   -0.616736
    73  H    0.389153
    74  N   -0.757287
    75  H    0.385247
    76  H    0.394437
    77  N   -0.766489
    78  H    0.385814
    79  H    0.383657
    80  C    0.828084
    81  O   -0.613566
    82  H    0.422758
 Sum of Mulliken charges =   1.00000

 Dipole moment (field-independent basis, Debye):
    X=             14.4027    Y=              1.6210    Z=             19.6733  Tot=             24.4357
 Quadrupole moment (field-independent basis, Debye-Ang):
   XX=             25.9614   YY=           -203.6460   ZZ=            -76.0067
   XY=             10.1657   XZ=            241.6850   YZ=             27.1483

 Normal termination of Gaussian 16 at Thu May 26 21:35:51 2022.
