 Gaussian 16, Revision C.01,
 Gaussian 16:  ES64L-G16RevC.01  3-Jul-2019

 -------------------------------------------------------------------
 # B3LYP/6-31G* guess=read geom=check nosymm integral(ultrafinegrid)
 -------------------------------------------------------------------

 ------------------------------------------------------
 Candidate Structure: Conf:962 Charge calc in gas phase
 ------------------------------------------------------
 Structure from the checkpoint file:  "conf-962.chk"
 Charge =  1 Multiplicity = 1

                          Input orientation:
 ---------------------------------------------------------------------
 Center     Atomic      Atomic             Coordinates (Angstroms)
 Number     Number       Type             X           Y           Z
 ---------------------------------------------------------------------
      1          7           0       -5.645443   -3.369914   -4.515460
      2          1           0       -5.689165   -3.023762   -5.478358
      3          1           0       -4.937349   -4.144998   -4.478004
      4          1           0       -6.588540   -3.680211   -4.231434
      5          6           0       -5.100280   -2.346112   -3.545024
      6          1           0       -5.274092   -1.354541   -3.968109
      7          6           0       -3.594524   -2.691549   -3.451567
      8          6           0       -5.818219   -2.491974   -2.178591
      9          1           0       -5.493810   -3.429670   -1.711641
     10          1           0       -5.456483   -1.678519   -1.541123
     11          8           0       -3.253798   -3.829048   -3.830025
     12          6           0       -7.326237   -2.457998   -2.315862
     13          6           0       -8.004877   -1.243333   -2.497109
     14          1           0       -7.453344   -0.305641   -2.478130
     15          6           0       -8.062180   -3.654745   -2.319987
     16          1           0       -7.559055   -4.601264   -2.125864
     17          6           0       -9.387276   -1.226524   -2.675799
     18          1           0       -9.902560   -0.278755   -2.800294
     19          6           0       -9.448889   -3.636650   -2.504894
     20          1           0      -10.007075   -4.568015   -2.490051
     21          6           0      -10.111015   -2.423045   -2.685226
     22          1           0      -11.188141   -2.405401   -2.820527
     23          7           0       -2.819922   -1.752932   -2.935088
     24          1           0       -3.170695   -0.809498   -2.716823
     25          6           0       -1.387875   -1.829940   -2.622081
     26          1           0       -1.225933   -2.566048   -1.824884
     27          6           0       -1.074701   -0.409231   -2.076610
     28          6           0       -0.503161   -2.257397   -3.823086
     29          1           0        0.518745   -1.908381   -3.649982
     30          1           0       -0.872456   -1.747080   -4.727996
     31          8           0       -1.961450    0.454264   -2.084832
     32          8           0       -0.419498   -3.651556   -3.970354
     33          1           0       -1.323398   -3.993392   -4.093032
     34          7           0        0.163273   -0.219983   -1.611022
     35          1           0        0.885087   -0.939171   -1.651670
     36          6           0        0.660459    1.052469   -1.109409
     37          1           0        0.300594    1.866260   -1.747062
     38          6           0        2.190834    0.951787   -1.148920
     39          6           0        0.173925    1.328294    0.347676
     40          1           0        0.474394    0.483377    0.982395
     41          1           0       -0.919036    1.374491    0.324586
     42          8           0        2.745958   -0.137497   -1.295430
     43          8           0        0.657135    2.557486    0.838510
     44          1           0        1.514185    2.382752    1.287352
     45          7           0        2.837617    2.131646   -0.972271
     46          1           0        2.245405    2.891197   -0.646993
     47          6           0        4.215562    2.158954   -0.504043
     48          1           0        4.787245    1.424041   -1.072779
     49          6           0        4.249852    1.786881    1.002657
     50          6           0        4.826428    3.560064   -0.743446
     51          1           0        4.761953    3.770132   -1.817085
     52          1           0        4.264510    4.328587   -0.203461
     53          8           0        3.240528    1.860572    1.709652
     54          6           0        6.299200    3.601224   -0.299580
     55          8           0        7.010861    2.638523   -0.734422
     56          8           0        6.654207    4.501539    0.499056
     57          7           0        5.467106    1.415142    1.488614
     58          1           0        6.241555    1.492832    0.832155
     59          6           0        5.757142    1.505856    2.926226
     60          1           0        4.780631    1.568122    3.406371
     61          6           0        6.445468    2.859790    3.189847
     62          6           0        6.483845    0.273360    3.528226
     63          1           0        6.089758   -0.618833    3.025647
     64          1           0        6.141414    0.213308    4.567742
     65          8           0        6.043280    3.664062    3.988620
     66          6           0        8.026628    0.203660    3.597808
     67          1           0        8.265983   -0.551796    4.355441
     68          1           0        8.439744    1.145756    3.977586
     69          6           0        8.810578   -0.216728    2.346000
     70          1           0        9.828737   -0.477703    2.671861
     71          1           0        8.365544   -1.115911    1.898412
     72          7           0        8.874029    0.851852    1.350191
     73          1           0        8.409571    1.739359    1.593559
     74          7           0       10.429057   -0.230822   -0.001345
     75          1           0       11.017651   -0.228277   -0.820944
     76          1           0       10.723094   -0.827878    0.757059
     77          7           0        9.530908    1.839729   -0.621047
     78          1           0        8.613978    2.366767   -0.651580
     79          1           0       10.078921    1.806779   -1.469287
     80          6           0        9.614848    0.825486    0.240759
     81          8           0        7.536088    3.062766    2.389072
     82          1           0        7.365811    3.838817    1.731031
 ---------------------------------------------------------------------

 SCF Done:  E(RB3LYP) =  -2166.27860384     A.U. after    1 cycles

 Alpha  occ. eigenvalues --  -19.27456 -19.22087 -19.22021 -19.21483 -19.19512
 Alpha  occ. eigenvalues --  -19.19176 -19.18882 -19.18714 -19.15582 -19.15184
 Alpha  occ. eigenvalues --  -14.60199 -14.49694 -14.47045 -14.45313 -14.44819
 Alpha  occ. eigenvalues --  -14.43406 -14.42241 -14.41983 -10.44176 -10.41778
 Alpha  occ. eigenvalues --  -10.41212 -10.39155 -10.36372 -10.35820 -10.35375
 Alpha  occ. eigenvalues --  -10.34491 -10.34445 -10.33399 -10.33063 -10.32573
 Alpha  occ. eigenvalues --  -10.31576 -10.31299 -10.30891 -10.30582 -10.30572
 Alpha  occ. eigenvalues --  -10.30442 -10.30194 -10.29819 -10.29462 -10.29191
 Alpha  occ. eigenvalues --  -10.26917 -10.26213 -10.24182  -1.19534  -1.14470
 Alpha  occ. eigenvalues --   -1.13898  -1.13133  -1.11191  -1.10453  -1.10040
 Alpha  occ. eigenvalues --   -1.10006  -1.08572  -1.07138  -1.06193  -1.05183
 Alpha  occ. eigenvalues --   -1.01764  -1.00111  -0.99859  -0.99197  -0.98521
 Alpha  occ. eigenvalues --   -0.98009  -0.97965  -0.93577  -0.88610  -0.87218
 Alpha  occ. eigenvalues --   -0.86311  -0.86050  -0.84342  -0.82056  -0.80827
 Alpha  occ. eigenvalues --   -0.79805  -0.76231  -0.75586  -0.74387  -0.73733
 Alpha  occ. eigenvalues --   -0.73110  -0.72623  -0.72027  -0.71743  -0.70480
 Alpha  occ. eigenvalues --   -0.69870  -0.68599  -0.67565  -0.67245  -0.66615
 Alpha  occ. eigenvalues --   -0.65605  -0.64753  -0.63959  -0.63724  -0.63509
 Alpha  occ. eigenvalues --   -0.63053  -0.61638  -0.60868  -0.60010  -0.59552
 Alpha  occ. eigenvalues --   -0.58874  -0.58829  -0.58207  -0.57810  -0.57312
 Alpha  occ. eigenvalues --   -0.56812  -0.56092  -0.55714  -0.55302  -0.55203
 Alpha  occ. eigenvalues --   -0.54761  -0.54462  -0.53897  -0.53588  -0.53121
 Alpha  occ. eigenvalues --   -0.53080  -0.52710  -0.52258  -0.51950  -0.51441
 Alpha  occ. eigenvalues --   -0.51130  -0.50985  -0.50606  -0.50385  -0.49862
 Alpha  occ. eigenvalues --   -0.49511  -0.48913  -0.48571  -0.48175  -0.47771
 Alpha  occ. eigenvalues --   -0.47569  -0.47378  -0.47228  -0.46587  -0.46173
 Alpha  occ. eigenvalues --   -0.46065  -0.45722  -0.45586  -0.45209  -0.43733
 Alpha  occ. eigenvalues --   -0.43463  -0.42924  -0.42066  -0.41285  -0.41204
 Alpha  occ. eigenvalues --   -0.41163  -0.41049  -0.39131  -0.39014  -0.38622
 Alpha  occ. eigenvalues --   -0.37519  -0.37045  -0.36946  -0.36523  -0.36462
 Alpha  occ. eigenvalues --   -0.35841  -0.34796  -0.34362  -0.34172  -0.33665
 Alpha  occ. eigenvalues --   -0.33216  -0.32220  -0.31444  -0.31147  -0.30289
 Alpha  occ. eigenvalues --   -0.30097  -0.29020
 Alpha virt. eigenvalues --   -0.13669  -0.12698  -0.11535  -0.10281  -0.07710
 Alpha virt. eigenvalues --   -0.06173  -0.06005  -0.05199  -0.05040  -0.03625
 Alpha virt. eigenvalues --   -0.03240  -0.02936  -0.02230  -0.01731  -0.01397

 Mulliken charges:
               1
     1  N   -0.748745
     2  H    0.417645
     3  H    0.428505
     4  H    0.406290
     5  C   -0.114671
     6  H    0.217338
     7  C    0.666256
     8  C   -0.382456
     9  H    0.195946
    10  H    0.212840
    11  O   -0.568962
    12  C    0.135207
    13  C   -0.181407
    14  H    0.150843
    15  C   -0.231103
    16  H    0.151962
    17  C   -0.121935
    18  H    0.170517
    19  C   -0.119539
    20  H    0.168993
    21  C   -0.123190
    22  H    0.171285
    23  N   -0.625712
    24  H    0.379628
    25  C   -0.069839
    26  H    0.205805
    27  C    0.622567
    28  C   -0.031654
    29  H    0.178873
    30  H    0.137188
    31  O   -0.548159
    32  O   -0.622111
    33  H    0.423344
    34  N   -0.625889
    35  H    0.369104
    36  C   -0.070604
    37  H    0.191061
    38  C    0.606261
    39  C   -0.034787
    40  H    0.145160
    41  H    0.167842
    42  O   -0.539397
    43  O   -0.646165
    44  H    0.445372
    45  N   -0.596044
    46  H    0.348167
    47  C   -0.079510
    48  H    0.203413
    49  C    0.632003
    50  C   -0.340238
    51  H    0.178050
    52  H    0.169985
    53  O   -0.549976
    54  C    0.582539
    55  O   -0.611750
    56  O   -0.575783
    57  N   -0.623597
    58  H    0.366735
    59  C   -0.051385
    60  H    0.211174
    61  C    0.587811
    62  C   -0.289018
    63  H    0.160372
    64  H    0.173986
    65  O   -0.408648
    66  C   -0.316807
    67  H    0.165307
    68  H    0.184220
    69  C   -0.138415
    70  H    0.152205
    71  H    0.174273
    72  N   -0.641840
    73  H    0.429514
    74  N   -0.761759
    75  H    0.364550
    76  H    0.369463
    77  N   -0.773327
    78  H    0.422427
    79  H    0.343158
    80  C    0.781341
    81  O   -0.671859
    82  H    0.469756
 Sum of Mulliken charges =   1.00000

 Dipole moment (field-independent basis, Debye):
    X=             -8.6991    Y=            -16.5254    Z=            -16.1533  Tot=             24.6920
 Quadrupole moment (field-independent basis, Debye-Ang):
   XX=            134.1043   YY=           -250.2531   ZZ=           -184.0002
   XY=             33.5927   XZ=             97.1158   YZ=             15.0451

 Normal termination of Gaussian 16 at Thu May 26 21:38:09 2022.
