 Gaussian 16, Revision C.01,
 Gaussian 16:  ES64L-G16RevC.01  3-Jul-2019

 -------------------------------------------------------------------
 # B3LYP/6-31G* guess=read geom=check nosymm integral(ultrafinegrid)
 -------------------------------------------------------------------

 ------------------------------------------------------
 Candidate Structure: Conf:817 Charge calc in gas phase
 ------------------------------------------------------
 Structure from the checkpoint file:  "conf-817.chk"
 Charge =  1 Multiplicity = 1

                          Input orientation:
 ---------------------------------------------------------------------
 Center     Atomic      Atomic             Coordinates (Angstroms)
 Number     Number       Type             X           Y           Z
 ---------------------------------------------------------------------
      1          7           0       -3.879835    1.314127   -5.492173
      2          1           0       -3.622127    1.072665   -6.452702
      3          1           0       -4.657314    0.670288   -5.183884
      4          1           0       -4.136811    2.309597   -5.455431
      5          6           0       -2.791042    0.987868   -4.492649
      6          1           0       -1.820345    1.041677   -4.985874
      7          6           0       -3.151583   -0.439652   -4.032786
      8          6           0       -2.854041    1.985579   -3.316976
      9          1           0       -3.827831    1.888982   -2.820972
     10          1           0       -2.082822    1.655248   -2.616669
     11          8           0       -4.336247   -0.797487   -4.156945
     12          6           0       -2.602868    3.403021   -3.779631
     13          6           0       -1.289815    3.824591   -4.044857
     14          1           0       -0.468732    3.137822   -3.848650
     15          6           0       -3.663809    4.292629   -4.007675
     16          1           0       -4.681787    3.997795   -3.752912
     17          6           0       -1.050829    5.107984   -4.533051
     18          1           0       -0.030983    5.428362   -4.727698
     19          6           0       -3.421196    5.579311   -4.501705
     20          1           0       -4.250721    6.262030   -4.663537
     21          6           0       -2.114676    5.985781   -4.768244
     22          1           0       -1.922473    6.985089   -5.148290
     23          7           0       -2.132307   -1.119670   -3.530408
     24          1           0       -1.222329   -0.614773   -3.467166
     25          6           0       -2.274314   -2.331254   -2.740814
     26          1           0       -3.325110   -2.640510   -2.798840
     27          6           0       -2.055246   -1.933069   -1.256272
     28          6           0       -1.405587   -3.464741   -3.343805
     29          1           0       -1.945547   -3.849539   -4.217121
     30          1           0       -1.371400   -4.306006   -2.623485
     31          8           0       -2.420111   -0.827758   -0.857052
     32          8           0       -0.143592   -3.068203   -3.786754
     33          1           0        0.269141   -2.432639   -3.145692
     34          7           0       -1.554976   -2.881395   -0.407988
     35          1           0       -0.965486   -3.599944   -0.812742
     36          6           0       -1.321707   -2.578051    1.014233
     37          1           0       -2.129220   -1.904257    1.314228
     38          6           0        0.031093   -1.868531    1.203712
     39          6           0       -1.422142   -3.866723    1.835659
     40          1           0       -1.193828   -3.646597    2.881018
     41          1           0       -0.669023   -4.590774    1.487868
     42          8           0        0.995216   -2.438199    1.729908
     43          8           0       -2.732157   -4.400834    1.807735
     44          1           0       -2.969252   -4.536718    0.876233
     45          7           0        0.085422   -0.598013    0.734861
     46          1           0       -0.750719   -0.271956    0.253043
     47          6           0        1.366531   -0.008787    0.305437
     48          1           0        2.015336   -0.848688    0.033414
     49          6           0        2.041275    0.739404    1.464978
     50          6           0        1.153035    0.848812   -0.939318
     51          1           0        0.483710    1.690782   -0.734118
     52          1           0        2.109756    1.289883   -1.241396
     53          8           0        2.310709    1.940616    1.460231
     54          6           0        0.588361    0.002926   -2.103165
     55          8           0       -0.036857    0.615211   -3.017095
     56          8           0        0.763757   -1.243885   -2.024402
     57          7           0        2.352078   -0.058243    2.526039
     58          1           0        2.063227   -1.039800    2.493616
     59          6           0        3.027490    0.498885    3.678347
     60          1           0        2.906861   -0.222321    4.498647
     61          6           0        2.325195    1.774442    4.162734
     62          6           0        4.533508    0.701798    3.398094
     63          1           0        4.613718    1.409526    2.566286
     64          1           0        4.905372   -0.257042    3.026432
     65          8           0        2.880326    2.764826    4.621958
     66          6           0        5.385897    1.170261    4.602452
     67          1           0        6.174866    0.441589    4.822007
     68          1           0        4.772374    1.240765    5.506888
     69          6           0        6.025574    2.538185    4.321080
     70          1           0        6.818693    2.450351    3.572945
     71          1           0        5.282697    3.229587    3.918715
     72          7           0        6.631719    3.169076    5.506707
     73          1           0        7.552682    2.855167    5.784878
     74          7           0        4.677512    4.192093    6.249455
     75          1           0        4.251590    4.961733    6.745995
     76          1           0        4.070805    3.639272    5.632211
     77          7           0        6.686843    4.581777    7.339452
     78          1           0        7.691534    4.667556    7.289990
     79          1           0        6.217860    5.073207    8.086040
     80          6           0        5.987662    3.975945    6.356560
     81          8           0        0.997050    1.656612    4.155864
     82          1           0        0.627221    2.500098    4.478606
 ---------------------------------------------------------------------

 SCF Done:  E(RB3LYP) =  -2166.27837103     A.U. after    2 cycles

 Alpha  occ. eigenvalues --  -19.29111 -19.24634 -19.20431 -19.19415 -19.18760
 Alpha  occ. eigenvalues --  -19.18693 -19.18645 -19.15774 -19.14118 -19.14039
 Alpha  occ. eigenvalues --  -14.54673 -14.52127 -14.52025 -14.50809 -14.43223
 Alpha  occ. eigenvalues --  -14.42321 -14.42191 -14.41535 -10.48193 -10.42691
 Alpha  occ. eigenvalues --  -10.36943 -10.35908 -10.35125 -10.35099 -10.34872
 Alpha  occ. eigenvalues --  -10.34300 -10.33319 -10.32148 -10.29735 -10.29548
 Alpha  occ. eigenvalues --  -10.29304 -10.28710 -10.28673 -10.28351 -10.28245
 Alpha  occ. eigenvalues --  -10.27518 -10.27383 -10.26697 -10.26331 -10.26019
 Alpha  occ. eigenvalues --  -10.25957 -10.25615 -10.23378  -1.20776  -1.16570
 Alpha  occ. eigenvalues --   -1.12852  -1.11525  -1.10910  -1.10424  -1.09679
 Alpha  occ. eigenvalues --   -1.08288  -1.07265  -1.06980  -1.05891  -1.04458
 Alpha  occ. eigenvalues --   -1.04183  -0.99791  -0.99696  -0.99074  -0.98312
 Alpha  occ. eigenvalues --   -0.97658  -0.92998  -0.90477  -0.87796  -0.85847
 Alpha  occ. eigenvalues --   -0.84056  -0.82662  -0.81573  -0.81204  -0.80244
 Alpha  occ. eigenvalues --   -0.79293  -0.77668  -0.74185  -0.74122  -0.73433
 Alpha  occ. eigenvalues --   -0.72380  -0.70700  -0.70323  -0.69786  -0.68659
 Alpha  occ. eigenvalues --   -0.68350  -0.68196  -0.67208  -0.66464  -0.65701
 Alpha  occ. eigenvalues --   -0.65421  -0.64903  -0.64798  -0.64222  -0.64005
 Alpha  occ. eigenvalues --   -0.61407  -0.60619  -0.60432  -0.59300  -0.59013
 Alpha  occ. eigenvalues --   -0.58303  -0.57778  -0.57617  -0.56919  -0.56687
 Alpha  occ. eigenvalues --   -0.55981  -0.55652  -0.55197  -0.54675  -0.54074
 Alpha  occ. eigenvalues --   -0.53433  -0.53041  -0.52861  -0.52789  -0.51993
 Alpha  occ. eigenvalues --   -0.51582  -0.51062  -0.50827  -0.50322  -0.49266
 Alpha  occ. eigenvalues --   -0.49164  -0.49072  -0.48829  -0.48770  -0.48495
 Alpha  occ. eigenvalues --   -0.47906  -0.47648  -0.47057  -0.46770  -0.46402
 Alpha  occ. eigenvalues --   -0.46173  -0.46076  -0.45621  -0.45103  -0.44989
 Alpha  occ. eigenvalues --   -0.44690  -0.44607  -0.44496  -0.43619  -0.43258
 Alpha  occ. eigenvalues --   -0.43023  -0.42754  -0.42717  -0.41654  -0.41232
 Alpha  occ. eigenvalues --   -0.41021  -0.40491  -0.40291  -0.39828  -0.38545
 Alpha  occ. eigenvalues --   -0.38433  -0.36418  -0.35218  -0.34968  -0.34059
 Alpha  occ. eigenvalues --   -0.33341  -0.32740  -0.32529  -0.32421  -0.31926
 Alpha  occ. eigenvalues --   -0.31685  -0.31114  -0.30376  -0.29631  -0.29327
 Alpha  occ. eigenvalues --   -0.28754  -0.28020
 Alpha virt. eigenvalues --   -0.12038  -0.09203  -0.08359  -0.08322  -0.07980
 Alpha virt. eigenvalues --   -0.06237  -0.05213  -0.04827  -0.04706  -0.04312
 Alpha virt. eigenvalues --   -0.04122  -0.03548  -0.01073  -0.00687   0.00552

 Mulliken charges:
               1
     1  N   -0.749897
     2  H    0.407377
     3  H    0.416156
     4  H    0.396861
     5  C   -0.122485
     6  H    0.228355
     7  C    0.640707
     8  C   -0.377895
     9  H    0.172045
    10  H    0.241326
    11  O   -0.562593
    12  C    0.129298
    13  C   -0.189341
    14  H    0.184907
    15  C   -0.229445
    16  H    0.134840
    17  C   -0.128697
    18  H    0.150333
    19  C   -0.126214
    20  H    0.148301
    21  C   -0.126879
    22  H    0.148834
    23  N   -0.580246
    24  H    0.413053
    25  C   -0.138040
    26  H    0.204371
    27  C    0.651528
    28  C   -0.008796
    29  H    0.151603
    30  H    0.098711
    31  O   -0.543796
    32  O   -0.651937
    33  H    0.436797
    34  N   -0.624864
    35  H    0.357075
    36  C   -0.104678
    37  H    0.198209
    38  C    0.641563
    39  C   -0.029229
    40  H    0.166252
    41  H    0.141794
    42  O   -0.554117
    43  O   -0.610637
    44  H    0.394872
    45  N   -0.604539
    46  H    0.375729
    47  C   -0.064626
    48  H    0.201405
    49  C    0.641625
    50  C   -0.390957
    51  H    0.162237
    52  H    0.177128
    53  O   -0.548111
    54  C    0.627704
    55  O   -0.617656
    56  O   -0.603012
    57  N   -0.622189
    58  H    0.384984
    59  C   -0.041915
    60  H    0.184955
    61  C    0.634052
    62  C   -0.277051
    63  H    0.188837
    64  H    0.172529
    65  O   -0.532863
    66  C   -0.267500
    67  H    0.158519
    68  H    0.149145
    69  C   -0.188318
    70  H    0.193271
    71  H    0.209306
    72  N   -0.596681
    73  H    0.361421
    74  N   -0.793781
    75  H    0.370562
    76  H    0.457184
    77  N   -0.769044
    78  H    0.380674
    79  H    0.380690
    80  C    0.818432
    81  O   -0.530368
    82  H    0.422842
 Sum of Mulliken charges =   1.00000

 Dipole moment (field-independent basis, Debye):
    X=             14.2361    Y=             20.0680    Z=             15.0573  Tot=             28.8464
 Quadrupole moment (field-independent basis, Debye-Ang):
   XX=            -66.4711   YY=           -169.6004   ZZ=            -16.2500
   XY=             65.6755   XZ=            205.8025   YZ=             69.0764

 Normal termination of Gaussian 16 at Thu May 26 21:38:34 2022.
