 Gaussian 16, Revision C.01,
 Gaussian 16:  ES64L-G16RevC.01  3-Jul-2019

 -------------------------------------------------------------------
 # B3LYP/6-31G* guess=read geom=check nosymm integral(ultrafinegrid)
 -------------------------------------------------------------------

 -----------------------------------------------------
 Candidate Structure: Conf:34 Charge calc in gas phase
 -----------------------------------------------------
 Structure from the checkpoint file:  "conf-34.chk"
 Charge =  1 Multiplicity = 1

                          Input orientation:
 ---------------------------------------------------------------------
 Center     Atomic      Atomic             Coordinates (Angstroms)
 Number     Number       Type             X           Y           Z
 ---------------------------------------------------------------------
      1          7           0       -3.679321    0.475445   -6.369222
      2          1           0       -3.280058    1.362854   -6.687463
      3          1           0       -2.935652   -0.292530   -6.466154
      4          1           0       -4.516754    0.270750   -6.920549
      5          6           0       -3.919503    0.428574   -4.870643
      6          1           0       -4.006571    1.449574   -4.494337
      7          6           0       -2.632286   -0.289603   -4.376085
      8          6           0       -5.211074   -0.379522   -4.587654
      9          1           0       -6.021516    0.071350   -5.177318
     10          1           0       -5.063403   -1.402607   -4.955618
     11          8           0       -2.023448   -0.966758   -5.226863
     12          6           0       -5.595251   -0.390473   -3.122038
     13          6           0       -5.207578   -1.445621   -2.286280
     14          1           0       -4.651004   -2.285035   -2.697029
     15          6           0       -6.320587    0.678914   -2.578456
     16          1           0       -6.645979    1.496989   -3.219017
     17          6           0       -5.511511   -1.422165   -0.924944
     18          1           0       -5.155025   -2.218875   -0.279152
     19          6           0       -6.643150    0.694549   -1.221639
     20          1           0       -7.211339    1.524747   -0.812054
     21          6           0       -6.232317   -0.351897   -0.393674
     22          1           0       -6.468115   -0.330209    0.666085
     23          7           0       -2.302351   -0.146736   -3.104830
     24          1           0       -2.902621    0.347467   -2.435993
     25          6           0       -1.273681   -0.931700   -2.422416
     26          1           0       -1.290895   -1.957019   -2.805690
     27          6           0       -1.695185   -0.905682   -0.937516
     28          6           0        0.158026   -0.382311   -2.635076
     29          1           0        0.214472    0.641547   -2.232149
     30          1           0        0.336220   -0.325087   -3.721264
     31          8           0       -2.543496   -0.093638   -0.553102
     32          8           0        1.033242   -1.263556   -1.994058
     33          1           0        1.891403   -0.761897   -1.755683
     34          7           0       -1.086511   -1.824577   -0.165601
     35          1           0       -0.235344   -2.230138   -0.556695
     36          6           0       -1.258542   -1.890384    1.290356
     37          1           0       -1.972361   -1.108597    1.561698
     38          6           0        0.151917   -1.635315    1.853517
     39          6           0       -1.796624   -3.248005    1.730135
     40          1           0       -1.829392   -3.267165    2.830504
     41          1           0       -1.101047   -4.030603    1.402418
     42          8           0        0.971563   -2.548345    1.874458
     43          8           0       -3.095677   -3.417984    1.168235
     44          1           0       -3.385259   -4.318300    1.378098
     45          7           0        0.440244   -0.338511    2.150056
     46          1           0       -0.306663    0.340863    2.080702
     47          6           0        1.793142    0.168494    1.953166
     48          1           0        2.443574   -0.709850    1.988571
     49          6           0        2.212342    1.119625    3.081817
     50          6           0        1.911905    0.834496    0.548033
     51          1           0        1.089623    0.463409   -0.064642
     52          1           0        1.797195    1.923036    0.637648
     53          8           0        1.480231    1.424473    4.020365
     54          6           0        3.250887    0.538016   -0.178323
     55          8           0        3.171274    0.084535   -1.353120
     56          8           0        4.308774    0.784842    0.459560
     57          7           0        3.482459    1.579463    2.908424
     58          1           0        3.955803    1.338491    1.998699
     59          6           0        4.052183    2.537840    3.819981
     60          1           0        3.281691    2.713810    4.585844
     61          6           0        4.317857    3.887222    3.145026
     62          6           0        5.328585    1.972170    4.475810
     63          1           0        6.115331    1.905391    3.713802
     64          1           0        5.092186    0.947878    4.785409
     65          8           0        5.290623    4.591546    3.344174
     66          6           0        5.840959    2.774258    5.679245
     67          1           0        5.074014    2.810130    6.464549
     68          1           0        6.050962    3.798672    5.354753
     69          6           0        7.113315    2.146564    6.246911
     70          1           0        6.908927    1.144388    6.641704
     71          1           0        7.874139    2.066941    5.459314
     72          7           0        7.641739    2.977123    7.350653
     73          1           0        7.306844    3.932408    7.391869
     74          7           0        9.266342    1.468779    8.030385
     75          1           0        9.806822    1.059974    8.779233
     76          1           0        9.161049    0.928549    7.183757
     77          7           0        8.883930    3.383895    9.271506
     78          1           0        8.310142    4.179206    9.513097
     79          1           0        9.758630    3.280075    9.765801
     80          6           0        8.592368    2.615065    8.205361
     81          8           0        3.327947    4.245055    2.308221
     82          1           0        3.585020    5.108368    1.932233
 ---------------------------------------------------------------------

 SCF Done:  E(RB3LYP) =  -2166.22240402     A.U. after    1 cycles

 Alpha  occ. eigenvalues --  -19.24728 -19.23670 -19.19441 -19.19436 -19.17904
 Alpha  occ. eigenvalues --  -19.15337 -19.15103 -19.13972 -19.09527 -19.09442
 Alpha  occ. eigenvalues --  -14.57386 -14.53030 -14.52919 -14.52703 -14.45979
 Alpha  occ. eigenvalues --  -14.41098 -14.39250 -14.36920 -10.49235 -10.40311
 Alpha  occ. eigenvalues --  -10.38146 -10.37320 -10.35260 -10.34681 -10.32382
 Alpha  occ. eigenvalues --  -10.31623 -10.30855 -10.29773 -10.28560 -10.28208
 Alpha  occ. eigenvalues --  -10.28004 -10.27822 -10.27741 -10.27729 -10.27681
 Alpha  occ. eigenvalues --  -10.26595 -10.26206 -10.25938 -10.25902 -10.25564
 Alpha  occ. eigenvalues --  -10.25515 -10.25346 -10.20146  -1.17676  -1.16232
 Alpha  occ. eigenvalues --   -1.15860  -1.11022  -1.09710  -1.07212  -1.06732
 Alpha  occ. eigenvalues --   -1.06678  -1.06415  -1.05925  -1.05604  -1.03640
 Alpha  occ. eigenvalues --   -1.02540  -1.02092  -0.97669  -0.95644  -0.95362
 Alpha  occ. eigenvalues --   -0.93809  -0.93722  -0.89946  -0.89786  -0.84214
 Alpha  occ. eigenvalues --   -0.83568  -0.82245  -0.81446  -0.80524  -0.79732
 Alpha  occ. eigenvalues --   -0.78284  -0.76660  -0.76151  -0.74908  -0.71644
 Alpha  occ. eigenvalues --   -0.71555  -0.70742  -0.70389  -0.70025  -0.69594
 Alpha  occ. eigenvalues --   -0.68288  -0.67657  -0.66348  -0.66083  -0.65698
 Alpha  occ. eigenvalues --   -0.65444  -0.64481  -0.63556  -0.62829  -0.61845
 Alpha  occ. eigenvalues --   -0.61330  -0.60679  -0.60176  -0.59435  -0.58538
 Alpha  occ. eigenvalues --   -0.58201  -0.57368  -0.56808  -0.56254  -0.56072
 Alpha  occ. eigenvalues --   -0.54429  -0.53691  -0.53538  -0.53160  -0.52819
 Alpha  occ. eigenvalues --   -0.52632  -0.52224  -0.51745  -0.51360  -0.51124
 Alpha  occ. eigenvalues --   -0.50147  -0.49738  -0.49536  -0.49300  -0.48995
 Alpha  occ. eigenvalues --   -0.48967  -0.48590  -0.48396  -0.47936  -0.47407
 Alpha  occ. eigenvalues --   -0.46758  -0.46247  -0.46050  -0.45351  -0.44886
 Alpha  occ. eigenvalues --   -0.44405  -0.44086  -0.43862  -0.43672  -0.43244
 Alpha  occ. eigenvalues --   -0.43032  -0.42917  -0.42368  -0.42164  -0.41755
 Alpha  occ. eigenvalues --   -0.41604  -0.41309  -0.41182  -0.40769  -0.39799
 Alpha  occ. eigenvalues --   -0.39294  -0.38559  -0.38250  -0.37601  -0.36972
 Alpha  occ. eigenvalues --   -0.36928  -0.36441  -0.34663  -0.33421  -0.32493
 Alpha  occ. eigenvalues --   -0.32138  -0.31866  -0.31586  -0.31446  -0.29245
 Alpha  occ. eigenvalues --   -0.28829  -0.28059  -0.27887  -0.27599  -0.25128
 Alpha  occ. eigenvalues --   -0.23875  -0.23680
 Alpha virt. eigenvalues --   -0.12990  -0.09619  -0.09015  -0.08566  -0.08189
 Alpha virt. eigenvalues --   -0.07152  -0.05086  -0.04713  -0.04235  -0.04178
 Alpha virt. eigenvalues --   -0.03667  -0.03622  -0.01202  -0.00037   0.00026

 Mulliken charges:
               1
     1  N   -0.757236
     2  H    0.412721
     3  H    0.432817
     4  H    0.406896
     5  C   -0.105643
     6  H    0.211636
     7  C    0.651751
     8  C   -0.383563
     9  H    0.170214
    10  H    0.187320
    11  O   -0.549681
    12  C    0.148370
    13  C   -0.187224
    14  H    0.139432
    15  C   -0.186070
    16  H    0.122657
    17  C   -0.108701
    18  H    0.177611
    19  C   -0.122838
    20  H    0.148646
    21  C   -0.118634
    22  H    0.153410
    23  N   -0.603704
    24  H    0.382661
    25  C   -0.079391
    26  H    0.195255
    27  C    0.615869
    28  C    0.003756
    29  H    0.128654
    30  H    0.139343
    31  O   -0.550518
    32  O   -0.681132
    33  H    0.461335
    34  N   -0.592497
    35  H    0.381140
    36  C   -0.074020
    37  H    0.181873
    38  C    0.601939
    39  C   -0.025523
    40  H    0.139372
    41  H    0.156749
    42  O   -0.518109
    43  O   -0.626848
    44  H    0.400288
    45  N   -0.576658
    46  H    0.333115
    47  C   -0.076824
    48  H    0.214355
    49  C    0.586421
    50  C   -0.408320
    51  H    0.139402
    52  H    0.155950
    53  O   -0.541362
    54  C    0.625177
    55  O   -0.601473
    56  O   -0.583348
    57  N   -0.633718
    58  H    0.397536
    59  C   -0.049378
    60  H    0.197048
    61  C    0.598203
    62  C   -0.266043
    63  H    0.167055
    64  H    0.162848
    65  O   -0.488799
    66  C   -0.326876
    67  H    0.160741
    68  H    0.194359
    69  C   -0.148985
    70  H    0.185166
    71  H    0.191261
    72  N   -0.605529
    73  H    0.369908
    74  N   -0.756529
    75  H    0.386694
    76  H    0.398984
    77  N   -0.763738
    78  H    0.386343
    79  H    0.385605
    80  C    0.837662
    81  O   -0.541908
    82  H    0.415273
 Sum of Mulliken charges =   1.00000

 Dipole moment (field-independent basis, Debye):
    X=             11.4181    Y=             12.4879    Z=             14.9159  Tot=             22.5567
 Quadrupole moment (field-independent basis, Debye-Ang):
   XX=             89.1821   YY=           -197.8564   ZZ=            144.6857
   XY=             81.6194   XZ=            378.5972   YZ=             63.6003

 Normal termination of Gaussian 16 at Thu May 26 21:35:12 2022.
