 Gaussian 16, Revision C.01,
 Gaussian 16:  ES64L-G16RevC.01  3-Jul-2019

 -------------------------------------------------------------------
 # B3LYP/6-31G* guess=read geom=check nosymm integral(ultrafinegrid)
 -------------------------------------------------------------------

 ------------------------------------------------------
 Candidate Structure: Conf:451 Charge calc in gas phase
 ------------------------------------------------------
 Structure from the checkpoint file:  "conf-451.chk"
 Charge =  1 Multiplicity = 1

                          Input orientation:
 ---------------------------------------------------------------------
 Center     Atomic      Atomic             Coordinates (Angstroms)
 Number     Number       Type             X           Y           Z
 ---------------------------------------------------------------------
      1          7           0       -0.549844   -3.233668    3.147480
      2          1           0        0.351447   -3.368279    2.675508
      3          1           0       -0.481946   -3.437047    4.142784
      4          1           0       -1.222341   -3.868506    2.716106
      5          6           0       -0.953497   -1.835026    2.889993
      6          1           0       -0.528877   -1.183431    3.667397
      7          6           0       -0.288291   -1.427605    1.567496
      8          6           0       -2.467438   -1.660718    2.906668
      9          1           0       -2.914787   -2.209723    2.075987
     10          1           0       -2.717820   -0.604978    2.788114
     11          8           0        0.638652   -2.080626    1.119737
     12          6           0       -3.124062   -2.131369    4.200110
     13          1           0       -2.740240   -1.570875    5.053423
     14          1           0       -2.966357   -3.201390    4.354973
     15          6           0       -4.621163   -1.841763    4.007625
     16          8           0       -5.007869   -0.718758    4.380442
     17          8           0       -5.283362   -2.748437    3.469025
     18          7           0       -0.751485   -0.302458    0.978656
     19          1           0       -1.557058    0.164317    1.363147
     20          6           0       -0.155496    0.232825   -0.239364
     21          1           0       -0.655588    1.194115   -0.393930
     22          6           0        1.345114    0.511949   -0.038114
     23          6           0       -0.398155   -0.658301   -1.467500
     24          1           0        0.244235   -1.531879   -1.398704
     25          1           0       -1.429617   -1.011278   -1.421026
     26          8           0        2.221570    0.083185   -0.769580
     27          6           0       -0.172428    0.085902   -2.758731
     28          6           0       -1.035010    1.111810   -3.136739
     29          1           0       -1.868128    1.362902   -2.490474
     30          6           0        0.902025   -0.214544   -3.591938
     31          1           0        1.605023   -0.984148   -3.292675
     32          6           0       -0.850139    1.812642   -4.330398
     33          1           0       -1.536297    2.603256   -4.615045
     34          6           0        1.113464    0.481047   -4.786222
     35          1           0        1.955535    0.232855   -5.423009
     36          8           0        0.388015    2.164132   -6.420142
     37          1           0        1.349653    2.237198   -6.618367
     38          6           0        0.226672    1.486418   -5.146016
     39          7           0        1.632860    1.289701    1.034244
     40          1           0        0.995906    1.457507    1.805440
     41          6           0        2.991150    1.564535    1.406154
     42          1           0        3.600935    0.653377    1.317374
     43          6           0        2.926874    2.003035    2.901235
     44          6           0        3.631733    2.659926    0.548114
     45          1           0        3.407669    2.434997   -0.495155
     46          1           0        3.154634    3.618829    0.775245
     47          8           0        4.005222    2.257776    3.453391
     48          6           0        5.142298    2.744070    0.730196
     49          1           0        5.572020    1.780962    0.432259
     50          1           0        5.396742    2.883551    1.782305
     51          6           0        5.755851    3.843925   -0.113723
     52          1           0        5.476209    3.704001   -1.161201
     53          1           0        5.352457    4.811091    0.198943
     54          6           0        7.264948    3.883653   -0.011794
     55          1           0        7.548937    4.020147    1.034388
     56          1           0        7.669180    2.920273   -0.331666
     57          7           0        7.859431    4.967384   -0.833138
     58          1           0        8.877114    4.994438   -0.762319
     59          1           0        7.507019    5.879048   -0.543555
     60          1           0        7.623253    4.849650   -1.817831
     61          8           0        1.784325    2.039997    3.407599
     62          1           0        0.084145    3.095518   -6.321996
 ---------------------------------------------------------------------

 SCF Done:  E(RB3LYP) =  -1525.92706978     A.U. after    3 cycles

 Alpha  occ. eigenvalues --  -19.49644 -19.23149 -19.17619 -19.07958 -19.07221
 Alpha  occ. eigenvalues --  -19.05414 -19.05337 -14.64763 -14.57157 -14.46805
 Alpha  occ. eigenvalues --  -14.38917 -10.42473 -10.39868 -10.39804 -10.35302
 Alpha  occ. eigenvalues --  -10.35108 -10.34942 -10.34460 -10.33196 -10.33068
 Alpha  occ. eigenvalues --  -10.32916 -10.32675 -10.31749 -10.29087 -10.26557
 Alpha  occ. eigenvalues --  -10.26065 -10.26057 -10.24287 -10.24089 -10.23990
 Alpha  occ. eigenvalues --  -10.20724  -1.36619  -1.19603  -1.16318  -1.11998
 Alpha  occ. eigenvalues --   -1.09888  -1.03547  -1.02214  -1.01239  -0.99342
 Alpha  occ. eigenvalues --   -0.96192  -0.93961  -0.93091  -0.92645  -0.90312
 Alpha  occ. eigenvalues --   -0.90237  -0.89384  -0.86216  -0.85447  -0.84590
 Alpha  occ. eigenvalues --   -0.81499  -0.79764  -0.79006  -0.77817  -0.77181
 Alpha  occ. eigenvalues --   -0.75224  -0.74798  -0.71803  -0.71668  -0.71026
 Alpha  occ. eigenvalues --   -0.70363  -0.69061  -0.67863  -0.67713  -0.67101
 Alpha  occ. eigenvalues --   -0.65330  -0.63797  -0.61823  -0.61476  -0.61100
 Alpha  occ. eigenvalues --   -0.60960  -0.59363  -0.58803  -0.57971  -0.56958
 Alpha  occ. eigenvalues --   -0.55908  -0.53992  -0.53727  -0.53411  -0.53016
 Alpha  occ. eigenvalues --   -0.51986  -0.51458  -0.51061  -0.50593  -0.49727
 Alpha  occ. eigenvalues --   -0.48894  -0.48461  -0.48274  -0.48146  -0.47737
 Alpha  occ. eigenvalues --   -0.46555  -0.45573  -0.45394  -0.44196  -0.43258
 Alpha  occ. eigenvalues --   -0.42608  -0.41934  -0.40998  -0.40831  -0.39837
 Alpha  occ. eigenvalues --   -0.39566  -0.39173  -0.39055  -0.37957  -0.37214
 Alpha  occ. eigenvalues --   -0.36824  -0.36189  -0.35288  -0.33944  -0.31571
 Alpha  occ. eigenvalues --   -0.30048  -0.23468  -0.23260  -0.21725  -0.20998
 Alpha  occ. eigenvalues --   -0.20394  -0.18943
 Alpha virt. eigenvalues --   -0.18100  -0.14988  -0.14829  -0.14581  -0.10524
 Alpha virt. eigenvalues --   -0.08999  -0.08525  -0.08237  -0.07308  -0.06113
 Alpha virt. eigenvalues --   -0.05066  -0.03803  -0.01924  -0.00632  -0.00209

 Mulliken charges:
               1
     1  N   -0.717019
     2  H    0.418363
     3  H    0.425719
     4  H    0.419805
     5  C   -0.146146
     6  H    0.253123
     7  C    0.660224
     8  C   -0.318782
     9  H    0.168475
    10  H    0.188463
    11  O   -0.525450
    12  C   -0.345443
    13  H    0.145871
    14  H    0.097626
    15  C    0.550515
    16  O   -0.562192
    17  O   -0.574210
    18  N   -0.617961
    19  H    0.364722
    20  C   -0.061238
    21  H    0.166771
    22  C    0.625467
    23  C   -0.357354
    24  H    0.206878
    25  H    0.171544
    26  O   -0.553576
    27  C    0.189810
    28  C   -0.178202
    29  H    0.180119
    30  C   -0.152378
    31  H    0.199672
    32  C   -0.147375
    33  H    0.173548
    34  C   -0.152788
    35  H    0.167658
    36  O   -0.569227
    37  H    0.449382
    38  C    0.222537
    39  N   -0.609859
    40  H    0.338482
    41  C   -0.043738
    42  H    0.143414
    43  C    0.559097
    44  C   -0.256557
    45  H    0.119385
    46  H    0.137482
    47  O   -0.591812
    48  C   -0.272519
    49  H    0.135901
    50  H    0.214941
    51  C   -0.285877
    52  H    0.133675
    53  H    0.162005
    54  C   -0.232618
    55  H    0.241597
    56  H    0.223992
    57  N   -0.712094
    58  H    0.429928
    59  H    0.427997
    60  H    0.419680
    61  O   -0.602963
    62  H    0.453509
 Sum of Mulliken charges =   1.00000

 Dipole moment (field-independent basis, Debye):
    X=             36.1311    Y=             18.1737    Z=            -34.2617  Tot=             53.0057
 Quadrupole moment (field-independent basis, Debye-Ang):
   XX=            -44.5531   YY=            -48.2239   ZZ=           -105.2929
   XY=            117.4260   XZ=            -10.9730   YZ=           -106.1708

 Normal termination of Gaussian 16 at Tue May 24 03:30:52 2022.
