 Gaussian 16, Revision C.01,
 Gaussian 16:  ES64L-G16RevC.01  3-Jul-2019

 -------------------------------------------------------------------
 # B3LYP/6-31G* guess=read geom=check nosymm integral(ultrafinegrid)
 -------------------------------------------------------------------

 ------------------------------------------------------
 Candidate Structure: Conf:772 Charge calc in gas phase
 ------------------------------------------------------
 Structure from the checkpoint file:  "conf-772.chk"
 Charge =  1 Multiplicity = 1

                          Input orientation:
 ---------------------------------------------------------------------
 Center     Atomic      Atomic             Coordinates (Angstroms)
 Number     Number       Type             X           Y           Z
 ---------------------------------------------------------------------
      1          7           0       -0.351573   -4.048145    1.646803
      2          1           0        0.424550   -4.386134    2.224335
      3          1           0       -1.056284   -4.787624    1.575473
      4          1           0        0.031446   -3.781813    0.690636
      5          6           0       -0.914303   -2.726145    2.123426
      6          1           0       -0.678746   -2.609243    3.183989
      7          6           0       -0.193771   -1.701455    1.195663
      8          6           0       -2.413611   -2.616704    1.819511
      9          1           0       -2.542092   -2.730147    0.737126
     10          1           0       -2.697346   -1.582397    2.035263
     11          8           0        0.278562   -2.142770    0.142258
     12          6           0       -3.409851   -3.545079    2.544600
     13          1           0       -3.387974   -3.391037    3.627503
     14          1           0       -3.245426   -4.605212    2.323318
     15          6           0       -4.763435   -3.148866    1.962177
     16          8           0       -5.272183   -2.086545    2.602967
     17          8           0       -5.236218   -3.642751    0.960410
     18          7           0       -0.289722   -0.422803    1.551744
     19          1           0       -0.617913   -0.210778    2.483785
     20          6           0        0.136404    0.703675    0.715718
     21          1           0       -0.127463    1.594429    1.295482
     22          6           0        1.689623    0.680088    0.597494
     23          6           0       -0.627881    0.758826   -0.641446
     24          1           0       -0.508071    1.773419   -1.041960
     25          1           0       -0.148431    0.079237   -1.350512
     26          8           0        2.356025   -0.100760    1.267099
     27          6           0       -2.100641    0.409270   -0.520268
     28          6           0       -2.632302   -0.672710   -1.231286
     29          1           0       -1.998798   -1.219669   -1.925109
     30          6           0       -2.963375    1.111424    0.338302
     31          1           0       -2.601941    1.985854    0.875767
     32          6           0       -3.956470   -1.084359   -1.055407
     33          1           0       -4.342145   -1.937457   -1.608696
     34          6           0       -4.282317    0.709532    0.535003
     35          1           0       -4.937221    1.248447    1.212552
     36          8           0       -6.049192   -0.829088    0.157371
     37          1           0       -5.964854   -1.694045    2.024119
     38          6           0       -4.772383   -0.414123   -0.141087
     39          7           0        2.205348    1.600935   -0.241317
     40          1           0        1.624678    2.245866   -0.767764
     41          6           0        3.636391    1.826773   -0.405736
     42          1           0        4.135870    1.707808    0.558881
     43          6           0        3.817458    3.240532   -0.937142
     44          6           0        4.250751    0.830007   -1.438725
     45          1           0        4.108131   -0.167405   -1.010800
     46          1           0        3.627249    0.873948   -2.341261
     47          8           0        5.030906    3.714211   -0.699190
     48          6           0        5.745451    1.050885   -1.797251
     49          1           0        6.273786    0.097981   -1.676020
     50          1           0        6.203582    1.740459   -1.083854
     51          6           0        6.030394    1.516613   -3.244675
     52          1           0        7.120996    1.541353   -3.385071
     53          1           0        5.665835    0.741533   -3.932812
     54          6           0        5.446808    2.843015   -3.760852
     55          1           0        5.634422    2.884094   -4.843063
     56          1           0        4.360958    2.873879   -3.626850
     57          7           0        5.995248    4.055233   -3.094807
     58          1           0        5.696936    4.885508   -3.606000
     59          1           0        7.015202    4.045424   -3.130601
     60          1           0        5.405033    4.125227   -1.575115
     61          8           0        2.953619    3.783709   -1.609996
     62          1           0       -6.234996   -1.660040   -0.314231
 ---------------------------------------------------------------------

 SCF Done:  E(RB3LYP) =  -1526.20077308     A.U. after    3 cycles

 Alpha  occ. eigenvalues --  -19.29716 -19.28428 -19.27651 -19.24808 -19.22683
 Alpha  occ. eigenvalues --  -19.20425 -19.20289 -14.61141 -14.50819 -14.44619
 Alpha  occ. eigenvalues --  -14.42355 -10.44400 -10.43328 -10.41913 -10.38173
 Alpha  occ. eigenvalues --  -10.38051 -10.35600 -10.35136 -10.34795 -10.33504
 Alpha  occ. eigenvalues --  -10.30911 -10.30294 -10.29651 -10.29381 -10.29249
 Alpha  occ. eigenvalues --  -10.29157 -10.29061 -10.28839 -10.26431 -10.26166
 Alpha  occ. eigenvalues --  -10.25342  -1.21061  -1.20205  -1.16001  -1.15254
 Alpha  occ. eigenvalues --   -1.14941  -1.12501  -1.12216  -1.07269  -1.06959
 Alpha  occ. eigenvalues --   -1.01126  -0.97695  -0.95840  -0.95553  -0.90509
 Alpha  occ. eigenvalues --   -0.88077  -0.87136  -0.84934  -0.84216  -0.82127
 Alpha  occ. eigenvalues --   -0.78968  -0.77489  -0.76974  -0.74959  -0.73912
 Alpha  occ. eigenvalues --   -0.72929  -0.72071  -0.71584  -0.70978  -0.69011
 Alpha  occ. eigenvalues --   -0.68774  -0.66542  -0.66086  -0.64704  -0.64279
 Alpha  occ. eigenvalues --   -0.64159  -0.62126  -0.60849  -0.59960  -0.59535
 Alpha  occ. eigenvalues --   -0.58537  -0.58312  -0.57699  -0.57549  -0.56883
 Alpha  occ. eigenvalues --   -0.56333  -0.55800  -0.55482  -0.54117  -0.53756
 Alpha  occ. eigenvalues --   -0.53619  -0.53019  -0.52630  -0.52543  -0.52139
 Alpha  occ. eigenvalues --   -0.51871  -0.51577  -0.51175  -0.50457  -0.50024
 Alpha  occ. eigenvalues --   -0.49640  -0.49165  -0.49062  -0.48748  -0.47877
 Alpha  occ. eigenvalues --   -0.46812  -0.46282  -0.45588  -0.45265  -0.44089
 Alpha  occ. eigenvalues --   -0.43834  -0.42938  -0.42805  -0.42364  -0.41807
 Alpha  occ. eigenvalues --   -0.41004  -0.40691  -0.40207  -0.40118  -0.38379
 Alpha  occ. eigenvalues --   -0.36465  -0.35354  -0.34903  -0.34573  -0.34068
 Alpha  occ. eigenvalues --   -0.33056  -0.32148
 Alpha virt. eigenvalues --   -0.13599  -0.11964  -0.10666  -0.09954  -0.09449
 Alpha virt. eigenvalues --   -0.07664  -0.06984  -0.06355  -0.05581  -0.02950
 Alpha virt. eigenvalues --   -0.02394  -0.02186  -0.00736  -0.00552  -0.00197

 Mulliken charges:
               1
     1  N   -0.750945
     2  H    0.422313
     3  H    0.417059
     4  H    0.433856
     5  C   -0.131288
     6  H    0.210914
     7  C    0.687266
     8  C   -0.322365
     9  H    0.202463
    10  H    0.216015
    11  O   -0.535155
    12  C   -0.342788
    13  H    0.193246
    14  H    0.165497
    15  C    0.584747
    16  O   -0.565589
    17  O   -0.462781
    18  N   -0.572784
    19  H    0.357102
    20  C   -0.083635
    21  H    0.186864
    22  C    0.652716
    23  C   -0.383001
    24  H    0.180405
    25  H    0.189618
    26  O   -0.533950
    27  C    0.176907
    28  C   -0.210632
    29  H    0.150430
    30  C   -0.205647
    31  H    0.140197
    32  C   -0.190983
    33  H    0.153747
    34  C   -0.159630
    35  H    0.163457
    36  O   -0.663412
    37  H    0.443334
    38  C    0.345357
    39  N   -0.624177
    40  H    0.354039
    41  C   -0.024346
    42  H    0.190390
    43  C    0.588453
    44  C   -0.280033
    45  H    0.171690
    46  H    0.144099
    47  O   -0.602895
    48  C   -0.280250
    49  H    0.148036
    50  H    0.176564
    51  C   -0.278707
    52  H    0.143099
    53  H    0.150781
    54  C   -0.155619
    55  H    0.152489
    56  H    0.175916
    57  N   -0.776295
    58  H    0.342517
    59  H    0.332196
    60  H    0.459991
    61  O   -0.498860
    62  H    0.431997
 Sum of Mulliken charges =   1.00000

 Dipole moment (field-independent basis, Debye):
    X=             -0.0418    Y=             -9.3990    Z=              3.5532  Tot=             10.0483
 Quadrupole moment (field-independent basis, Debye-Ang):
   XX=           -122.4836   YY=           -115.3131   ZZ=           -140.5505
   XY=             28.7281   XZ=            -38.9395   YZ=            -38.9244

 Normal termination of Gaussian 16 at Tue May 24 03:30:38 2022.
