 Gaussian 16, Revision C.01,
 Gaussian 16:  ES64L-G16RevC.01  3-Jul-2019

 -------------------------------------------------------------------
 # B3LYP/6-31G* guess=read geom=check nosymm integral(ultrafinegrid)
 -------------------------------------------------------------------

 ------------------------------------------------------
 Candidate Structure: Conf:102 Charge calc in gas phase
 ------------------------------------------------------
 Structure from the checkpoint file:  "conf-102.chk"
 Charge =  1 Multiplicity = 1

                          Input orientation:
 ---------------------------------------------------------------------
 Center     Atomic      Atomic             Coordinates (Angstroms)
 Number     Number       Type             X           Y           Z
 ---------------------------------------------------------------------
      1          7           0       -0.155208   -3.701216    2.963273
      2          1           0        0.862241   -3.636549    2.985562
      3          1           0       -0.479754   -4.080409    3.850968
      4          1           0       -0.394106   -4.356721    2.219810
      5          6           0       -0.748169   -2.382056    2.680249
      6          1           0       -0.432606   -1.675799    3.457912
      7          6           0       -0.207336   -1.884843    1.334788
      8          6           0       -2.271439   -2.429341    2.677050
      9          1           0       -2.606949   -3.164160    1.943171
     10          1           0       -2.660759   -1.461718    2.359269
     11          8           0        0.472908   -2.606201    0.622551
     12          6           0       -2.888766   -2.758097    4.033000
     13          1           0       -2.571009   -2.037467    4.786886
     14          1           0       -2.631607   -3.771063    4.356095
     15          6           0       -4.407408   -2.660802    3.809301
     16          8           0       -4.954541   -3.699383    3.395501
     17          8           0       -4.922667   -1.550441    4.034401
     18          7           0       -0.569981   -0.612884    1.015878
     19          1           0       -1.039915   -0.079157    1.726252
     20          6           0       -0.120063    0.131967   -0.160157
     21          1           0       -0.824902    0.963725   -0.253424
     22          6           0        1.276824    0.710988    0.085003
     23          6           0       -0.156341   -0.689911   -1.449973
     24          1           0        0.634561   -1.432938   -1.432409
     25          1           0       -1.103966   -1.225254   -1.460217
     26          8           0        2.301407    0.056482   -0.076271
     27          6           0       -0.044795    0.177024   -2.681919
     28          6           0       -1.180936    0.614761   -3.360090
     29          1           0       -2.160289    0.305620   -3.019578
     30          6           0        1.203760    0.584062   -3.158551
     31          1           0        2.099072    0.261216   -2.640027
     32          6           0       -1.088201    1.444501   -4.481796
     33          1           0       -1.985762    1.771547   -4.994793
     34          6           0        1.315534    1.416502   -4.277966
     35          1           0        2.292539    1.722032   -4.632978
     36          8           0        0.281385    2.634985   -6.137041
     37          1           0        1.069556    3.218585   -6.049738
     38          6           0        0.164961    1.834273   -4.931522
     39          7           0        1.314302    1.994440    0.503115
     40          1           0        0.527447    2.496196    0.899077
     41          6           0        2.557083    2.580406    0.922064
     42          1           0        3.129116    1.847576    1.510656
     43          6           0        2.156457    3.776448    1.832948
     44          6           0        3.415823    3.035890   -0.259390
     45          1           0        3.397381    2.227393   -0.994504
     46          1           0        2.951930    3.907352   -0.731597
     47          8           0        3.073281    4.466273    2.295118
     48          6           0        4.858229    3.331954    0.129223
     49          1           0        5.291376    2.418924    0.552687
     50          1           0        4.896758    4.086932    0.916415
     51          6           0        5.686691    3.767186   -1.063995
     52          1           0        5.619751    3.012443   -1.852005
     53          1           0        5.274930    4.693973   -1.472745
     54          6           0        7.142831    3.985372   -0.716257
     55          1           0        7.212989    4.736975    0.073570
     56          1           0        7.556423    3.057250   -0.314542
     57          7           0        7.945690    4.418920   -1.886820
     58          1           0        8.926957    4.569336   -1.650240
     59          1           0        7.585491    5.290981   -2.272779
     60          1           0        7.912478    3.721775   -2.629894
     61          8           0        0.929009    3.906277    2.025408
     62          1           0       -0.482086    3.255171   -6.179863
 ---------------------------------------------------------------------

 SCF Done:  E(RB3LYP) =  -1525.91805515     A.U. after    3 cycles

 Alpha  occ. eigenvalues --  -19.49873 -19.22437 -19.17629 -19.08266 -19.07625
 Alpha  occ. eigenvalues --  -19.05556 -19.05364 -14.65313 -14.58472 -14.46498
 Alpha  occ. eigenvalues --  -14.39843 -10.42706 -10.40398 -10.39791 -10.35841
 Alpha  occ. eigenvalues --  -10.35308 -10.35194 -10.34517 -10.33182 -10.33107
 Alpha  occ. eigenvalues --  -10.33001 -10.32878 -10.32531 -10.28814 -10.26851
 Alpha  occ. eigenvalues --  -10.26590 -10.26412 -10.24980 -10.24864 -10.24115
 Alpha  occ. eigenvalues --  -10.20931  -1.36843  -1.20154  -1.15792  -1.12749
 Alpha  occ. eigenvalues --   -1.09941  -1.03045  -1.02693  -1.01408  -0.99437
 Alpha  occ. eigenvalues --   -0.96950  -0.94629  -0.93241  -0.93068  -0.90434
 Alpha  occ. eigenvalues --   -0.90420  -0.89910  -0.86612  -0.86024  -0.84792
 Alpha  occ. eigenvalues --   -0.81731  -0.80337  -0.79161  -0.78366  -0.77695
 Alpha  occ. eigenvalues --   -0.75347  -0.75120  -0.72424  -0.71981  -0.71498
 Alpha  occ. eigenvalues --   -0.71208  -0.68837  -0.68146  -0.67715  -0.67627
 Alpha  occ. eigenvalues --   -0.66114  -0.64128  -0.62545  -0.61723  -0.61530
 Alpha  occ. eigenvalues --   -0.61264  -0.59641  -0.59157  -0.57769  -0.57176
 Alpha  occ. eigenvalues --   -0.56441  -0.54661  -0.54424  -0.53778  -0.53161
 Alpha  occ. eigenvalues --   -0.51875  -0.51461  -0.51261  -0.50883  -0.49734
 Alpha  occ. eigenvalues --   -0.49430  -0.48795  -0.48436  -0.48002  -0.47465
 Alpha  occ. eigenvalues --   -0.47196  -0.45640  -0.45378  -0.44806  -0.43280
 Alpha  occ. eigenvalues --   -0.42943  -0.42654  -0.41400  -0.41174  -0.40373
 Alpha  occ. eigenvalues --   -0.39734  -0.39336  -0.39143  -0.38377  -0.36922
 Alpha  occ. eigenvalues --   -0.36620  -0.36202  -0.35377  -0.33990  -0.31167
 Alpha  occ. eigenvalues --   -0.30989  -0.23812  -0.23624  -0.22154  -0.21068
 Alpha  occ. eigenvalues --   -0.20484  -0.19046
 Alpha virt. eigenvalues --   -0.18195  -0.15354  -0.15257  -0.14797  -0.10645
 Alpha virt. eigenvalues --   -0.09006  -0.08823  -0.08481  -0.07868  -0.07568
 Alpha virt. eigenvalues --   -0.04709  -0.04399  -0.02457  -0.01825  -0.01257

 Mulliken charges:
               1
     1  N   -0.698683
     2  H    0.417873
     3  H    0.417812
     4  H    0.420854
     5  C   -0.158261
     6  H    0.214775
     7  C    0.649512
     8  C   -0.293391
     9  H    0.173156
    10  H    0.191570
    11  O   -0.523766
    12  C   -0.345264
    13  H    0.139602
    14  H    0.103923
    15  C    0.549482
    16  O   -0.571225
    17  O   -0.561367
    18  N   -0.618708
    19  H    0.362222
    20  C   -0.037956
    21  H    0.166978
    22  C    0.616267
    23  C   -0.372499
    24  H    0.225769
    25  H    0.169110
    26  O   -0.556325
    27  C    0.166714
    28  C   -0.177146
    29  H    0.189207
    30  C   -0.167082
    31  H    0.208142
    32  C   -0.143322
    33  H    0.178387
    34  C   -0.148354
    35  H    0.154502
    36  O   -0.572766
    37  H    0.449778
    38  C    0.228997
    39  N   -0.609228
    40  H    0.344924
    41  C   -0.051214
    42  H    0.145672
    43  C    0.563853
    44  C   -0.253243
    45  H    0.115787
    46  H    0.128229
    47  O   -0.590604
    48  C   -0.271379
    49  H    0.142320
    50  H    0.214039
    51  C   -0.287317
    52  H    0.135237
    53  H    0.155119
    54  C   -0.232030
    55  H    0.241946
    56  H    0.228400
    57  N   -0.712660
    58  H    0.431899
    59  H    0.425819
    60  H    0.421443
    61  O   -0.597101
    62  H    0.461572
 Sum of Mulliken charges =   1.00000

 Dipole moment (field-independent basis, Debye):
    X=             39.1210    Y=             13.4174    Z=            -33.5055  Tot=             53.2268
 Quadrupole moment (field-independent basis, Debye-Ang):
   XX=            -16.5085   YY=           -110.0099   ZZ=            -76.3357
   XY=             79.9728   XZ=            -14.9021   YZ=           -133.8223

 Normal termination of Gaussian 16 at Tue May 24 03:30:37 2022.
