 Gaussian 16, Revision C.01,
 Gaussian 16:  ES64L-G16RevC.01  3-Jul-2019

 -------------------------------------------------------------------
 # B3LYP/6-31G* guess=read geom=check nosymm integral(ultrafinegrid)
 -------------------------------------------------------------------

 ------------------------------------------------------
 Candidate Structure: Conf:446 Charge calc in gas phase
 ------------------------------------------------------
 Structure from the checkpoint file:  "conf-446.chk"
 Charge =  1 Multiplicity = 1

                          Input orientation:
 ---------------------------------------------------------------------
 Center     Atomic      Atomic             Coordinates (Angstroms)
 Number     Number       Type             X           Y           Z
 ---------------------------------------------------------------------
      1          7           0       -0.525270   -4.091630    2.774965
      2          1           0        0.468259   -4.225254    2.589107
      3          1           0       -0.729987   -4.417442    3.717816
      4          1           0       -1.030758   -4.674978    2.108915
      5          6           0       -0.892432   -2.676653    2.588704
      6          1           0       -0.304114   -2.060706    3.282741
      7          6           0       -0.522115   -2.262396    1.160948
      8          6           0       -2.368004   -2.423226    2.874121
      9          1           0       -2.974729   -3.052736    2.221019
     10          1           0       -2.605810   -1.387681    2.630584
     11          8           0       -0.095285   -3.078066    0.360092
     12          6           0       -2.773708   -2.667727    4.323816
     13          1           0       -2.185087   -2.047143    4.999750
     14          1           0       -2.665803   -3.721047    4.598046
     15          6           0       -4.257892   -2.269250    4.391195
     16          8           0       -5.066706   -3.167823    4.095074
     17          8           0       -4.492388   -1.087281    4.702682
     18          7           0       -0.751070   -0.947383    0.877202
     19          1           0       -0.910509   -0.360593    1.677606
     20          6           0       -0.156440   -0.256075   -0.259821
     21          1           0       -0.695186    0.694246   -0.345496
     22          6           0        1.327192    0.055115    0.010682
     23          6           0       -0.340849   -1.004448   -1.585329
     24          1           0        0.285176   -1.890474   -1.597126
     25          1           0       -1.378210   -1.335498   -1.614527
     26          8           0        2.030170   -0.595766    0.759338
     27          6           0       -0.032054   -0.136140   -2.775409
     28          6           0       -0.919601    0.850097   -3.188215
     29          1           0       -1.841087    0.986857   -2.632179
     30          6           0        1.162250   -0.283828   -3.475017
     31          1           0        1.893668   -1.005297   -3.128177
     32          6           0       -0.641398    1.669756   -4.285057
     33          1           0       -1.348709    2.430262   -4.592879
     34          6           0        1.462188    0.524617   -4.575699
     35          1           0        2.402867    0.401588   -5.101572
     36          8           0        0.826083    2.286471   -6.159438
     37          1           0        1.801828    2.407378   -6.213158
     38          6           0        0.550107    1.491355   -4.976631
     39          7           0        1.796602    1.121539   -0.704222
     40          1           0        1.151760    1.723743   -1.187607
     41          6           0        3.153151    1.583338   -0.597847
     42          1           0        3.759509    0.791803   -0.162069
     43          6           0        3.178970    2.846687    0.332687
     44          6           0        3.695396    2.061042   -1.928235
     45          1           0        3.638832    1.244069   -2.657012
     46          1           0        3.041450    2.869175   -2.278653
     47          8           0        3.755875    2.692473    1.419200
     48          6           0        5.122711    2.568824   -1.767902
     49          1           0        5.772513    1.726767   -1.507656
     50          1           0        5.141255    3.258676   -0.918167
     51          6           0        5.641043    3.246236   -3.024116
     52          1           0        5.503519    2.577690   -3.879080
     53          1           0        5.039776    4.140248   -3.221148
     54          6           0        7.106536    3.634337   -2.955132
     55          1           0        7.711887    2.732013   -2.838095
     56          1           0        7.411176    4.105201   -3.891300
     57          7           0        7.389129    4.553723   -1.822344
     58          1           0        8.293362    5.016450   -1.915133
     59          1           0        7.391460    4.051268   -0.936082
     60          1           0        6.667204    5.269095   -1.758098
     61          8           0        2.586314    3.841480   -0.119005
     62          1           0        0.469809    3.191578   -6.006455
 ---------------------------------------------------------------------

 SCF Done:  E(RB3LYP) =  -1525.90318009     A.U. after    3 cycles

 Alpha  occ. eigenvalues --  -19.50112 -19.22674 -19.18430 -19.08651 -19.07890
 Alpha  occ. eigenvalues --  -19.05971 -19.05797 -14.64584 -14.58361 -14.46235
 Alpha  occ. eigenvalues --  -14.42616 -10.43219 -10.41323 -10.39904 -10.35837
 Alpha  occ. eigenvalues --  -10.35787 -10.35709 -10.35614 -10.33825 -10.33778
 Alpha  occ. eigenvalues --  -10.33759 -10.33704 -10.33657 -10.29901 -10.29693
 Alpha  occ. eigenvalues --  -10.26791 -10.26676 -10.26567 -10.25675 -10.24428
 Alpha  occ. eigenvalues --  -10.21036  -1.37150  -1.19592  -1.15891  -1.12767
 Alpha  occ. eigenvalues --   -1.10812  -1.03182  -1.02932  -1.02066  -0.99797
 Alpha  occ. eigenvalues --   -0.98806  -0.95505  -0.93936  -0.93688  -0.91033
 Alpha  occ. eigenvalues --   -0.90795  -0.90017  -0.88216  -0.86814  -0.85182
 Alpha  occ. eigenvalues --   -0.82257  -0.81160  -0.79283  -0.77845  -0.77245
 Alpha  occ. eigenvalues --   -0.76001  -0.75796  -0.73846  -0.72265  -0.71790
 Alpha  occ. eigenvalues --   -0.71428  -0.69617  -0.68536  -0.67674  -0.67398
 Alpha  occ. eigenvalues --   -0.67191  -0.65736  -0.63987  -0.62192  -0.61932
 Alpha  occ. eigenvalues --   -0.61247  -0.59729  -0.59455  -0.58456  -0.57915
 Alpha  occ. eigenvalues --   -0.57441  -0.56727  -0.56507  -0.55256  -0.53145
 Alpha  occ. eigenvalues --   -0.52717  -0.52379  -0.52061  -0.51073  -0.50832
 Alpha  occ. eigenvalues --   -0.50643  -0.49855  -0.48781  -0.48619  -0.48156
 Alpha  occ. eigenvalues --   -0.47808  -0.46618  -0.45942  -0.45387  -0.45161
 Alpha  occ. eigenvalues --   -0.44689  -0.43345  -0.43095  -0.41269  -0.41101
 Alpha  occ. eigenvalues --   -0.40340  -0.39838  -0.39537  -0.38618  -0.38006
 Alpha  occ. eigenvalues --   -0.37033  -0.36179  -0.35701  -0.34236  -0.32817
 Alpha  occ. eigenvalues --   -0.32014  -0.24467  -0.23418  -0.21929  -0.21428
 Alpha  occ. eigenvalues --   -0.20790  -0.19359
 Alpha virt. eigenvalues --   -0.18533  -0.15904  -0.15467  -0.14162  -0.10992
 Alpha virt. eigenvalues --   -0.08611  -0.08220  -0.08099  -0.07827  -0.07662
 Alpha virt. eigenvalues --   -0.05131  -0.04941  -0.02432  -0.02074  -0.01820

 Mulliken charges:
               1
     1  N   -0.700620
     2  H    0.421037
     3  H    0.418771
     4  H    0.420184
     5  C   -0.165040
     6  H    0.222814
     7  C    0.658104
     8  C   -0.293455
     9  H    0.173719
    10  H    0.193882
    11  O   -0.530835
    12  C   -0.346444
    13  H    0.139585
    14  H    0.104400
    15  C    0.552630
    16  O   -0.565596
    17  O   -0.557827
    18  N   -0.595995
    19  H    0.361519
    20  C   -0.077482
    21  H    0.168863
    22  C    0.610382
    23  C   -0.363799
    24  H    0.213400
    25  H    0.189160
    26  O   -0.506542
    27  C    0.175529
    28  C   -0.185329
    29  H    0.190481
    30  C   -0.155335
    31  H    0.189460
    32  C   -0.141412
    33  H    0.182100
    34  C   -0.145561
    35  H    0.163737
    36  O   -0.564448
    37  H    0.440059
    38  C    0.224721
    39  N   -0.600608
    40  H    0.315774
    41  C   -0.019995
    42  H    0.160090
    43  C    0.530824
    44  C   -0.271073
    45  H    0.089231
    46  H    0.131361
    47  O   -0.584054
    48  C   -0.290531
    49  H    0.148766
    50  H    0.175246
    51  C   -0.292840
    52  H    0.167717
    53  H    0.164121
    54  C   -0.220307
    55  H    0.226960
    56  H    0.216519
    57  N   -0.714457
    58  H    0.431253
    59  H    0.446864
    60  H    0.436398
    61  O   -0.619499
    62  H    0.453424
 Sum of Mulliken charges =   1.00000

 Dipole moment (field-independent basis, Debye):
    X=             34.9014    Y=             11.4334    Z=            -34.5537  Tot=             50.4261
 Quadrupole moment (field-independent basis, Debye-Ang):
   XX=            -54.4098   YY=            -76.4324   ZZ=            -87.2584
   XY=             84.2523   XZ=            -29.2149   YZ=           -106.6128

 Normal termination of Gaussian 16 at Tue May 24 03:30:55 2022.
