 Gaussian 16, Revision C.01,
 Gaussian 16:  ES64L-G16RevC.01  3-Jul-2019

 -------------------------------------------------------------------
 # B3LYP/6-31G* guess=read geom=check nosymm integral(ultrafinegrid)
 -------------------------------------------------------------------

 ------------------------------------------------------
 Candidate Structure: Conf:472 Charge calc in gas phase
 ------------------------------------------------------
 Structure from the checkpoint file:  "conf-472.chk"
 Charge =  1 Multiplicity = 1

                          Input orientation:
 ---------------------------------------------------------------------
 Center     Atomic      Atomic             Coordinates (Angstroms)
 Number     Number       Type             X           Y           Z
 ---------------------------------------------------------------------
      1          7           0        0.608418   -1.106217    2.806946
      2          1           0        1.811831    0.094657    2.186068
      3          1           0        0.424683   -1.248012    3.798820
      4          1           0        0.977900   -1.979495    2.427526
      5          6           0       -0.634307   -0.779635    2.082367
      6          1           0       -0.966191    0.207732    2.427580
      7          6           0       -0.267865   -0.712429    0.593116
      8          6           0       -1.805011   -1.780569    2.187078
      9          1           0       -1.439479   -2.787232    1.959546
     10          1           0       -2.502406   -1.527289    1.380715
     11          8           0        0.542934   -1.493611    0.105948
     12          6           0       -2.609545   -1.794992    3.510210
     13          1           0       -2.755658   -0.784225    3.901640
     14          1           0       -2.121170   -2.409882    4.273217
     15          6           0       -3.974069   -2.353509    3.154959
     16          8           0       -4.971938   -1.675864    2.990082
     17          8           0       -3.920374   -3.671463    2.893924
     18          7           0       -0.889533    0.259873   -0.134135
     19          1           0       -1.679698    0.731958    0.284361
     20          6           0       -0.749179    0.333696   -1.593603
     21          1           0       -1.214660    1.285170   -1.876566
     22          6           0        0.761325    0.437818   -1.943513
     23          6           0       -1.428807   -0.828940   -2.378298
     24          1           0       -1.700318   -0.439519   -3.367072
     25          1           0       -0.679734   -1.603268   -2.553204
     26          8           0        1.253563   -0.124762   -2.905072
     27          6           0       -2.628368   -1.434956   -1.674932
     28          6           0       -2.648738   -2.806274   -1.383899
     29          1           0       -1.823913   -3.431050   -1.716464
     30          6           0       -3.718595   -0.666198   -1.238944
     31          1           0       -3.767275    0.394715   -1.479814
     32          6           0       -3.681250   -3.386507   -0.647651
     33          1           0       -3.670375   -4.445543   -0.409441
     34          6           0       -4.749920   -1.224979   -0.482578
     35          1           0       -5.572410   -0.605796   -0.133400
     36          8           0       -5.667022   -3.172958    0.646321
     37          1           0       -6.053680   -2.482511    1.216793
     38          6           0       -4.716094   -2.586789   -0.159059
     39          7           0        1.489830    1.239509   -1.081669
     40          1           0        0.982597    1.521369   -0.250311
     41          6           0        2.871074    0.873474   -0.791544
     42          1           0        3.130867    0.059404   -1.475091
     43          6           0        2.999359    0.294868    0.632032
     44          6           0        3.858679    2.036226   -1.029232
     45          1           0        3.703561    2.387186   -2.056250
     46          1           0        3.622351    2.876069   -0.363185
     47          8           0        3.885719   -0.475848    0.942334
     48          6           0        5.318972    1.603097   -0.829164
     49          1           0        5.465037    0.672584   -1.400766
     50          1           0        5.480587    1.343056    0.224436
     51          6           0        6.338273    2.663582   -1.270703
     52          1           0        6.294704    2.822571   -2.356705
     53          1           0        6.102395    3.632160   -0.812847
     54          6           0        7.766832    2.335757   -0.846507
     55          1           0        8.507332    3.029786   -1.250245
     56          1           0        7.871506    2.289425    0.240312
     57          7           0        8.172351    0.945206   -1.347887
     58          1           0        9.123054    0.690913   -1.055640
     59          1           0        8.134131    0.893375   -2.373375
     60          1           0        7.525394    0.233099   -0.984151
     61          8           0        2.059141    0.761533    1.463640
     62          1           0       -4.734500   -3.901455    2.394772
 ---------------------------------------------------------------------

 SCF Done:  E(RB3LYP) =  -1526.19370198     A.U. after    1 cycles

 Alpha  occ. eigenvalues --  -19.25516 -19.25418 -19.24049 -19.21465 -19.20615
 Alpha  occ. eigenvalues --  -19.20367 -19.19308 -14.64815 -14.44969 -14.42723
 Alpha  occ. eigenvalues --  -14.42673 -10.42184 -10.39654 -10.38873 -10.37282
 Alpha  occ. eigenvalues --  -10.36401 -10.34687 -10.32146 -10.31984 -10.31808
 Alpha  occ. eigenvalues --  -10.31749 -10.31129 -10.29802 -10.27585 -10.27407
 Alpha  occ. eigenvalues --  -10.25799 -10.25732 -10.25547 -10.25456 -10.25205
 Alpha  occ. eigenvalues --  -10.24862  -1.18783  -1.16875  -1.16811  -1.12580
 Alpha  occ. eigenvalues --   -1.11703  -1.10974  -1.08546  -1.07803  -1.01621
 Alpha  occ. eigenvalues --   -0.99695  -0.98705  -0.95814  -0.91678  -0.89560
 Alpha  occ. eigenvalues --   -0.87517  -0.85460  -0.83441  -0.81115  -0.81070
 Alpha  occ. eigenvalues --   -0.78770  -0.77889  -0.77244  -0.75866  -0.72993
 Alpha  occ. eigenvalues --   -0.72285  -0.70494  -0.68617  -0.68164  -0.67256
 Alpha  occ. eigenvalues --   -0.66717  -0.66618  -0.65474  -0.63990  -0.62126
 Alpha  occ. eigenvalues --   -0.62095  -0.60624  -0.60415  -0.58794  -0.58047
 Alpha  occ. eigenvalues --   -0.57516  -0.56950  -0.56144  -0.55275  -0.54909
 Alpha  occ. eigenvalues --   -0.54270  -0.54047  -0.53820  -0.53396  -0.52901
 Alpha  occ. eigenvalues --   -0.52571  -0.51754  -0.50868  -0.50719  -0.50279
 Alpha  occ. eigenvalues --   -0.49823  -0.49206  -0.48486  -0.48473  -0.48134
 Alpha  occ. eigenvalues --   -0.47857  -0.47513  -0.47221  -0.46919  -0.45878
 Alpha  occ. eigenvalues --   -0.45718  -0.44890  -0.44696  -0.43982  -0.43550
 Alpha  occ. eigenvalues --   -0.43258  -0.42913  -0.42186  -0.41392  -0.39850
 Alpha  occ. eigenvalues --   -0.38773  -0.38675  -0.38122  -0.36585  -0.35905
 Alpha  occ. eigenvalues --   -0.35169  -0.34314  -0.33435  -0.32451  -0.32268
 Alpha  occ. eigenvalues --   -0.31480  -0.28437
 Alpha virt. eigenvalues --   -0.15100  -0.08592  -0.08185  -0.08094  -0.06979
 Alpha virt. eigenvalues --   -0.06694  -0.06297  -0.05936  -0.05134  -0.04885
 Alpha virt. eigenvalues --   -0.03206  -0.01917  -0.01255  -0.01083  -0.00059

 Mulliken charges:
               1
     1  N   -0.769133
     2  H    0.454594
     3  H    0.331165
     4  H    0.347301
     5  C   -0.066814
     6  H    0.152513
     7  C    0.641326
     8  C   -0.305726
     9  H    0.183107
    10  H    0.186168
    11  O   -0.532588
    12  C   -0.328527
    13  H    0.170647
    14  H    0.172757
    15  C    0.573295
    16  O   -0.482705
    17  O   -0.566908
    18  N   -0.627791
    19  H    0.340470
    20  C   -0.051898
    21  H    0.173389
    22  C    0.613045
    23  C   -0.361512
    24  H    0.170185
    25  H    0.195360
    26  O   -0.499711
    27  C    0.175108
    28  C   -0.196956
    29  H    0.146731
    30  C   -0.216038
    31  H    0.123932
    32  C   -0.155786
    33  H    0.149456
    34  C   -0.177991
    35  H    0.145191
    36  O   -0.677393
    37  H    0.429657
    38  C    0.343628
    39  N   -0.599979
    40  H    0.350512
    41  C   -0.055217
    42  H    0.200008
    43  C    0.609704
    44  C   -0.270609
    45  H    0.173121
    46  H    0.161566
    47  O   -0.486789
    48  C   -0.308278
    49  H    0.131896
    50  H    0.178851
    51  C   -0.289870
    52  H    0.177289
    53  H    0.206583
    54  C   -0.209744
    55  H    0.227851
    56  H    0.231295
    57  N   -0.733699
    58  H    0.431264
    59  H    0.426988
    60  H    0.438256
    61  O   -0.624551
    62  H    0.432000
 Sum of Mulliken charges =   1.00000

 Dipole moment (field-independent basis, Debye):
    X=             28.9614    Y=              6.8280    Z=             -1.4708  Tot=             29.7917
 Quadrupole moment (field-independent basis, Debye-Ang):
   XX=             98.7659   YY=           -162.4358   ZZ=           -165.8958
   XY=             46.0360   XZ=            -46.1471   YZ=            -15.2450

 Normal termination of Gaussian 16 at Tue May 24 03:30:32 2022.
