 Gaussian 16, Revision C.01,
 Gaussian 16:  ES64L-G16RevC.01  3-Jul-2019

 -------------------------------------------------------------------
 # B3LYP/6-31G* guess=read geom=check nosymm integral(ultrafinegrid)
 -------------------------------------------------------------------

 ------------------------------------------------------
 Candidate Structure: Conf:549 Charge calc in gas phase
 ------------------------------------------------------
 Structure from the checkpoint file:  "conf-549.chk"
 Charge =  1 Multiplicity = 1

                          Input orientation:
 ---------------------------------------------------------------------
 Center     Atomic      Atomic             Coordinates (Angstroms)
 Number     Number       Type             X           Y           Z
 ---------------------------------------------------------------------
      1          7           0        1.393007   -1.124730    3.052323
      2          1           0        2.113875   -0.424413    2.860340
      3          1           0        0.552971   -0.742234    4.669132
      4          1           0        1.782570   -2.018101    2.748923
      5          6           0        0.193233   -0.833367    2.258098
      6          1           0       -0.180684    0.139648    2.599298
      7          6           0        0.511157   -0.764108    0.758645
      8          6           0       -0.898580   -1.901378    2.499264
      9          1           0       -0.628946   -2.809780    1.945991
     10          1           0       -1.840652   -1.535701    2.072292
     11          8           0        1.263699   -1.560994    0.212024
     12          6           0       -1.117944   -2.276986    3.982115
     13          1           0       -0.262433   -2.858298    4.342731
     14          1           0       -2.008128   -2.905546    4.059178
     15          6           0       -1.328405   -1.068443    4.897196
     16          8           0       -0.210389   -0.373761    5.191369
     17          8           0       -2.411637   -0.735408    5.318483
     18          7           0       -0.080868    0.258694    0.054985
     19          1           0       -0.725206    0.878481    0.527113
     20          6           0        0.198357    0.465419   -1.363915
     21          1           0       -0.339778    1.377930   -1.646128
     22          6           0        1.713265    0.739910   -1.605280
     23          6           0       -0.303078   -0.720387   -2.244636
     24          1           0        0.513280   -1.439300   -2.343222
     25          1           0       -1.106869   -1.215068   -1.692698
     26          8           0        2.265706    0.400014   -2.648624
     27          6           0       -0.822187   -0.338521   -3.615764
     28          6           0       -2.192069   -0.462795   -3.903720
     29          1           0       -2.875959   -0.816463   -3.137930
     30          6           0        0.045281    0.112275   -4.627949
     31          1           0        1.101015    0.214391   -4.395167
     32          6           0       -2.706968   -0.157141   -5.166643
     33          1           0       -3.765539   -0.264039   -5.385024
     34          6           0       -0.430594    0.429288   -5.901928
     35          1           0        0.229491    0.772613   -6.691163
     36          8           0       -2.278354    0.609929   -7.494249
     37          1           0       -2.945875    1.329599   -7.514945
     38          6           0       -1.786901    0.274276   -6.100852
     39          7           0        2.322445    1.432136   -0.614411
     40          1           0        1.831549    1.502758    0.270463
     41          6           0        3.770388    1.494435   -0.460244
     42          1           0        4.233947    0.897296   -1.247922
     43          6           0        4.123152    0.935553    0.912840
     44          6           0        4.276545    2.967877   -0.535567
     45          1           0        4.022986    3.322481   -1.540294
     46          1           0        3.666534    3.561415    0.158557
     47          8           0        5.376469    0.536878    0.998966
     48          6           0        5.787952    3.192021   -0.256088
     49          1           0        6.202374    3.794154   -1.072912
     50          1           0        6.319878    2.237869   -0.288019
     51          6           0        6.131633    3.950916    1.047576
     52          1           0        7.218262    4.119701    1.065208
     53          1           0        5.682693    4.951956    0.990638
     54          6           0        5.709744    3.381534    2.412764
     55          1           0        5.912917    4.153372    3.167631
     56          1           0        4.633484    3.184995    2.443106
     57          7           0        6.388377    2.108921    2.784267
     58          1           0        6.203188    1.900138    3.765107
     59          1           0        7.400315    2.210701    2.697097
     60          1           0        5.804591    0.939219    1.865677
     61          8           0        3.327793    0.995236    1.847041
     62          1           0       -2.613730   -0.168324   -7.990543
 ---------------------------------------------------------------------

 SCF Done:  E(RB3LYP) =  -1526.12830740     A.U. after    1 cycles

 Alpha  occ. eigenvalues --  -19.49430 -19.23152 -19.21124 -19.21060 -19.20558
 Alpha  occ. eigenvalues --  -19.20553 -19.16174 -14.46109 -14.43887 -14.42976
 Alpha  occ. eigenvalues --  -14.40171 -10.43064 -10.38720 -10.37810 -10.37328
 Alpha  occ. eigenvalues --  -10.36046 -10.35269 -10.34861 -10.34353 -10.33975
 Alpha  occ. eigenvalues --  -10.33915 -10.32611 -10.30876 -10.30650 -10.29767
 Alpha  occ. eigenvalues --  -10.29529 -10.27000 -10.26757 -10.26417 -10.25587
 Alpha  occ. eigenvalues --  -10.25220  -1.35144  -1.15847  -1.12962  -1.12120
 Alpha  occ. eigenvalues --   -1.11954  -1.07466  -1.04129  -1.02525  -1.01920
 Alpha  occ. eigenvalues --   -1.00321  -0.98236  -0.97141  -0.92913  -0.90563
 Alpha  occ. eigenvalues --   -0.87754  -0.86565  -0.85069  -0.85042  -0.83139
 Alpha  occ. eigenvalues --   -0.80891  -0.77666  -0.77266  -0.76639  -0.74238
 Alpha  occ. eigenvalues --   -0.71189  -0.71072  -0.70003  -0.67849  -0.66999
 Alpha  occ. eigenvalues --   -0.65936  -0.65776  -0.64414  -0.63382  -0.62773
 Alpha  occ. eigenvalues --   -0.61309  -0.60726  -0.59679  -0.58922  -0.58790
 Alpha  occ. eigenvalues --   -0.58108  -0.57878  -0.57094  -0.56612  -0.55362
 Alpha  occ. eigenvalues --   -0.54695  -0.54491  -0.53652  -0.52931  -0.52709
 Alpha  occ. eigenvalues --   -0.52319  -0.51891  -0.50921  -0.50486  -0.49999
 Alpha  occ. eigenvalues --   -0.49730  -0.49498  -0.49431  -0.49176  -0.48246
 Alpha  occ. eigenvalues --   -0.47071  -0.46910  -0.46642  -0.46360  -0.45892
 Alpha  occ. eigenvalues --   -0.45068  -0.44372  -0.43943  -0.43203  -0.42196
 Alpha  occ. eigenvalues --   -0.41481  -0.41215  -0.40874  -0.40492  -0.40398
 Alpha  occ. eigenvalues --   -0.39926  -0.39623  -0.37228  -0.36769  -0.35413
 Alpha  occ. eigenvalues --   -0.35109  -0.34929  -0.33845  -0.33423  -0.33181
 Alpha  occ. eigenvalues --   -0.32512  -0.29788
 Alpha virt. eigenvalues --   -0.18640  -0.16195  -0.15286  -0.09638  -0.09045
 Alpha virt. eigenvalues --   -0.07439  -0.07079  -0.06323  -0.02700  -0.01933
 Alpha virt. eigenvalues --   -0.00998  -0.00321   0.00325   0.01476   0.01836

 Mulliken charges:
               1
     1  N   -0.776287
     2  H    0.368078
     3  H    0.445542
     4  H    0.329542
     5  C   -0.083184
     6  H    0.160295
     7  C    0.614267
     8  C   -0.281523
     9  H    0.165836
    10  H    0.151392
    11  O   -0.517784
    12  C   -0.363100
    13  H    0.167082
    14  H    0.179650
    15  C    0.576821
    16  O   -0.596090
    17  O   -0.452769
    18  N   -0.643948
    19  H    0.342063
    20  C   -0.037321
    21  H    0.170141
    22  C    0.634120
    23  C   -0.355977
    24  H    0.226628
    25  H    0.165079
    26  O   -0.531408
    27  C    0.164623
    28  C   -0.199870
    29  H    0.180852
    30  C   -0.192825
    31  H    0.242400
    32  C   -0.133348
    33  H    0.179157
    34  C   -0.110440
    35  H    0.198225
    36  O   -0.631268
    37  H    0.509948
    38  C    0.189342
    39  N   -0.589713
    40  H    0.345040
    41  C   -0.055565
    42  H    0.201488
    43  C    0.613958
    44  C   -0.275361
    45  H    0.162700
    46  H    0.145544
    47  O   -0.594584
    48  C   -0.282344
    49  H    0.150794
    50  H    0.176388
    51  C   -0.280284
    52  H    0.144855
    53  H    0.154585
    54  C   -0.157540
    55  H    0.157514
    56  H    0.176077
    57  N   -0.779686
    58  H    0.345142
    59  H    0.335874
    60  H    0.461384
    61  O   -0.521841
    62  H    0.511628
 Sum of Mulliken charges =   1.00000

 Dipole moment (field-independent basis, Debye):
    X=             -2.3364    Y=              6.0855    Z=            -27.1910  Tot=             27.9614
 Quadrupole moment (field-independent basis, Debye-Ang):
   XX=           -100.0148   YY=           -157.6877   ZZ=             -4.8014
   XY=             26.4765   XZ=            117.8275   YZ=            -10.6224

 Normal termination of Gaussian 16 at Tue May 24 03:30:30 2022.
