 Gaussian 16, Revision C.01,
 Gaussian 16:  ES64L-G16RevC.01  3-Jul-2019

 -------------------------------------------------------------------
 # B3LYP/6-31G* guess=read geom=check nosymm integral(ultrafinegrid)
 -------------------------------------------------------------------

 ------------------------------------------------------
 Candidate Structure: Conf:123 Charge calc in gas phase
 ------------------------------------------------------
 Structure from the checkpoint file:  "conf-123.chk"
 Charge =  1 Multiplicity = 1

                          Input orientation:
 ---------------------------------------------------------------------
 Center     Atomic      Atomic             Coordinates (Angstroms)
 Number     Number       Type             X           Y           Z
 ---------------------------------------------------------------------
      1          7           0        0.433107   -1.302485    3.080159
      2          1           0        1.634769   -0.056558    2.443804
      3          1           0        0.243812   -1.431635    4.072590
      4          1           0        0.833129   -2.170966    2.721417
      5          6           0       -0.808277   -1.021321    2.338315
      6          1           0       -1.161715   -0.031000    2.653127
      7          6           0       -0.440510   -0.987726    0.847928
      8          6           0       -1.963585   -2.038539    2.465539
      9          1           0       -1.579814   -3.045514    2.272197
     10          1           0       -2.660777   -1.821809    1.648397
     11          8           0        0.366404   -1.778861    0.372055
     12          6           0       -2.773942   -2.023997    3.785449
     13          1           0       -2.933721   -1.004111    4.146708
     14          1           0       -2.280760   -2.609998    4.567793
     15          6           0       -4.129823   -2.609267    3.442941
     16          8           0       -4.058739   -3.932453    3.216127
     17          8           0       -5.137113   -1.949396    3.259816
     18          7           0       -1.066455   -0.030485    0.100919
     19          1           0       -1.851474    0.453320    0.515272
     20          6           0       -0.939106    0.012251   -1.359520
     21          1           0       -1.421383    0.950828   -1.658457
     22          6           0        0.563097    0.127748   -1.739183
     23          6           0       -1.614509   -1.173506   -2.115329
     24          1           0       -1.890496   -0.808864   -3.112311
     25          1           0       -0.862250   -1.948159   -2.274051
     26          8           0        1.024446   -0.394600   -2.742164
     27          6           0       -2.807729   -1.772156   -1.395279
     28          6           0       -2.821035   -3.139578   -1.085796
     29          1           0       -1.994539   -3.765317   -1.412307
     30          6           0       -3.898409   -1.001695   -0.963967
     31          1           0       -3.951723    0.056205   -1.217133
     32          6           0       -3.847656   -3.713835   -0.337093
     33          1           0       -3.830721   -4.769240   -0.083670
     34          6           0       -4.924207   -1.554495   -0.195879
     35          1           0       -5.746899   -0.934046    0.150289
     36          8           0       -5.829032   -3.490514    0.962182
     37          1           0       -6.198902   -2.796782    1.540640
     38          6           0       -4.883813   -2.911927    0.145317
     39          7           0        1.322323    0.884976   -0.870724
     40          1           0        0.831499    1.160951   -0.026911
     41          6           0        2.692025    0.454480   -0.577979
     42          1           0        2.867913   -0.470414   -1.136920
     43          6           0        2.837739    0.055388    0.904300
     44          6           0        3.764517    1.472708   -1.002364
     45          1           0        3.585189    2.433399   -0.501423
     46          1           0        4.737091    1.098382   -0.659500
     47          8           0        3.743144   -0.644756    1.293199
     48          6           0        3.768840    1.659780   -2.524270
     49          1           0        2.793618    2.046341   -2.842802
     50          1           0        3.882365    0.681366   -3.007944
     51          6           0        4.888037    2.601235   -3.000933
     52          1           0        4.762329    3.593728   -2.545404
     53          1           0        5.861977    2.211330   -2.672213
     54          6           0        4.868792    2.721314   -4.518206
     55          1           0        5.021790    1.759830   -5.014220
     56          1           0        3.945721    3.170184   -4.892684
     57          7           0        6.004789    3.628577   -5.010064
     58          1           0        6.013035    3.722682   -6.033183
     59          1           0        6.918848    3.257421   -4.722655
     60          1           0        5.921746    4.570973   -4.609331
     61          8           0        1.859652    0.560413    1.678285
     62          1           0       -4.870597   -4.187624    2.727289
 ---------------------------------------------------------------------

 SCF Done:  E(RB3LYP) =  -1526.19079662     A.U. after    1 cycles

 Alpha  occ. eigenvalues --  -19.25368 -19.24395 -19.23829 -19.20465 -19.20063
 Alpha  occ. eigenvalues --  -19.20006 -19.19486 -14.65497 -14.44728 -14.42363
 Alpha  occ. eigenvalues --  -14.41885 -10.42271 -10.38700 -10.38389 -10.36970
 Alpha  occ. eigenvalues --  -10.36466 -10.34676 -10.31871 -10.31256 -10.31197
 Alpha  occ. eigenvalues --  -10.31021 -10.30461 -10.28667 -10.27266 -10.27008
 Alpha  occ. eigenvalues --  -10.25774 -10.25705 -10.25668 -10.25378 -10.25140
 Alpha  occ. eigenvalues --  -10.24768  -1.19327  -1.16667  -1.15686  -1.12277
 Alpha  occ. eigenvalues --   -1.11514  -1.10959  -1.07642  -1.07389  -1.01392
 Alpha  occ. eigenvalues --   -0.99333  -0.98022  -0.95701  -0.91620  -0.88630
 Alpha  occ. eigenvalues --   -0.87124  -0.85308  -0.83061  -0.81008  -0.80908
 Alpha  occ. eigenvalues --   -0.78834  -0.78116  -0.77936  -0.75297  -0.72893
 Alpha  occ. eigenvalues --   -0.70932  -0.69955  -0.68442  -0.67651  -0.67034
 Alpha  occ. eigenvalues --   -0.66528  -0.66288  -0.65303  -0.63701  -0.63151
 Alpha  occ. eigenvalues --   -0.61618  -0.60418  -0.59937  -0.58484  -0.57066
 Alpha  occ. eigenvalues --   -0.56732  -0.56520  -0.55859  -0.54718  -0.53990
 Alpha  occ. eigenvalues --   -0.53800  -0.53676  -0.53410  -0.52747  -0.52612
 Alpha  occ. eigenvalues --   -0.52137  -0.51618  -0.50871  -0.50175  -0.49919
 Alpha  occ. eigenvalues --   -0.49473  -0.48899  -0.48337  -0.48133  -0.47644
 Alpha  occ. eigenvalues --   -0.47363  -0.47133  -0.46757  -0.46059  -0.45592
 Alpha  occ. eigenvalues --   -0.44957  -0.44316  -0.44101  -0.43496  -0.43258
 Alpha  occ. eigenvalues --   -0.42692  -0.42627  -0.41840  -0.41337  -0.39794
 Alpha  occ. eigenvalues --   -0.38609  -0.37963  -0.37630  -0.35608  -0.35489
 Alpha  occ. eigenvalues --   -0.34694  -0.34083  -0.33090  -0.32486  -0.31785
 Alpha  occ. eigenvalues --   -0.31395  -0.28368
 Alpha virt. eigenvalues --   -0.15890  -0.09181  -0.09140  -0.07567  -0.06846
 Alpha virt. eigenvalues --   -0.06638  -0.06458  -0.05890  -0.05070  -0.04500
 Alpha virt. eigenvalues --   -0.03143  -0.01788  -0.01000  -0.00656   0.00299

 Mulliken charges:
               1
     1  N   -0.765671
     2  H    0.454177
     3  H    0.330550
     4  H    0.347631
     5  C   -0.065383
     6  H    0.150175
     7  C    0.640452
     8  C   -0.305884
     9  H    0.183763
    10  H    0.184209
    11  O   -0.530970
    12  C   -0.328380
    13  H    0.170536
    14  H    0.174636
    15  C    0.573654
    16  O   -0.565093
    17  O   -0.484981
    18  N   -0.627782
    19  H    0.339502
    20  C   -0.048671
    21  H    0.167421
    22  C    0.609220
    23  C   -0.358876
    24  H    0.164919
    25  H    0.193994
    26  O   -0.516008
    27  C    0.176189
    28  C   -0.196845
    29  H    0.147290
    30  C   -0.215235
    31  H    0.120316
    32  C   -0.155717
    33  H    0.150217
    34  C   -0.177138
    35  H    0.144642
    36  O   -0.678424
    37  H    0.429914
    38  C    0.343591
    39  N   -0.606293
    40  H    0.357676
    41  C   -0.060926
    42  H    0.205365
    43  C    0.599889
    44  C   -0.268960
    45  H    0.149298
    46  H    0.167897
    47  O   -0.456937
    48  C   -0.270677
    49  H    0.176302
    50  H    0.173755
    51  C   -0.293707
    52  H    0.167186
    53  H    0.168714
    54  C   -0.206688
    55  H    0.234294
    56  H    0.231498
    57  N   -0.732185
    58  H    0.432061
    59  H    0.428312
    60  H    0.427326
    61  O   -0.630115
    62  H    0.430978
 Sum of Mulliken charges =   1.00000

 Dipole moment (field-independent basis, Debye):
    X=             19.8765    Y=             16.0919    Z=            -16.9202  Tot=             30.6646
 Quadrupole moment (field-independent basis, Debye-Ang):
   XX=            -33.3382   YY=           -118.1678   ZZ=            -65.6278
   XY=             94.6382   XZ=           -130.4413   YZ=            -85.8367

 Normal termination of Gaussian 16 at Tue May 24 03:30:16 2022.
