 Gaussian 16, Revision C.01,
 Gaussian 16:  ES64L-G16RevC.01  3-Jul-2019

 -------------------------------------------------------------------
 # B3LYP/6-31G* guess=read geom=check nosymm integral(ultrafinegrid)
 -------------------------------------------------------------------

 ------------------------------------------------------
 Candidate Structure: Conf:234 Charge calc in gas phase
 ------------------------------------------------------
 Structure from the checkpoint file:  "conf-234.chk"
 Charge =  1 Multiplicity = 1

                          Input orientation:
 ---------------------------------------------------------------------
 Center     Atomic      Atomic             Coordinates (Angstroms)
 Number     Number       Type             X           Y           Z
 ---------------------------------------------------------------------
      1          7           0       -2.773979   -1.894826    3.065901
      2          1           0       -3.201954   -1.250183    2.353850
      3          1           0       -3.058893   -2.877303    2.953614
      4          1           0       -3.046873   -1.566497    3.997697
      5          6           0       -1.293096   -1.757645    2.803171
      6          1           0       -1.082005   -2.521331    2.049744
      7          6           0       -1.165882   -0.435812    2.007470
      8          6           0       -0.450156   -2.031486    4.049103
      9          1           0       -0.623211   -1.268077    4.817340
     10          1           0        0.603528   -1.957917    3.761343
     11          8           0       -2.204406    0.040429    1.532264
     12          6           0       -0.693457   -3.442768    4.656149
     13          1           0       -1.664654   -3.490180    5.161142
     14          1           0        0.080190   -3.646088    5.399419
     15          6           0       -0.626933   -4.517808    3.585212
     16          8           0       -1.825719   -4.668424    2.952598
     17          8           0        0.368778   -5.118044    3.255384
     18          7           0        0.072607   -0.010261    1.760695
     19          1           0        0.885816   -0.476208    2.166238
     20          6           0        0.452127    0.734953    0.562533
     21          1           0       -0.063117    1.699089    0.548394
     22          6           0        1.975032    0.942680    0.716809
     23          6           0        0.109064   -0.046196   -0.771338
     24          1           0       -0.825097    0.358857   -1.168941
     25          1           0        0.890616    0.189530   -1.503142
     26          8           0        2.627961    0.170051    1.428611
     27          6           0       -0.042934   -1.545517   -0.592406
     28          6           0        1.007645   -2.349083   -0.121601
     29          1           0        1.991159   -1.917051    0.038780
     30          6           0       -1.290407   -2.154370   -0.795182
     31          1           0       -2.115591   -1.562940   -1.183103
     32          6           0        0.800903   -3.686692    0.218535
     33          1           0        1.617989   -4.278684    0.623054
     34          6           0       -1.511246   -3.496065   -0.478076
     35          1           0       -2.481006   -3.958799   -0.636506
     36          8           0       -0.770577   -5.526111    0.506961
     37          1           0       -1.664161   -5.227399    2.147506
     38          6           0       -0.471002   -4.249801    0.070864
     39          7           0        2.499314    1.958831    0.019284
     40          1           0        1.916198    2.603440   -0.508457
     41          6           0        3.915684    2.314798    0.031551
     42          1           0        4.315948    2.146482    1.033770
     43          6           0        4.011876    3.794523   -0.322000
     44          6           0        4.729678    1.471356   -1.002328
     45          1           0        4.868702    0.480982   -0.556332
     46          1           0        4.097469    1.333793   -1.888747
     47          8           0        5.121201    4.339259    0.141467
     48          6           0        6.092578    2.063312   -1.431800
     49          1           0        6.749736    1.233132   -1.714219
     50          1           0        6.564819    2.546677   -0.571407
     51          6           0        6.004750    3.052630   -2.630556
     52          1           0        6.232888    2.501561   -3.550227
     53          1           0        4.975375    3.410661   -2.757918
     54          6           0        6.934431    4.282758   -2.568326
     55          1           0        7.837509    4.051193   -1.993448
     56          1           0        7.260402    4.552250   -3.581609
     57          7           0        6.277485    5.447597   -1.913239
     58          1           0        6.950755    6.200965   -1.776327
     59          1           0        5.511515    4.997104   -0.566015
     60          1           0        5.548865    5.818938   -2.523820
     61          8           0        3.183652    4.335228   -1.040814
     62          1           0        0.030340   -5.930937    0.886088
 ---------------------------------------------------------------------

 SCF Done:  E(RB3LYP) =  -1526.21999340     A.U. after    1 cycles

 Alpha  occ. eigenvalues --  -19.32079 -19.30017 -19.26748 -19.26411 -19.23259
 Alpha  occ. eigenvalues --  -19.22281 -19.20636 -14.59664 -14.48802 -14.45991
 Alpha  occ. eigenvalues --  -14.42693 -10.44948 -10.43386 -10.40208 -10.39365
 Alpha  occ. eigenvalues --  -10.38518 -10.36198 -10.35487 -10.35270 -10.33978
 Alpha  occ. eigenvalues --  -10.31585 -10.30388 -10.30201 -10.29972 -10.29957
 Alpha  occ. eigenvalues --  -10.29768 -10.29754 -10.29584 -10.27028 -10.26062
 Alpha  occ. eigenvalues --  -10.25808  -1.22780  -1.18828  -1.17372  -1.15751
 Alpha  occ. eigenvalues --   -1.14292  -1.14056  -1.13547  -1.07426  -1.05854
 Alpha  occ. eigenvalues --   -1.02378  -0.98018  -0.96347  -0.95454  -0.90301
 Alpha  occ. eigenvalues --   -0.87889  -0.87553  -0.85672  -0.84669  -0.82411
 Alpha  occ. eigenvalues --   -0.79956  -0.77959  -0.77085  -0.74470  -0.73401
 Alpha  occ. eigenvalues --   -0.73041  -0.72018  -0.70843  -0.70428  -0.69689
 Alpha  occ. eigenvalues --   -0.68667  -0.67294  -0.66293  -0.65317  -0.65178
 Alpha  occ. eigenvalues --   -0.64210  -0.61714  -0.60905  -0.60587  -0.60399
 Alpha  occ. eigenvalues --   -0.58625  -0.58537  -0.58208  -0.57920  -0.57560
 Alpha  occ. eigenvalues --   -0.56821  -0.56238  -0.55818  -0.54900  -0.54297
 Alpha  occ. eigenvalues --   -0.54179  -0.53673  -0.53359  -0.53103  -0.52896
 Alpha  occ. eigenvalues --   -0.52552  -0.51761  -0.51334  -0.50657  -0.50550
 Alpha  occ. eigenvalues --   -0.50461  -0.50010  -0.49666  -0.48910  -0.48635
 Alpha  occ. eigenvalues --   -0.47765  -0.47598  -0.46186  -0.45317  -0.44751
 Alpha  occ. eigenvalues --   -0.44163  -0.44114  -0.43760  -0.43520  -0.41334
 Alpha  occ. eigenvalues --   -0.40883  -0.40807  -0.40648  -0.40078  -0.39094
 Alpha  occ. eigenvalues --   -0.37183  -0.36399  -0.36066  -0.35470  -0.34824
 Alpha  occ. eigenvalues --   -0.33747  -0.33372
 Alpha virt. eigenvalues --   -0.13271  -0.12176  -0.11063  -0.10460  -0.09988
 Alpha virt. eigenvalues --   -0.07977  -0.06235  -0.04733  -0.03496  -0.02957
 Alpha virt. eigenvalues --   -0.01927  -0.01227  -0.00640  -0.00438  -0.00114

 Mulliken charges:
               1
     1  N   -0.754925
     2  H    0.429394
     3  H    0.428022
     4  H    0.406771
     5  C   -0.138524
     6  H    0.249892
     7  C    0.661175
     8  C   -0.318562
     9  H    0.190656
    10  H    0.214001
    11  O   -0.544628
    12  C   -0.352346
    13  H    0.171906
    14  H    0.223004
    15  C    0.583618
    16  O   -0.621239
    17  O   -0.441769
    18  N   -0.615695
    19  H    0.376607
    20  C   -0.035094
    21  H    0.198074
    22  C    0.626346
    23  C   -0.379450
    24  H    0.183459
    25  H    0.187027
    26  O   -0.550362
    27  C    0.145087
    28  C   -0.206262
    29  H    0.177399
    30  C   -0.194795
    31  H    0.158020
    32  C   -0.190386
    33  H    0.165502
    34  C   -0.183312
    35  H    0.159984
    36  O   -0.665630
    37  H    0.454598
    38  C    0.327490
    39  N   -0.617368
    40  H    0.357418
    41  C   -0.016795
    42  H    0.195168
    43  C    0.581055
    44  C   -0.282091
    45  H    0.167162
    46  H    0.147063
    47  O   -0.599804
    48  C   -0.283497
    49  H    0.151670
    50  H    0.172818
    51  C   -0.292925
    52  H    0.156463
    53  H    0.159945
    54  C   -0.145815
    55  H    0.169033
    56  H    0.156093
    57  N   -0.780496
    58  H    0.339969
    59  H    0.462121
    60  H    0.343138
    61  O   -0.502993
    62  H    0.437618
 Sum of Mulliken charges =   1.00000

 Dipole moment (field-independent basis, Debye):
    X=              0.4490    Y=             -4.1669    Z=              7.3776  Tot=              8.4849
 Quadrupole moment (field-independent basis, Debye-Ang):
   XX=           -103.1921   YY=           -128.1610   ZZ=           -125.0117
   XY=             54.9101   XZ=            -51.7149   YZ=            -42.5145

 Normal termination of Gaussian 16 at Tue May 24 03:30:32 2022.
