 Gaussian 16, Revision C.01,
 Gaussian 16:  ES64L-G16RevC.01  3-Jul-2019

 -------------------------------------------------------------------
 # B3LYP/6-31G* guess=read geom=check nosymm integral(ultrafinegrid)
 -------------------------------------------------------------------

 ------------------------------------------------------
 Candidate Structure: Conf:222 Charge calc in gas phase
 ------------------------------------------------------
 Structure from the checkpoint file:  "conf-222.chk"
 Charge =  1 Multiplicity = 1

                          Input orientation:
 ---------------------------------------------------------------------
 Center     Atomic      Atomic             Coordinates (Angstroms)
 Number     Number       Type             X           Y           Z
 ---------------------------------------------------------------------
      1          7           0        0.278175   -1.257298    2.578353
      2          1           0        1.102537    0.142581    2.995945
      3          1           0       -0.312810   -1.686717    3.289048
      4          1           0        1.039347   -1.906000    2.368986
      5          6           0       -0.493429   -1.010734    1.338430
      6          1           0       -1.225560   -0.230629    1.558031
      7          6           0        0.518357   -0.470643    0.308503
      8          6           0       -1.231563   -2.275599    0.846929
      9          1           0       -1.944546   -2.572893    1.626343
     10          1           0       -0.500699   -3.088824    0.758778
     11          8           0        1.656361   -0.934529    0.239452
     12          6           0       -1.964839   -2.172290   -0.506812
     13          1           0       -2.450929   -3.124792   -0.730074
     14          1           0       -1.239991   -1.986044   -1.309070
     15          6           0       -2.987382   -1.059506   -0.607529
     16          8           0       -2.779936    0.119777   -0.366255
     17          8           0       -4.181376   -1.500727   -1.028541
     18          7           0        0.102986    0.589402   -0.439745
     19          1           0       -0.901455    0.761276   -0.486750
     20          6           0        0.984093    1.226000   -1.425301
     21          1           0        0.524641    2.200262   -1.636597
     22          6           0        2.348519    1.525027   -0.769043
     23          6           0        1.133113    0.458479   -2.755111
     24          1           0        1.901486    0.974070   -3.342295
     25          1           0        1.526900   -0.538866   -2.537830
     26          8           0        3.412739    1.340230   -1.387347
     27          6           0       -0.160100    0.369097   -3.540281
     28          6           0       -0.805073    1.525591   -4.010951
     29          1           0       -0.373743    2.505301   -3.812083
     30          6           0       -0.735441   -0.866211   -3.855223
     31          1           0       -0.240849   -1.783784   -3.543155
     32          6           0       -1.982653    1.458703   -4.745434
     33          1           0       -2.472192    2.356159   -5.109852
     34          6           0       -1.917746   -0.954227   -4.595167
     35          1           0       -2.337685   -1.928710   -4.836776
     36          8           0       -3.702095    0.209344   -5.766299
     37          1           0       -4.767129   -0.723562   -1.113193
     38          6           0       -2.549246    0.211458   -5.040426
     39          7           0        2.292548    2.055019    0.474229
     40          1           0        1.372477    2.046712    0.906739
     41          6           0        3.369140    1.831274    1.440851
     42          1           0        4.133355    1.252975    0.923342
     43          6           0        2.862806    0.871469    2.535587
     44          6           0        4.006121    3.118917    2.028374
     45          1           0        3.762267    3.963204    1.372908
     46          1           0        3.542366    3.347588    2.993321
     47          8           0        3.595655    0.071222    3.072206
     48          6           0        5.534876    2.972171    2.202137
     49          1           0        5.774753    1.912145    2.358925
     50          1           0        5.856793    3.469870    3.122681
     51          6           0        6.392863    3.576304    1.065307
     52          1           0        6.379824    4.669622    1.161009
     53          1           0        7.441268    3.280738    1.204533
     54          6           0        5.985583    3.320687   -0.387737
     55          1           0        4.981609    3.692052   -0.603748
     56          1           0        6.683425    3.821216   -1.061694
     57          7           0        5.959924    1.847745   -0.787831
     58          1           0        6.473340    1.681638   -1.657876
     59          1           0        4.940667    1.547597   -0.957443
     60          1           0        6.376116    1.246595   -0.070421
     61          8           0        1.559381    1.037935    2.772480
     62          1           0       -3.989040   -0.703569   -5.924664
 ---------------------------------------------------------------------

 SCF Done:  E(RB3LYP) =  -1526.22877132     A.U. after    1 cycles

 Alpha  occ. eigenvalues --  -19.29540 -19.25844 -19.25527 -19.25223 -19.24306
 Alpha  occ. eigenvalues --  -19.22381 -19.22226 -14.57741 -14.47213 -14.46324
 Alpha  occ. eigenvalues --  -14.44504 -10.42473 -10.41675 -10.40550 -10.39190
 Alpha  occ. eigenvalues --  -10.38298 -10.34620 -10.34512 -10.33192 -10.32713
 Alpha  occ. eigenvalues --  -10.32500 -10.30558 -10.30291 -10.30074 -10.30045
 Alpha  occ. eigenvalues --  -10.28135 -10.27396 -10.27286 -10.27126 -10.26871
 Alpha  occ. eigenvalues --  -10.26312  -1.20663  -1.17711  -1.16463  -1.14136
 Alpha  occ. eigenvalues --   -1.13363  -1.12298  -1.11469  -1.09402  -1.04747
 Alpha  occ. eigenvalues --   -1.02424  -1.00532  -0.93391  -0.93167  -0.89933
 Alpha  occ. eigenvalues --   -0.89046  -0.87558  -0.83617  -0.82687  -0.82096
 Alpha  occ. eigenvalues --   -0.80622  -0.77399  -0.75772  -0.74064  -0.72050
 Alpha  occ. eigenvalues --   -0.71790  -0.70794  -0.70064  -0.69950  -0.69343
 Alpha  occ. eigenvalues --   -0.68766  -0.67893  -0.66357  -0.64009  -0.62661
 Alpha  occ. eigenvalues --   -0.62343  -0.62248  -0.61410  -0.59917  -0.59574
 Alpha  occ. eigenvalues --   -0.58516  -0.58204  -0.58033  -0.57173  -0.56699
 Alpha  occ. eigenvalues --   -0.55811  -0.55388  -0.55180  -0.54618  -0.54131
 Alpha  occ. eigenvalues --   -0.53831  -0.53024  -0.52386  -0.52231  -0.52053
 Alpha  occ. eigenvalues --   -0.51409  -0.51129  -0.50813  -0.50292  -0.49944
 Alpha  occ. eigenvalues --   -0.49751  -0.48533  -0.48310  -0.48172  -0.47525
 Alpha  occ. eigenvalues --   -0.47304  -0.46698  -0.46106  -0.45910  -0.45563
 Alpha  occ. eigenvalues --   -0.44921  -0.44890  -0.44360  -0.43417  -0.41763
 Alpha  occ. eigenvalues --   -0.41463  -0.40776  -0.40147  -0.39374  -0.38938
 Alpha  occ. eigenvalues --   -0.37977  -0.37473  -0.36001  -0.35768  -0.34506
 Alpha  occ. eigenvalues --   -0.33137  -0.29546
 Alpha virt. eigenvalues --   -0.11003  -0.10159  -0.09618  -0.09075  -0.08281
 Alpha virt. eigenvalues --   -0.07165  -0.06830  -0.05723  -0.02751  -0.02034
 Alpha virt. eigenvalues --   -0.01527  -0.01134  -0.00210   0.00199   0.00325

 Mulliken charges:
               1
     1  N   -0.780531
     2  H    0.467264
     3  H    0.339115
     4  H    0.354338
     5  C   -0.061752
     6  H    0.185372
     7  C    0.611820
     8  C   -0.282659
     9  H    0.166443
    10  H    0.171916
    11  O   -0.539795
    12  C   -0.381506
    13  H    0.195989
    14  H    0.195606
    15  C    0.610120
    16  O   -0.486271
    17  O   -0.541154
    18  N   -0.644230
    19  H    0.393007
    20  C   -0.059400
    21  H    0.186410
    22  C    0.653426
    23  C   -0.350156
    24  H    0.172430
    25  H    0.177747
    26  O   -0.586156
    27  C    0.168702
    28  C   -0.194263
    29  H    0.127243
    30  C   -0.214952
    31  H    0.135414
    32  C   -0.151928
    33  H    0.157367
    34  C   -0.194916
    35  H    0.134552
    36  O   -0.631388
    37  H    0.425961
    38  C    0.351099
    39  N   -0.580249
    40  H    0.370655
    41  C   -0.058136
    42  H    0.142425
    43  C    0.608317
    44  C   -0.288388
    45  H    0.160846
    46  H    0.188886
    47  O   -0.457529
    48  C   -0.292558
    49  H    0.166362
    50  H    0.185058
    51  C   -0.308304
    52  H    0.193018
    53  H    0.172746
    54  C   -0.182902
    55  H    0.213078
    56  H    0.209669
    57  N   -0.784358
    58  H    0.409098
    59  H    0.459133
    60  H    0.405935
    61  O   -0.628356
    62  H    0.415271
 Sum of Mulliken charges =   1.00000

 Dipole moment (field-independent basis, Debye):
    X=             12.8643    Y=              5.3272    Z=             -2.9210  Tot=             14.2269
 Quadrupole moment (field-independent basis, Debye-Ang):
   XX=            -44.2202   YY=           -140.1335   ZZ=           -164.1136
   XY=             63.1094   XZ=             -5.3444   YZ=              2.9179

 Normal termination of Gaussian 16 at Tue May 24 03:30:33 2022.
