 Gaussian 16, Revision C.01,
 Gaussian 16:  ES64L-G16RevC.01  3-Jul-2019

 -------------------------------------------------------------------
 # B3LYP/6-31G* guess=read geom=check nosymm integral(ultrafinegrid)
 -------------------------------------------------------------------

 ------------------------------------------------------
 Candidate Structure: Conf:879 Charge calc in gas phase
 ------------------------------------------------------
 Structure from the checkpoint file:  "conf-879.chk"
 Charge =  1 Multiplicity = 1

                          Input orientation:
 ---------------------------------------------------------------------
 Center     Atomic      Atomic             Coordinates (Angstroms)
 Number     Number       Type             X           Y           Z
 ---------------------------------------------------------------------
      1          7           0        0.489955   -0.961477    2.765658
      2          1           0        1.376201   -0.824481    2.141427
      3          1           0        0.673980   -0.496856    3.687022
      4          1           0        0.316751   -1.966092    2.848474
      5          6           0       -0.685863   -0.254223    2.169634
      6          1           0       -0.365660    0.787176    2.090256
      7          6           0       -0.890811   -0.801986    0.746327
      8          6           0       -1.943445   -0.318713    3.053740
      9          1           0       -2.341810   -1.340712    3.057295
     10          1           0       -2.700738    0.310572    2.571797
     11          8           0       -0.529641   -1.936470    0.465039
     12          6           0       -1.723368    0.172438    4.508876
     13          1           0       -1.316207   -0.638531    5.121326
     14          1           0       -2.687630    0.465566    4.931142
     15          6           0       -0.746998    1.356049    4.556750
     16          8           0        0.498289    1.041477    4.586690
     17          8           0       -1.202429    2.523736    4.487940
     18          7           0       -1.441320    0.096416   -0.140829
     19          1           0       -1.651449    0.993342    0.284631
     20          6           0       -0.958576    0.293011   -1.523983
     21          1           0       -1.683073    0.951719   -2.011397
     22          6           0        0.376335    1.108958   -1.547603
     23          6           0       -0.876521   -1.025843   -2.336448
     24          1           0       -0.283339   -1.757475   -1.787092
     25          1           0       -1.888153   -1.437823   -2.424059
     26          8           0        0.525084    1.989828   -2.394105
     27          6           0       -0.279491   -0.787552   -3.704795
     28          6           0       -1.057199   -0.271156   -4.753015
     29          1           0       -2.114504   -0.077839   -4.598779
     30          6           0        1.082003   -1.042892   -3.927674
     31          1           0        1.692823   -1.445628   -3.125740
     32          6           0       -0.496892    0.019228   -5.997404
     33          1           0       -1.095560    0.434643   -6.802744
     34          6           0        1.681711   -0.770350   -5.158903
     35          1           0        2.734812   -0.954591   -5.339988
     36          8           0        1.526868    0.081342   -7.440155
     37          1           0        1.618521    1.046296   -7.600485
     38          6           0        0.853384   -0.244211   -6.126378
     39          7           0        1.248510    0.771601   -0.581839
     40          1           0        1.178861   -0.117208   -0.077191
     41          6           0        2.558477    1.346436   -0.283327
     42          1           0        3.174484    1.363280   -1.190205
     43          6           0        3.224292    0.377089    0.764443
     44          6           0        2.473488    2.787509    0.274704
     45          1           0        3.447455    3.262873    0.115323
     46          1           0        1.742476    3.346844   -0.322245
     47          8           0        4.344747    0.674952    1.166043
     48          6           0        2.143975    2.866408    1.776095
     49          1           0        3.013990    2.484330    2.323224
     50          1           0        1.310836    2.194235    2.018839
     51          6           0        1.803544    4.288084    2.251506
     52          1           0        2.449525    5.013107    1.738973
     53          1           0        0.773367    4.553523    1.979016
     54          6           0        2.023393    4.526906    3.745889
     55          1           0        3.074371    4.370397    4.007124
     56          1           0        1.750910    5.549444    4.022241
     57          7           0        1.222314    3.611166    4.624790
     58          1           0        1.364470    3.830714    5.614283
     59          1           0        1.403167    2.578312    4.518834
     60          1           0        0.170777    3.571932    4.467916
     61          8           0        2.486897   -0.629680    1.103249
     62          1           0        1.109249   -0.348418   -8.217816
 ---------------------------------------------------------------------

 SCF Done:  E(RB3LYP) =  -1526.11366764     A.U. after    1 cycles

 Alpha  occ. eigenvalues --  -19.49038 -19.22568 -19.18757 -19.18693 -19.18199
 Alpha  occ. eigenvalues --  -19.14895 -19.13004 -14.50232 -14.49118 -14.46114
 Alpha  occ. eigenvalues --  -14.41741 -10.42696 -10.39484 -10.36123 -10.36004
 Alpha  occ. eigenvalues --  -10.35648 -10.35069 -10.34267 -10.33751 -10.33623
 Alpha  occ. eigenvalues --  -10.33586 -10.33155 -10.32978 -10.32056 -10.29939
 Alpha  occ. eigenvalues --  -10.29480 -10.27691 -10.27575 -10.26717 -10.25432
 Alpha  occ. eigenvalues --  -10.24689  -1.34778  -1.14457  -1.11631  -1.10330
 Alpha  occ. eigenvalues --   -1.07292  -1.05526  -1.04966  -1.02880  -1.02238
 Alpha  occ. eigenvalues --   -1.01689  -0.99543  -0.97490  -0.93023  -0.90425
 Alpha  occ. eigenvalues --   -0.88843  -0.87955  -0.86363  -0.84681  -0.82990
 Alpha  occ. eigenvalues --   -0.81418  -0.79215  -0.77330  -0.76832  -0.74249
 Alpha  occ. eigenvalues --   -0.72052  -0.71102  -0.70644  -0.67599  -0.66782
 Alpha  occ. eigenvalues --   -0.66210  -0.65619  -0.64496  -0.63907  -0.63255
 Alpha  occ. eigenvalues --   -0.62623  -0.61856  -0.60559  -0.60259  -0.59841
 Alpha  occ. eigenvalues --   -0.59088  -0.57852  -0.57565  -0.57394  -0.56090
 Alpha  occ. eigenvalues --   -0.55701  -0.54761  -0.54062  -0.53403  -0.52921
 Alpha  occ. eigenvalues --   -0.52460  -0.52137  -0.51658  -0.51066  -0.50435
 Alpha  occ. eigenvalues --   -0.50224  -0.49872  -0.49499  -0.48910  -0.48591
 Alpha  occ. eigenvalues --   -0.48064  -0.47987  -0.47468  -0.46270  -0.45880
 Alpha  occ. eigenvalues --   -0.45060  -0.44540  -0.44203  -0.43793  -0.43223
 Alpha  occ. eigenvalues --   -0.43114  -0.42179  -0.40979  -0.40054  -0.39941
 Alpha  occ. eigenvalues --   -0.39750  -0.39506  -0.37597  -0.35388  -0.34039
 Alpha  occ. eigenvalues --   -0.33350  -0.32619  -0.32332  -0.31592  -0.29882
 Alpha  occ. eigenvalues --   -0.29653  -0.26918
 Alpha virt. eigenvalues --   -0.18155  -0.15773  -0.15071  -0.10056  -0.09197
 Alpha virt. eigenvalues --   -0.08634  -0.05087  -0.03887  -0.03433  -0.02548
 Alpha virt. eigenvalues --   -0.00984   0.00043   0.00272   0.00520   0.01271

 Mulliken charges:
               1
     1  N   -0.781712
     2  H    0.453217
     3  H    0.420614
     4  H    0.382177
     5  C   -0.129940
     6  H    0.205870
     7  C    0.601519
     8  C   -0.279166
     9  H    0.173594
    10  H    0.172890
    11  O   -0.498357
    12  C   -0.339591
    13  H    0.161182
    14  H    0.182778
    15  C    0.594006
    16  O   -0.634567
    17  O   -0.575931
    18  N   -0.580412
    19  H    0.339418
    20  C   -0.070818
    21  H    0.173791
    22  C    0.587780
    23  C   -0.382030
    24  H    0.219529
    25  H    0.180803
    26  O   -0.543028
    27  C    0.200862
    28  C   -0.174045
    29  H    0.181262
    30  C   -0.181994
    31  H    0.201621
    32  C   -0.129416
    33  H    0.179296
    34  C   -0.101184
    35  H    0.202000
    36  O   -0.631111
    37  H    0.514200
    38  C    0.192341
    39  N   -0.647814
    40  H    0.376207
    41  C   -0.057845
    42  H    0.154431
    43  C    0.588808
    44  C   -0.260417
    45  H    0.160457
    46  H    0.152184
    47  O   -0.526842
    48  C   -0.308353
    49  H    0.182639
    50  H    0.137412
    51  C   -0.277438
    52  H    0.170817
    53  H    0.155626
    54  C   -0.174261
    55  H    0.195332
    56  H    0.186293
    57  N   -0.769502
    58  H    0.382655
    59  H    0.423912
    60  H    0.411433
    61  O   -0.652983
    62  H    0.509797
 Sum of Mulliken charges =   1.00000

 Dipole moment (field-independent basis, Debye):
    X=             -1.1821    Y=              5.1748    Z=            -19.8931  Tot=             20.5891
 Quadrupole moment (field-independent basis, Debye-Ang):
   XX=           -191.1436   YY=           -150.0838   ZZ=             73.1843
   XY=             16.8587   XZ=            -21.9103   YZ=             22.7505

 Normal termination of Gaussian 16 at Tue May 24 03:30:25 2022.
