 Gaussian 16, Revision C.01,
 Gaussian 16:  ES64L-G16RevC.01  3-Jul-2019

 -------------------------------------------------------------------
 # B3LYP/6-31G* guess=read geom=check nosymm integral(ultrafinegrid)
 -------------------------------------------------------------------

 -----------------------------------------------------
 Candidate Structure: Conf:34 Charge calc in gas phase
 -----------------------------------------------------
 Structure from the checkpoint file:  "conf-34.chk"
 Charge =  1 Multiplicity = 1

                          Input orientation:
 ---------------------------------------------------------------------
 Center     Atomic      Atomic             Coordinates (Angstroms)
 Number     Number       Type             X           Y           Z
 ---------------------------------------------------------------------
      1          7           0        0.094362   -3.666623    3.189989
      2          1           0        0.952894   -3.269971    3.575093
      3          1           0       -0.372484   -4.227290    3.899548
      4          1           0        0.355921   -4.272752    2.408750
      5          6           0       -0.807071   -2.627341    2.652442
      6          1           0       -0.924185   -1.824237    3.386690
      7          6           0       -0.191416   -2.078160    1.369561
      8          6           0       -2.180145   -3.234888    2.356007
      9          1           0       -2.543850   -3.715912    3.270542
     10          1           0       -2.052402   -4.018894    1.604929
     11          8           0        0.440103   -2.805476    0.617115
     12          6           0       -3.253758   -2.265252    1.872228
     13          1           0       -2.996526   -1.840306    0.899228
     14          1           0       -3.422836   -1.466601    2.596976
     15          6           0       -4.520898   -3.132640    1.731589
     16          8           0       -5.263348   -3.178006    2.728667
     17          8           0       -4.645639   -3.719796    0.643135
     18          7           0       -0.451448   -0.766805    1.131063
     19          1           0       -0.979958   -0.262720    1.821036
     20          6           0       -0.097278   -0.028412   -0.076082
     21          1           0       -0.677582    0.896120   -0.010997
     22          6           0        1.381705    0.360959   -0.089233
     23          6           0       -0.450059   -0.744954   -1.378722
     24          1           0        0.061790   -1.700211   -1.421682
     25          1           0       -1.522727   -0.957179   -1.348015
     26          8           0        2.252959   -0.348570   -0.566581
     27          6           0       -0.080542    0.097026   -2.577206
     28          6           0       -0.677434    1.329489   -2.804698
     29          1           0       -1.427926    1.689601   -2.111764
     30          6           0        0.924281   -0.319827   -3.442192
     31          1           0        1.465695   -1.233638   -3.224102
     32          6           0       -0.336962    2.104992   -3.915140
     33          1           0       -0.826888    3.057097   -4.086786
     34          6           0        1.284540    0.442317   -4.558191
     35          1           0        2.092567    0.114663   -5.205392
     36          8           0        0.909367    2.392333   -6.007494
     37          1           0        1.849771    2.225892   -6.247378
     38          6           0        0.624524    1.638382   -4.799936
     39          7           0        1.648673    1.593488    0.411812
     40          1           0        1.080479    2.059862    1.112177
     41          6           0        2.985091    2.103285    0.439507
     42          1           0        3.708404    1.278696    0.483901
     43          6           0        3.082095    2.985732    1.721295
     44          6           0        3.323254    3.004035   -0.751569
     45          1           0        2.642285    3.860834   -0.770549
     46          1           0        4.325995    3.395599   -0.564260
     47          8           0        4.197140    3.418301    2.016415
     48          6           0        3.262126    2.268267   -2.080689
     49          1           0        2.233159    1.931236   -2.267786
     50          1           0        3.879084    1.367404   -2.019174
     51          6           0        3.741289    3.112978   -3.251273
     52          1           0        3.501697    2.594702   -4.187202
     53          1           0        3.204732    4.068714   -3.265754
     54          6           0        5.231908    3.386485   -3.209129
     55          1           0        5.476562    3.937252   -2.299022
     56          1           0        5.768815    2.435866   -3.166756
     57          7           0        5.698550    4.173645   -4.377682
     58          1           0        6.692265    4.396745   -4.319180
     59          1           0        5.189817    5.053454   -4.447153
     60          1           0        5.549741    3.664533   -5.247389
     61          8           0        1.991642    3.158720    2.312790
     62          1           0        0.865798    3.349667   -5.779311
 ---------------------------------------------------------------------

 SCF Done:  E(RB3LYP) =  -1525.88712351     A.U. after    3 cycles

 Alpha  occ. eigenvalues --  -19.50145 -19.23289 -19.18422 -19.08726 -19.07954
 Alpha  occ. eigenvalues --  -19.07854 -19.07812 -14.67165 -14.59767 -14.47548
 Alpha  occ. eigenvalues --  -14.40481 -10.43187 -10.42379 -10.40596 -10.36965
 Alpha  occ. eigenvalues --  -10.35762 -10.35744 -10.35712 -10.35268 -10.33700
 Alpha  occ. eigenvalues --  -10.33627 -10.33499 -10.33404 -10.29746 -10.29265
 Alpha  occ. eigenvalues --  -10.27872 -10.26782 -10.26184 -10.26048 -10.25415
 Alpha  occ. eigenvalues --  -10.22131  -1.37270  -1.22074  -1.16721  -1.13832
 Alpha  occ. eigenvalues --   -1.10861  -1.03997  -1.03080  -1.02059  -1.01640
 Alpha  occ. eigenvalues --   -0.97733  -0.96965  -0.93827  -0.93549  -0.92676
 Alpha  occ. eigenvalues --   -0.91012  -0.90818  -0.88131  -0.87046  -0.85341
 Alpha  occ. eigenvalues --   -0.82975  -0.81874  -0.80343  -0.80076  -0.79268
 Alpha  occ. eigenvalues --   -0.76429  -0.75690  -0.74377  -0.73429  -0.73240
 Alpha  occ. eigenvalues --   -0.71766  -0.70142  -0.69734  -0.68654  -0.67862
 Alpha  occ. eigenvalues --   -0.67359  -0.65586  -0.63976  -0.62603  -0.62318
 Alpha  occ. eigenvalues --   -0.61766  -0.60386  -0.59807  -0.58539  -0.58308
 Alpha  occ. eigenvalues --   -0.57780  -0.56930  -0.55764  -0.55313  -0.54727
 Alpha  occ. eigenvalues --   -0.53104  -0.52796  -0.52492  -0.52061  -0.50669
 Alpha  occ. eigenvalues --   -0.50339  -0.49608  -0.49358  -0.48842  -0.48630
 Alpha  occ. eigenvalues --   -0.47939  -0.46852  -0.46577  -0.45574  -0.45003
 Alpha  occ. eigenvalues --   -0.44441  -0.43698  -0.42586  -0.42282  -0.41115
 Alpha  occ. eigenvalues --   -0.40873  -0.40343  -0.39781  -0.38798  -0.37845
 Alpha  occ. eigenvalues --   -0.37365  -0.36971  -0.36928  -0.36187  -0.32021
 Alpha  occ. eigenvalues --   -0.31682  -0.24213  -0.23989  -0.23230  -0.22428
 Alpha  occ. eigenvalues --   -0.22380  -0.21001
 Alpha virt. eigenvalues --   -0.20083  -0.17237  -0.15911  -0.15461  -0.12388
 Alpha virt. eigenvalues --   -0.10687  -0.10408  -0.10286  -0.08659  -0.08145
 Alpha virt. eigenvalues --   -0.06385  -0.05463  -0.03822  -0.03288  -0.02724

 Mulliken charges:
               1
     1  N   -0.711448
     2  H    0.423920
     3  H    0.425042
     4  H    0.423309
     5  C   -0.158239
     6  H    0.203106
     7  C    0.658214
     8  C   -0.290359
     9  H    0.175697
    10  H    0.186599
    11  O   -0.514024
    12  C   -0.343054
    13  H    0.128892
    14  H    0.131256
    15  C    0.551567
    16  O   -0.540506
    17  O   -0.551735
    18  N   -0.608923
    19  H    0.356367
    20  C   -0.050955
    21  H    0.162929
    22  C    0.618310
    23  C   -0.376948
    24  H    0.223334
    25  H    0.196053
    26  O   -0.543585
    27  C    0.182360
    28  C   -0.169537
    29  H    0.187743
    30  C   -0.156992
    31  H    0.202829
    32  C   -0.152892
    33  H    0.174745
    34  C   -0.153831
    35  H    0.158766
    36  O   -0.553191
    37  H    0.395492
    38  C    0.229225
    39  N   -0.600545
    40  H    0.340701
    41  C   -0.066016
    42  H    0.155609
    43  C    0.570934
    44  C   -0.276362
    45  H    0.137338
    46  H    0.155690
    47  O   -0.585729
    48  C   -0.266433
    49  H    0.161269
    50  H    0.168231
    51  C   -0.279111
    52  H    0.072983
    53  H    0.147314
    54  C   -0.226968
    55  H    0.256297
    56  H    0.233907
    57  N   -0.711099
    58  H    0.438877
    59  H    0.424020
    60  H    0.409010
    61  O   -0.606345
    62  H    0.426890
 Sum of Mulliken charges =   1.00000

 Dipole moment (field-independent basis, Debye):
    X=             28.2502    Y=             14.0930    Z=            -31.9711  Tot=             44.9315
 Quadrupole moment (field-independent basis, Debye-Ang):
   XX=           -156.8335   YY=           -113.7525   ZZ=              1.6711
   XY=             14.1828   XZ=           -116.5583   YZ=           -168.4301

 Normal termination of Gaussian 16 at Tue May 24 03:30:45 2022.
