 Gaussian 16, Revision C.01,
 Gaussian 16:  ES64L-G16RevC.01  3-Jul-2019

 -------------------------------------------------------------------
 # B3LYP/6-31G* guess=read geom=check nosymm integral(ultrafinegrid)
 -------------------------------------------------------------------

 ------------------------------------------------------
 Candidate Structure: Conf:841 Charge calc in gas phase
 ------------------------------------------------------
 Structure from the checkpoint file:  "conf-841.chk"
 Charge =  1 Multiplicity = 1

                          Input orientation:
 ---------------------------------------------------------------------
 Center     Atomic      Atomic             Coordinates (Angstroms)
 Number     Number       Type             X           Y           Z
 ---------------------------------------------------------------------
      1          7           0       -0.486341   -4.199848    2.787480
      2          1           0        0.532309   -4.248935    2.780425
      3          1           0       -0.830362   -4.623583    3.647258
      4          1           0       -0.815394   -4.750459    1.994759
      5          6           0       -0.935062   -2.802850    2.645092
      6          1           0       -0.520436   -2.209639    3.468980
      7          6           0       -0.386042   -2.249412    1.327578
      8          6           0       -2.454134   -2.684450    2.693429
      9          1           0       -2.887570   -3.304155    1.906312
     10          1           0       -2.742844   -1.654471    2.480964
     11          8           0        0.157527   -2.980162    0.515770
     12          6           0       -3.070220   -3.073042    4.034133
     13          1           0       -2.653981   -2.468757    4.840444
     14          1           0       -2.922313   -4.134928    4.251370
     15          6           0       -4.572822   -2.786520    3.873784
     16          8           0       -5.244087   -3.712430    3.382606
     17          8           0       -4.953173   -1.653425    4.220893
     18          7           0       -0.573310   -0.913925    1.147986
     19          1           0       -0.984447   -0.397421    1.905738
     20          6           0       -0.115602   -0.142335   -0.002202
     21          1           0       -0.640403    0.813727    0.075636
     22          6           0        1.388363    0.144459    0.072172
     23          6           0       -0.454187   -0.771241   -1.351886
     24          1           0        0.022960   -1.740816   -1.433697
     25          1           0       -1.530970   -0.953376   -1.359955
     26          8           0        2.236512   -0.590860   -0.407312
     27          6           0       -0.033756    0.102112   -2.510603
     28          6           0        0.758942   -0.423446   -3.529066
     29          1           0        1.068033   -1.458401   -3.479034
     30          6           0       -0.392630    1.444452   -2.593445
     31          1           0       -0.996940    1.888373   -1.815937
     32          6           0        1.169514    0.351997   -4.619972
     33          1           0        1.783318   -0.084646   -5.398593
     34          6           0       -0.009007    2.232063   -3.683463
     35          1           0       -0.304507    3.275476   -3.722980
     36          8           0        1.249275    2.517776   -5.776119
     37          1           0        0.528824    3.154748   -5.987990
     38          6           0        0.782625    1.681776   -4.683391
     39          7           0        1.722472    1.303935    0.692341
     40          1           0        1.135789    1.834425    1.326071
     41          6           0        3.070190    1.789213    0.683425
     42          1           0        3.766662    1.013167    1.019883
     43          6           0        3.092793    2.978212    1.687638
     44          6           0        3.536239    2.307468   -0.679168
     45          1           0        4.579296    2.617070   -0.565555
     46          1           0        3.510245    1.483337   -1.390873
     47          8           0        4.149494    3.605506    1.797075
     48          6           0        2.692104    3.476455   -1.179516
     49          1           0        2.689530    4.256063   -0.417227
     50          1           0        1.650878    3.156472   -1.295046
     51          6           0        3.191749    4.009257   -2.513288
     52          1           0        4.281634    4.112089   -2.489700
     53          1           0        2.952774    3.276889   -3.291642
     54          6           0        2.597182    5.353800   -2.895844
     55          1           0        2.794547    5.568987   -3.948368
     56          1           0        1.511167    5.323970   -2.766918
     57          7           0        3.139686    6.464058   -2.066952
     58          1           0        2.728141    7.366095   -2.308527
     59          1           0        4.150546    6.542582   -2.178044
     60          1           0        2.963535    6.304729   -1.074389
     61          8           0        2.019818    3.166076    2.304956
     62          1           0        1.317628    1.945536   -6.575412
 ---------------------------------------------------------------------

 SCF Done:  E(RB3LYP) =  -1525.90564221     A.U. after    3 cycles

 Alpha  occ. eigenvalues --  -19.51272 -19.23416 -19.18180 -19.09265 -19.08485
 Alpha  occ. eigenvalues --  -19.07362 -19.07194 -14.65280 -14.59279 -14.47612
 Alpha  occ. eigenvalues --  -14.40426 -10.44181 -10.42423 -10.40766 -10.37036
 Alpha  occ. eigenvalues --  -10.36818 -10.36543 -10.35169 -10.34777 -10.34577
 Alpha  occ. eigenvalues --  -10.34343 -10.34042 -10.34028 -10.30008 -10.29201
 Alpha  occ. eigenvalues --  -10.27742 -10.27248 -10.25706 -10.25301 -10.25276
 Alpha  occ. eigenvalues --  -10.22163  -1.38328  -1.20200  -1.16762  -1.13630
 Alpha  occ. eigenvalues --   -1.10607  -1.04155  -1.03664  -1.02930  -1.01128
 Alpha  occ. eigenvalues --   -0.97577  -0.95924  -0.94631  -0.94028  -0.92131
 Alpha  occ. eigenvalues --   -0.91968  -0.90976  -0.87891  -0.87385  -0.86266
 Alpha  occ. eigenvalues --   -0.82901  -0.81105  -0.80262  -0.78469  -0.77715
 Alpha  occ. eigenvalues --   -0.76992  -0.76186  -0.73806  -0.73184  -0.72791
 Alpha  occ. eigenvalues --   -0.72406  -0.70311  -0.69804  -0.68799  -0.68344
 Alpha  occ. eigenvalues --   -0.68113  -0.65269  -0.63426  -0.62825  -0.62542
 Alpha  occ. eigenvalues --   -0.60954  -0.60593  -0.60326  -0.59505  -0.58920
 Alpha  occ. eigenvalues --   -0.58581  -0.56826  -0.55819  -0.55069  -0.54329
 Alpha  occ. eigenvalues --   -0.53071  -0.52957  -0.52714  -0.52033  -0.51419
 Alpha  occ. eigenvalues --   -0.50124  -0.49940  -0.49686  -0.49472  -0.49044
 Alpha  occ. eigenvalues --   -0.47838  -0.46672  -0.46320  -0.45816  -0.44998
 Alpha  occ. eigenvalues --   -0.44464  -0.42865  -0.42766  -0.42383  -0.41193
 Alpha  occ. eigenvalues --   -0.41100  -0.40811  -0.40487  -0.39321  -0.37923
 Alpha  occ. eigenvalues --   -0.37632  -0.37311  -0.36974  -0.35486  -0.31734
 Alpha  occ. eigenvalues --   -0.31095  -0.24907  -0.24564  -0.23096  -0.22740
 Alpha  occ. eigenvalues --   -0.22063  -0.20617
 Alpha virt. eigenvalues --   -0.19779  -0.16827  -0.16290  -0.14838  -0.12161
 Alpha virt. eigenvalues --   -0.09897  -0.09351  -0.08826  -0.08589  -0.08107
 Alpha virt. eigenvalues --   -0.06609  -0.05665  -0.03334  -0.03189  -0.03102

 Mulliken charges:
               1
     1  N   -0.700127
     2  H    0.422007
     3  H    0.420940
     4  H    0.422324
     5  C   -0.156584
     6  H    0.216181
     7  C    0.650718
     8  C   -0.295258
     9  H    0.176020
    10  H    0.188931
    11  O   -0.518580
    12  C   -0.347891
    13  H    0.142678
    14  H    0.109532
    15  C    0.555745
    16  O   -0.557841
    17  O   -0.552021
    18  N   -0.623105
    19  H    0.359455
    20  C   -0.049536
    21  H    0.156647
    22  C    0.625961
    23  C   -0.374839
    24  H    0.227825
    25  H    0.182066
    26  O   -0.532889
    27  C    0.195614
    28  C   -0.162764
    29  H    0.199963
    30  C   -0.167638
    31  H    0.183976
    32  C   -0.148560
    33  H    0.179783
    34  C   -0.161263
    35  H    0.152620
    36  O   -0.574416
    37  H    0.430497
    38  C    0.225932
    39  N   -0.617169
    40  H    0.338218
    41  C   -0.049110
    42  H    0.164982
    43  C    0.552169
    44  C   -0.266174
    45  H    0.164640
    46  H    0.137624
    47  O   -0.603795
    48  C   -0.288110
    49  H    0.155849
    50  H    0.137595
    51  C   -0.285950
    52  H    0.170188
    53  H    0.162758
    54  C   -0.221342
    55  H    0.200680
    56  H    0.207485
    57  N   -0.714207
    58  H    0.429563
    59  H    0.432638
    60  H    0.450584
    61  O   -0.609971
    62  H    0.448750
 Sum of Mulliken charges =   1.00000

 Dipole moment (field-independent basis, Debye):
    X=             16.4060    Y=             17.9921    Z=            -34.0042  Tot=             41.8229
 Quadrupole moment (field-independent basis, Debye-Ang):
   XX=           -262.3967   YY=              2.0481   ZZ=            -67.1006
   XY=             13.3674   XZ=             -6.6103   YZ=           -134.8905

 Normal termination of Gaussian 16 at Tue May 24 03:30:42 2022.
