 Gaussian 16, Revision C.01,
 Gaussian 16:  ES64L-G16RevC.01  3-Jul-2019

 -------------------------------------------------------------------
 # B3LYP/6-31G* guess=read geom=check nosymm integral(ultrafinegrid)
 -------------------------------------------------------------------

 ------------------------------------------------------
 Candidate Structure: Conf:578 Charge calc in gas phase
 ------------------------------------------------------
 Structure from the checkpoint file:  "conf-578.chk"
 Charge =  1 Multiplicity = 1

                          Input orientation:
 ---------------------------------------------------------------------
 Center     Atomic      Atomic             Coordinates (Angstroms)
 Number     Number       Type             X           Y           Z
 ---------------------------------------------------------------------
      1          7           0        1.202121   -1.381268    2.897918
      2          1           0        1.906007   -0.654810    2.717765
      3          1           0        0.403514   -1.080186    4.513099
      4          1           0        1.601772   -2.257597    2.560180
      5          6           0       -0.012606   -1.083363    2.129754
      6          1           0       -0.390348   -0.124401    2.504595
      7          6           0        0.274616   -0.972114    0.626033
      8          6           0       -1.090405   -2.169279    2.354013
      9          1           0       -0.829994   -3.048237    1.751194
     10          1           0       -2.047109   -1.792234    1.971424
     11          8           0        0.949013   -1.800167    0.025103
     12          6           0       -1.263282   -2.619189    3.822102
     13          1           0       -0.390406   -3.206534    4.127652
     14          1           0       -2.143400   -3.262690    3.893461
     15          6           0       -1.458689   -1.465708    4.809259
     16          8           0       -0.346744   -0.761743    5.092187
     17          8           0       -2.530282   -1.187864    5.298599
     18          7           0       -0.281007    0.105696   -0.022875
     19          1           0       -0.783568    0.796264    0.517754
     20          6           0        0.008278    0.382829   -1.427061
     21          1           0       -0.517478    1.315890   -1.661649
     22          6           0        1.527297    0.643143   -1.670654
     23          6           0       -0.519843   -0.748618   -2.362122
     24          1           0        0.295261   -1.454579   -2.536212
     25          1           0       -1.302485   -1.283724   -1.818568
     26          8           0        2.053997    0.369308   -2.751698
     27          6           0       -1.080877   -0.277915   -3.686324
     28          6           0       -0.252237    0.304249   -4.663958
     29          1           0        0.802397    0.430174   -4.432427
     30          6           0       -2.447977   -0.442652   -3.967062
     31          1           0       -3.100822   -0.895013   -3.226602
     32          6           0       -0.763870    0.712153   -5.897454
     33          1           0       -0.135087    1.157470   -6.660893
     34          6           0       -2.997913   -0.049027   -5.190112
     35          1           0       -4.054123   -0.185313   -5.403916
     36          8           0       -2.648521    0.949551   -7.442347
     37          1           0       -3.344825    1.638885   -7.381905
     38          6           0       -2.114750    0.509828   -6.091673
     39          7           0        2.164219    1.230020   -0.640108
     40          1           0        1.716154    1.222477    0.276786
     41          6           0        3.609601    1.212219   -0.470852
     42          1           0        4.020457    0.411100   -1.095112
     43          6           0        3.865773    0.780883    1.052524
     44          6           0        4.287972    2.552585   -0.922169
     45          1           0        4.394753    2.544376   -2.012791
     46          1           0        3.655832    3.405874   -0.652549
     47          8           0        5.035749    0.419290    1.400469
     48          6           0        5.610342    2.556357   -0.166922
     49          1           0        5.934343    1.520830   -0.258992
     50          1           0        5.309359    2.688409    0.876390
     51          6           0        6.896485    3.363766   -0.307874
     52          1           0        7.462783    3.100928   -1.209423
     53          1           0        6.757314    4.451022   -0.312938
     54          6           0        7.692253    3.008858    0.973997
     55          1           0        8.767007    3.187124    0.886576
     56          1           0        7.310702    3.582998    1.821647
     57          7           0        7.520720    1.541172    1.393436
     58          1           0        7.961083    1.386012    2.305077
     59          1           0        7.985997    0.913650    0.730205
     60          1           0        6.488996    1.177492    1.457126
     61          8           0        2.851464    0.800148    1.781335
     62          1           0       -2.969282    0.204294   -7.995296
 ---------------------------------------------------------------------

 SCF Done:  E(RB3LYP) =  -1526.08139213     A.U. after    3 cycles

 Alpha  occ. eigenvalues --  -19.48717 -19.19263 -19.18588 -19.18554 -19.15660
 Alpha  occ. eigenvalues --  -19.15574 -19.14534 -14.54731 -14.44106 -14.41127
 Alpha  occ. eigenvalues --  -14.37711 -10.42176 -10.35821 -10.35630 -10.35342
 Alpha  occ. eigenvalues --  -10.35160 -10.34406 -10.34004 -10.33231 -10.32973
 Alpha  occ. eigenvalues --  -10.32843 -10.32558 -10.31601 -10.29533 -10.28592
 Alpha  occ. eigenvalues --  -10.28453 -10.28288 -10.26332 -10.25997 -10.25143
 Alpha  occ. eigenvalues --  -10.23600  -1.34425  -1.10905  -1.10402  -1.09893
 Alpha  occ. eigenvalues --   -1.09280  -1.08429  -1.02403  -1.01062  -1.00632
 Alpha  occ. eigenvalues --   -1.00067  -0.97623  -0.94837  -0.91840  -0.90135
 Alpha  occ. eigenvalues --   -0.89653  -0.85428  -0.84377  -0.84350  -0.83231
 Alpha  occ. eigenvalues --   -0.80141  -0.77842  -0.76336  -0.75352  -0.73671
 Alpha  occ. eigenvalues --   -0.71458  -0.70136  -0.68760  -0.68003  -0.67280
 Alpha  occ. eigenvalues --   -0.65610  -0.65171  -0.65053  -0.63614  -0.61589
 Alpha  occ. eigenvalues --   -0.61570  -0.59920  -0.59538  -0.59129  -0.58723
 Alpha  occ. eigenvalues --   -0.57724  -0.57255  -0.56743  -0.56527  -0.54814
 Alpha  occ. eigenvalues --   -0.54496  -0.53586  -0.53164  -0.51920  -0.51671
 Alpha  occ. eigenvalues --   -0.51329  -0.50263  -0.49979  -0.49576  -0.48975
 Alpha  occ. eigenvalues --   -0.48903  -0.48151  -0.47650  -0.47420  -0.47324
 Alpha  occ. eigenvalues --   -0.46644  -0.46288  -0.45470  -0.45057  -0.44871
 Alpha  occ. eigenvalues --   -0.44409  -0.44175  -0.43044  -0.42062  -0.41762
 Alpha  occ. eigenvalues --   -0.41616  -0.40429  -0.39733  -0.39615  -0.39483
 Alpha  occ. eigenvalues --   -0.38708  -0.37915  -0.35171  -0.33474  -0.32776
 Alpha  occ. eigenvalues --   -0.32130  -0.31614  -0.31282  -0.30260  -0.29838
 Alpha  occ. eigenvalues --   -0.28993  -0.28152
 Alpha virt. eigenvalues --   -0.17991  -0.15258  -0.14336  -0.08974  -0.08350
 Alpha virt. eigenvalues --   -0.06980  -0.05378  -0.04706  -0.02079  -0.01227
 Alpha virt. eigenvalues --   -0.00964  -0.00195   0.00106   0.00674   0.01370

 Mulliken charges:
               1
     1  N   -0.786858
     2  H    0.380908
     3  H    0.447738
     4  H    0.322782
     5  C   -0.074899
     6  H    0.156232
     7  C    0.618833
     8  C   -0.281060
     9  H    0.162576
    10  H    0.148751
    11  O   -0.525275
    12  C   -0.362201
    13  H    0.163699
    14  H    0.173404
    15  C    0.576654
    16  O   -0.597695
    17  O   -0.460264
    18  N   -0.638776
    19  H    0.339933
    20  C   -0.035704
    21  H    0.163442
    22  C    0.626571
    23  C   -0.352852
    24  H    0.224484
    25  H    0.166412
    26  O   -0.546930
    27  C    0.163577
    28  C   -0.193712
    29  H    0.240681
    30  C   -0.200474
    31  H    0.181434
    32  C   -0.111740
    33  H    0.193673
    34  C   -0.135088
    35  H    0.176228
    36  O   -0.631218
    37  H    0.508591
    38  C    0.186843
    39  N   -0.603482
    40  H    0.356385
    41  C   -0.063654
    42  H    0.177300
    43  C    0.602848
    44  C   -0.266422
    45  H    0.155097
    46  H    0.148715
    47  O   -0.622106
    48  C   -0.301750
    49  H    0.152016
    50  H    0.156657
    51  C   -0.274623
    52  H    0.162286
    53  H    0.177483
    54  C   -0.187918
    55  H    0.195268
    56  H    0.213211
    57  N   -0.777318
    58  H    0.401085
    59  H    0.397298
    60  H    0.461471
    61  O   -0.558496
    62  H    0.509952
 Sum of Mulliken charges =   1.00000

 Dipole moment (field-independent basis, Debye):
    X=              6.4560    Y=              8.7026    Z=            -29.0342  Tot=             30.9904
 Quadrupole moment (field-independent basis, Debye-Ang):
   XX=             12.7083   YY=           -156.4210   ZZ=            -27.4094
   XY=             35.7803   XZ=            123.4601   YZ=            -17.7889

 Normal termination of Gaussian 16 at Tue May 24 03:30:52 2022.
