 Gaussian 16, Revision C.01,
 Gaussian 16:  ES64L-G16RevC.01  3-Jul-2019

 -------------------------------------------------------------------
 # B3LYP/6-31G* guess=read geom=check nosymm integral(ultrafinegrid)
 -------------------------------------------------------------------

 ------------------------------------------------------
 Candidate Structure: Conf:474 Charge calc in gas phase
 ------------------------------------------------------
 Structure from the checkpoint file:  "conf-474.chk"
 Charge =  1 Multiplicity = 1

                          Input orientation:
 ---------------------------------------------------------------------
 Center     Atomic      Atomic             Coordinates (Angstroms)
 Number     Number       Type             X           Y           Z
 ---------------------------------------------------------------------
      1          7           0        0.306548   -3.216859    3.447569
      2          1           0        1.102180   -2.725085    3.856723
      3          1           0       -0.184723   -3.741449    4.167615
      4          1           0        0.688318   -3.875972    2.767852
      5          6           0       -0.592297   -2.269600    2.761241
      6          1           0       -0.754158   -1.396872    3.406396
      7          6           0        0.097989   -1.777757    1.485394
      8          6           0       -1.952018   -2.901636    2.461700
      9          1           0       -2.589197   -2.174253    1.953164
     10          1           0       -2.442348   -3.147443    3.408607
     11          8           0        1.116670   -2.289490    1.061047
     12          6           0       -1.892535   -4.163322    1.607560
     13          1           0       -1.371631   -4.964941    2.136999
     14          1           0       -1.398151   -3.969792    0.655088
     15          6           0       -3.365338   -4.562599    1.376107
     16          8           0       -3.862908   -5.300073    2.245316
     17          8           0       -3.902092   -4.074965    0.364563
     18          7           0       -0.508572   -0.734208    0.869260
     19          1           0       -1.347983   -0.339406    1.257005
     20          6           0        0.083280   -0.094738   -0.299774
     21          1           0       -0.526743    0.798975   -0.467608
     22          6           0        1.527166    0.362621   -0.008038
     23          6           0        0.018883   -0.983708   -1.553732
     24          1           0        0.800058   -1.736569   -1.497334
     25          1           0       -0.936533   -1.513332   -1.533394
     26          8           0        2.465771    0.147433   -0.756585
     27          6           0        0.134059   -0.179712   -2.823373
     28          6           0       -0.889741    0.686015   -3.201153
     29          1           0       -1.766054    0.770270   -2.568605
     30          6           0        1.261282   -0.264208   -3.637622
     31          1           0        2.084382   -0.903302   -3.337454
     32          6           0       -0.809180    1.437158   -4.375296
     33          1           0       -1.619261    2.100304   -4.659831
     34          6           0        1.368749    0.487369   -4.811445
     35          1           0        2.253872    0.408410   -5.433135
     36          8           0        0.387082    2.053659   -6.427442
     37          1           0        1.323700    2.302655   -6.601002
     38          6           0        0.324307    1.327366   -5.171502
     39          7           0        1.679835    1.054621    1.148737
     40          1           0        1.025404    0.988733    1.922189
     41          6           0        2.989019    1.404679    1.620904
     42          1           0        3.687348    0.572829    1.442146
     43          6           0        2.833661    1.604497    3.160542
     44          6           0        3.546088    2.661653    0.951699
     45          1           0        3.367274    2.576100   -0.120026
     46          1           0        2.983646    3.532809    1.301224
     47          8           0        3.835293    1.973590    3.786718
     48          6           0        5.037566    2.841669    1.206404
     49          1           0        5.564038    1.987131    0.765035
     50          1           0        5.231465    2.805261    2.279178
     51          6           0        5.569287    4.124544    0.592546
     52          1           0        5.313370    4.145821   -0.471641
     53          1           0        5.072920    4.984101    1.054075
     54          6           0        7.072566    4.281517    0.723523
     55          1           0        7.557185    3.389540    0.316718
     56          1           0        7.417437    5.130576    0.131133
     57          7           0        7.503390    4.461354    2.133568
     58          1           0        8.518972    4.478553    2.228277
     59          1           0        7.153232    3.700757    2.716323
     60          1           0        7.137739    5.329196    2.525371
     61          8           0        1.704146    1.336000    3.629555
     62          1           0       -0.081198    2.912822   -6.317899
 ---------------------------------------------------------------------

 SCF Done:  E(RB3LYP) =  -1525.94770073     A.U. after    3 cycles

 Alpha  occ. eigenvalues --  -19.49612 -19.22128 -19.17860 -19.09761 -19.09235
 Alpha  occ. eigenvalues --  -19.04917 -19.04789 -14.63330 -14.57499 -14.46054
 Alpha  occ. eigenvalues --  -14.39313 -10.42018 -10.39683 -10.39186 -10.35129
 Alpha  occ. eigenvalues --  -10.34660 -10.34619 -10.34436 -10.32826 -10.32477
 Alpha  occ. eigenvalues --  -10.32279 -10.32085 -10.31563 -10.28083 -10.27868
 Alpha  occ. eigenvalues --  -10.27013 -10.26118 -10.25281 -10.24777 -10.23651
 Alpha  occ. eigenvalues --  -10.20378  -1.36521  -1.18262  -1.15419  -1.12122
 Alpha  occ. eigenvalues --   -1.10052  -1.03966  -1.02871  -1.00734  -0.98878
 Alpha  occ. eigenvalues --   -0.96969  -0.94411  -0.93530  -0.92520  -0.89935
 Alpha  occ. eigenvalues --   -0.89772  -0.89173  -0.86108  -0.85557  -0.84398
 Alpha  occ. eigenvalues --   -0.81181  -0.79541  -0.78461  -0.76600  -0.75846
 Alpha  occ. eigenvalues --   -0.74728  -0.74343  -0.72300  -0.71687  -0.70492
 Alpha  occ. eigenvalues --   -0.70296  -0.69125  -0.67623  -0.67154  -0.66733
 Alpha  occ. eigenvalues --   -0.65857  -0.64030  -0.62214  -0.61199  -0.60630
 Alpha  occ. eigenvalues --   -0.59084  -0.58507  -0.57686  -0.57186  -0.56445
 Alpha  occ. eigenvalues --   -0.56048  -0.55538  -0.54302  -0.54008  -0.52652
 Alpha  occ. eigenvalues --   -0.51673  -0.51027  -0.50978  -0.50017  -0.49400
 Alpha  occ. eigenvalues --   -0.49139  -0.48916  -0.48306  -0.47947  -0.47130
 Alpha  occ. eigenvalues --   -0.46940  -0.45130  -0.44848  -0.44215  -0.43172
 Alpha  occ. eigenvalues --   -0.43113  -0.42340  -0.41937  -0.41061  -0.40840
 Alpha  occ. eigenvalues --   -0.39655  -0.39012  -0.38715  -0.38423  -0.37847
 Alpha  occ. eigenvalues --   -0.36344  -0.35786  -0.34925  -0.33640  -0.31599
 Alpha  occ. eigenvalues --   -0.30666  -0.25420  -0.24990  -0.23673  -0.20598
 Alpha  occ. eigenvalues --   -0.19970  -0.18687
 Alpha virt. eigenvalues --   -0.17752  -0.14451  -0.14029  -0.13101  -0.10237
 Alpha virt. eigenvalues --   -0.07718  -0.07198  -0.06970  -0.06865  -0.06017
 Alpha virt. eigenvalues --   -0.04923  -0.03320  -0.01754  -0.01278  -0.00268

 Mulliken charges:
               1
     1  N   -0.707892
     2  H    0.426596
     3  H    0.423813
     4  H    0.422376
     5  C   -0.156259
     6  H    0.220088
     7  C    0.671184
     8  C   -0.301114
     9  H    0.181477
    10  H    0.179655
    11  O   -0.520289
    12  C   -0.350357
    13  H    0.099639
    14  H    0.133864
    15  C    0.550993
    16  O   -0.572841
    17  O   -0.584954
    18  N   -0.615541
    19  H    0.352842
    20  C   -0.056644
    21  H    0.162394
    22  C    0.621643
    23  C   -0.362767
    24  H    0.208963
    25  H    0.199917
    26  O   -0.550160
    27  C    0.188717
    28  C   -0.176048
    29  H    0.181349
    30  C   -0.152738
    31  H    0.200176
    32  C   -0.147132
    33  H    0.171991
    34  C   -0.151627
    35  H    0.168700
    36  O   -0.578084
    37  H    0.468745
    38  C    0.220651
    39  N   -0.611728
    40  H    0.336047
    41  C   -0.048207
    42  H    0.143150
    43  C    0.560887
    44  C   -0.249358
    45  H    0.134480
    46  H    0.138940
    47  O   -0.598493
    48  C   -0.295851
    49  H    0.138866
    50  H    0.174019
    51  C   -0.288133
    52  H    0.178969
    53  H    0.161279
    54  C   -0.223420
    55  H    0.221862
    56  H    0.214204
    57  N   -0.716029
    58  H    0.427247
    59  H    0.444393
    60  H    0.428141
    61  O   -0.612538
    62  H    0.469947
 Sum of Mulliken charges =   1.00000

 Dipole moment (field-independent basis, Debye):
    X=             33.6489    Y=             27.4541    Z=            -15.5903  Tot=             46.1415
 Quadrupole moment (field-independent basis, Debye-Ang):
   XX=            -28.9550   YY=           -126.5107   ZZ=            -43.3974
   XY=             56.0601   XZ=             32.8140   YZ=            -51.2170

 Normal termination of Gaussian 16 at Tue May 24 03:30:51 2022.
