 Gaussian 16, Revision C.01,
 Gaussian 16:  ES64L-G16RevC.01  3-Jul-2019

 ----------------------------------------------------------------------
 # B3LYP/6-31G* empiricaldispersion=gd3bj guess=read geom=check nosymm
 integral(ultrafinegrid)
 ----------------------------------------------------------------------

 ------------------------------------------------------
 Candidate Structure: Conf:472 Charge calc in gas phase
 ------------------------------------------------------
 Structure from the checkpoint file:  "conf-472.chk"
 Charge =  1 Multiplicity = 1

                          Input orientation:
 ---------------------------------------------------------------------
 Center     Atomic      Atomic             Coordinates (Angstroms)
 Number     Number       Type             X           Y           Z
 ---------------------------------------------------------------------
      1          7           0       -7.196863    2.460077    3.544576
      2          1           0       -8.197329    2.467196    3.361822
      3          1           0       -6.790723    3.305666    3.148548
      4          6           0       -6.565510    1.298969    2.938954
      5          1           0       -6.830210    0.407020    3.514332
      6          6           0       -5.053986    1.522053    3.012598
      7          6           0       -6.949903    1.043718    1.460281
      8          1           0       -8.045616    1.006074    1.389233
      9          1           0       -6.620300    1.888764    0.843263
     10          8           0       -4.565791    2.634659    2.779369
     11          6           0       -6.400513   -0.268924    0.907006
     12          7           0       -6.433211   -0.388227   -0.450112
     13          1           0       -6.212764   -1.293797   -0.844421
     14          1           0       -6.961131    0.255814   -1.021768
     15          8           0       -5.945632   -1.159333    1.621809
     16          7           0       -4.306811    0.430313    3.302102
     17          1           0       -4.762132   -0.467660    3.150866
     18          6           0       -2.848331    0.482654    3.271705
     19          1           0       -2.581866    1.494355    3.593325
     20          6           0       -2.372222    0.310444    1.814551
     21          6           0       -2.228267   -0.551364    4.223676
     22          1           0       -2.389840   -1.541532    3.780335
     23          8           0       -1.777720   -0.697502    1.415329
     24          6           0       -2.889428   -0.528918    5.616390
     25          1           0       -2.383327   -1.278836    6.238609
     26          1           0       -3.927564   -0.864457    5.522929
     27          6           0       -0.709062   -0.336282    4.304550
     28          1           0       -0.478186    0.653842    4.720361
     29          1           0       -0.270571   -1.100355    4.962835
     30          1           0       -0.258804   -0.416004    3.312495
     31          6           0       -2.873107    0.827365    6.329079
     32          1           0       -3.323588    0.739851    7.322714
     33          1           0       -1.855379    1.211394    6.466806
     34          1           0       -3.445651    1.580342    5.777619
     35          7           0       -2.687712    1.351022    1.008031
     36          1           0       -3.216702    2.120049    1.421450
     37          6           0       -2.572604    1.279970   -0.452580
     38          1           0       -2.743405    0.234372   -0.734697
     39          6           0       -1.138121    1.657686   -0.873976
     40          6           0       -3.605742    2.186628   -1.105210
     41          1           0       -3.502520    2.152921   -2.192181
     42          1           0       -4.611985    1.855605   -0.833201
     43          1           0       -3.464403    3.225694   -0.794814
     44          8           0       -0.866514    2.671929   -1.502182
     45          7           0       -0.201417    0.751284   -0.459016
     46          1           0       -0.511801   -0.002750    0.157155
     47          6           0        1.210446    1.053145   -0.562282
     48          1           0        1.303742    1.870544   -1.281751
     49          6           0        1.948097   -0.196758   -1.049491
     50          6           0        1.813970    1.518948    0.781949
     51          1           0        2.881488    1.722377    0.613669
     52          8           0        2.196747   -1.125907   -0.254810
     53          6           0        1.119864    2.740680    1.353289
     54          1           0        1.164836    3.574949    0.648128
     55          1           0        1.601763    3.053695    2.286486
     56          1           0        0.069139    2.518383    1.558428
     57          8           0        1.689518    0.437867    1.736759
     58          1           0        1.890464   -0.386045    1.205782
     59          7           0        2.251915   -0.246997   -2.351326
     60          1           0        2.137956    0.583146   -2.921340
     61          6           0        3.111172   -1.266518   -2.919416
     62          1           0        2.885659   -2.224494   -2.439627
     63          6           0        4.581611   -0.943658   -2.566469
     64          6           0        2.831848   -1.339073   -4.418361
     65          1           0        1.799706   -1.683701   -4.571264
     66          1           0        3.505414   -2.060681   -4.899954
     67          8           0        4.860761   -0.066620   -1.749877
     68          8           0        3.025910   -0.022920   -4.916188
     69          1           0        2.773125    0.004438   -5.851079
     70          7           0        5.516638   -1.720970   -3.171355
     71          1           0        5.195717   -2.575720   -3.608460
     72          6           0        6.898848   -1.750270   -2.683372
     73          1           0        7.546647   -2.154512   -3.460866
     74          1           0        7.194856   -0.726804   -2.446113
     75          6           0        6.940539   -2.671768   -1.458484
     76          8           0        7.331130   -3.827341   -1.507494
     77          7           0        6.362879   -2.121293   -0.342023
     78          1           0        5.891630   -1.231439   -0.491305
     79          6           0        5.759986   -3.006513    0.635962
     80          1           0        6.532047   -3.570769    1.166047
     81          6           0        4.837310   -4.009830   -0.070630
     82          6           0        4.942998   -2.136010    1.608561
     83          1           0        5.611711   -1.328151    1.929880
     84          1           0        4.130967   -1.676269    1.030937
     85          8           0        4.219475   -3.791181   -1.090227
     86          6           0        4.371193   -2.872477    2.827890
     87          1           0        3.964918   -3.842054    2.527217
     88          1           0        5.168652   -3.086405    3.550571
     89          6           0        3.235475   -2.082212    3.497918
     90          1           0        2.802005   -2.665919    4.319043
     91          1           0        2.439057   -1.934941    2.758601
     92          6           0        3.691332   -0.723289    4.029463
     93          1           0        4.223833   -0.810415    4.979364
     94          1           0        4.332050   -0.203076    3.315626
     95          7           0        2.503227    0.184045    4.226758
     96          1           0        2.755284    1.057394    4.697609
     97          1           0        1.757111   -0.263565    4.769388
     98          1           0        2.105718    0.409382    3.249816
     99          8           0        4.745381   -5.167063    0.612843
    100          1           0        4.140672   -5.747269    0.111288
 ---------------------------------------------------------------------

 SCF Done:  E(RB3LYP) =  -2418.67446840     A.U. after    2 cycles

 Alpha  occ. eigenvalues --  -19.28182 -19.26741 -19.24588 -19.23024 -19.22490
 Alpha  occ. eigenvalues --  -19.21137 -19.20860 -19.20343 -19.20161 -19.19673
 Alpha  occ. eigenvalues --  -19.19206 -14.56934 -14.46296 -14.45383 -14.44370
 Alpha  occ. eigenvalues --  -14.44278 -14.43958 -14.43630 -14.42746 -14.38088
 Alpha  occ. eigenvalues --  -10.40375 -10.39466 -10.38090 -10.37908 -10.37528
 Alpha  occ. eigenvalues --  -10.37378 -10.36699 -10.36529 -10.36000 -10.34816
 Alpha  occ. eigenvalues --  -10.33650 -10.32776 -10.32744 -10.32199 -10.31599
 Alpha  occ. eigenvalues --  -10.31456 -10.31429 -10.30659 -10.30016 -10.29314
 Alpha  occ. eigenvalues --  -10.28937 -10.28010 -10.27825 -10.27504 -10.27345
 Alpha  occ. eigenvalues --  -10.25756 -10.25696 -10.24535  -1.19079  -1.15567
 Alpha  occ. eigenvalues --   -1.13524  -1.12819  -1.12732  -1.12134  -1.11912
 Alpha  occ. eigenvalues --   -1.11655  -1.11487  -1.11319  -1.11141  -1.09868
 Alpha  occ. eigenvalues --   -1.02953  -1.01544  -1.01423  -1.00860  -1.00223
 Alpha  occ. eigenvalues --   -1.00117  -0.99034  -0.95916  -0.92559  -0.89690
 Alpha  occ. eigenvalues --   -0.88446  -0.87300  -0.86324  -0.85333  -0.83971
 Alpha  occ. eigenvalues --   -0.82309  -0.81390  -0.80948  -0.79716  -0.79479
 Alpha  occ. eigenvalues --   -0.76430  -0.74173  -0.73728  -0.73554  -0.72456
 Alpha  occ. eigenvalues --   -0.72195  -0.71352  -0.70051  -0.69538  -0.69146
 Alpha  occ. eigenvalues --   -0.67999  -0.67665  -0.67214  -0.66947  -0.66233
 Alpha  occ. eigenvalues --   -0.65411  -0.64902  -0.63884  -0.63729  -0.63152
 Alpha  occ. eigenvalues --   -0.62419  -0.62036  -0.61542  -0.61346  -0.60305
 Alpha  occ. eigenvalues --   -0.60182  -0.59638  -0.59488  -0.58873  -0.58001
 Alpha  occ. eigenvalues --   -0.57428  -0.57089  -0.56569  -0.56271  -0.56077
 Alpha  occ. eigenvalues --   -0.55818  -0.55701  -0.55203  -0.54715  -0.54426
 Alpha  occ. eigenvalues --   -0.54156  -0.53541  -0.53502  -0.52959  -0.52578
 Alpha  occ. eigenvalues --   -0.52362  -0.51876  -0.51601  -0.51361  -0.50608
 Alpha  occ. eigenvalues --   -0.50504  -0.50261  -0.50065  -0.49625  -0.49386
 Alpha  occ. eigenvalues --   -0.49289  -0.49108  -0.48837  -0.48456  -0.48164
 Alpha  occ. eigenvalues --   -0.48059  -0.48000  -0.47647  -0.47539  -0.47238
 Alpha  occ. eigenvalues --   -0.47149  -0.47035  -0.46932  -0.46636  -0.46190
 Alpha  occ. eigenvalues --   -0.45915  -0.45687  -0.45436  -0.44784  -0.44751
 Alpha  occ. eigenvalues --   -0.44603  -0.44427  -0.44071  -0.44027  -0.43851
 Alpha  occ. eigenvalues --   -0.43793  -0.43540  -0.43317  -0.40641  -0.40494
 Alpha  occ. eigenvalues --   -0.40424  -0.39953  -0.39647  -0.37562  -0.37199
 Alpha  occ. eigenvalues --   -0.36932  -0.36679  -0.36611  -0.35972  -0.35721
 Alpha  occ. eigenvalues --   -0.35644  -0.34575  -0.34533  -0.33852  -0.33587
 Alpha  occ. eigenvalues --   -0.33230  -0.32564  -0.32146  -0.31820  -0.30162
 Alpha virt. eigenvalues --   -0.09186  -0.08871  -0.08431  -0.08156  -0.07502
 Alpha virt. eigenvalues --   -0.06561  -0.05678  -0.05092  -0.04674  -0.03635
 Alpha virt. eigenvalues --   -0.03125  -0.01879  -0.01564  -0.01342  -0.00661

 Mulliken charges:
               1
     1  N   -0.714779
     2  H    0.304355
     3  H    0.321717
     4  C   -0.042419
     5  H    0.169870
     6  C    0.620151
     7  C   -0.405170
     8  H    0.183048
     9  H    0.174751
    10  O   -0.561529
    11  C    0.607997
    12  N   -0.740613
    13  H    0.353973
    14  H    0.349309
    15  O   -0.521590
    16  N   -0.602178
    17  H    0.378358
    18  C   -0.063926
    19  H    0.182810
    20  C    0.632527
    21  C   -0.090059
    22  H    0.160739
    23  O   -0.555199
    24  C   -0.254659
    25  H    0.134688
    26  H    0.153125
    27  C   -0.521624
    28  H    0.131341
    29  H    0.134190
    30  H    0.185891
    31  C   -0.461638
    32  H    0.163942
    33  H    0.129002
    34  H    0.172016
    35  N   -0.622650
    36  H    0.384641
    37  C   -0.058808
    38  H    0.181709
    39  C    0.621850
    40  C   -0.471100
    41  H    0.176271
    42  H    0.148716
    43  H    0.178892
    44  O   -0.515361
    45  N   -0.626601
    46  H    0.384678
    47  C   -0.112414
    48  H    0.197522
    49  C    0.681822
    50  C    0.143466
    51  H    0.153695
    52  O   -0.580203
    53  C   -0.467765
    54  H    0.191071
    55  H    0.132730
    56  H    0.174453
    57  O   -0.730864
    58  H    0.469310
    59  N   -0.584377
    60  H    0.370386
    61  C   -0.113418
    62  H    0.236753
    63  C    0.659246
    64  C   -0.052219
    65  H    0.159927
    66  H    0.145638
    67  O   -0.545035
    68  O   -0.619334
    69  H    0.418475
    70  N   -0.574857
    71  H    0.351389
    72  C   -0.246649
    73  H    0.195296
    74  H    0.202409
    75  C    0.595339
    76  O   -0.495212
    77  N   -0.618307
    78  H    0.369266
    79  C    0.000032
    80  H    0.194205
    81  C    0.606300
    82  C   -0.354185
    83  H    0.158137
    84  H    0.191837
    85  O   -0.485459
    86  C   -0.276929
    87  H    0.186123
    88  H    0.160156
    89  C   -0.306190
    90  H    0.169021
    91  H    0.177826
    92  C   -0.188834
    93  H    0.206762
    94  H    0.207653
    95  N   -0.782469
    96  H    0.398332
    97  H    0.410763
    98  H    0.465102
    99  O   -0.557165
   100  H    0.420790
 Sum of Mulliken charges =   1.00000

 Dipole moment (field-independent basis, Debye):
    X=              2.4005    Y=             -1.7614    Z=              6.3169  Tot=              6.9834
 Quadrupole moment (field-independent basis, Debye-Ang):
   XX=           -188.8189   YY=           -281.0905   ZZ=           -183.3098
   XY=             -4.4003   XZ=             33.4572   YZ=              7.4516

 Normal termination of Gaussian 16 at Thu Jul 21 23:50:26 2022.
