 Gaussian 16, Revision C.01,
 Gaussian 16:  ES64L-G16RevC.01  3-Jul-2019

 ----------------------------------------------------------------------
 # B3LYP/6-31G* empiricaldispersion=gd3bj guess=read geom=check nosymm
 integral(ultrafinegrid)
 ----------------------------------------------------------------------

 ------------------------------------------------------
 Candidate Structure: Conf:883 Charge calc in gas phase
 ------------------------------------------------------
 Structure from the checkpoint file:  "conf-883.chk"
 Charge =  1 Multiplicity = 1

                          Input orientation:
 ---------------------------------------------------------------------
 Center     Atomic      Atomic             Coordinates (Angstroms)
 Number     Number       Type             X           Y           Z
 ---------------------------------------------------------------------
      1          7           0       -3.004879    4.123527    3.915929
      2          1           0       -2.752143    3.384172    4.569482
      3          1           0       -3.866754    4.542246    4.268079
      4          6           0       -3.336532    3.554550    2.601532
      5          1           0       -4.121109    2.776167    2.645813
      6          6           0       -2.069118    2.912352    2.038299
      7          6           0       -3.821849    4.667754    1.675494
      8          1           0       -3.080440    5.474728    1.684020
      9          1           0       -3.882860    4.304356    0.644059
     10          8           0       -1.421685    3.384488    1.099222
     11          6           0       -5.176135    5.216018    2.117715
     12          7           0       -5.792629    6.023183    1.212660
     13          1           0       -6.643408    6.490882    1.494244
     14          1           0       -5.338885    6.324526    0.363317
     15          8           0       -5.681434    4.945114    3.203249
     16          7           0       -1.677962    1.770392    2.670937
     17          1           0       -2.283196    1.359766    3.367575
     18          6           0       -0.367001    1.164400    2.450974
     19          1           0        0.292844    1.999295    2.194438
     20          6           0       -0.398067    0.249611    1.207692
     21          6           0        0.162450    0.502075    3.738151
     22          1           0        0.239564    1.326472    4.461110
     23          8           0       -0.266792   -0.982754    1.260776
     24          6           0        1.580003   -0.078424    3.557666
     25          1           0        1.494419   -1.015969    2.995270
     26          1           0        1.951756   -0.348497    4.552843
     27          6           0       -0.774526   -0.565170    4.323823
     28          1           0       -0.942788   -1.372789    3.608089
     29          1           0       -0.332334   -0.990763    5.230553
     30          1           0       -1.748281   -0.157381    4.620544
     31          6           0        2.585559    0.867109    2.888386
     32          1           0        3.606342    0.464206    2.941225
     33          1           0        2.348744    1.054051    1.833334
     34          1           0        2.614219    1.839898    3.391512
     35          7           0       -0.556007    0.928584    0.056145
     36          1           0       -0.722572    1.937130    0.134712
     37          6           0       -0.686665    0.286358   -1.242243
     38          1           0       -1.675410   -0.185755   -1.319441
     39          6           0        0.388678   -0.795880   -1.369918
     40          6           0       -0.518513    1.330674   -2.348491
     41          1           0       -0.663895    0.872699   -3.330952
     42          1           0       -1.256410    2.130068   -2.229855
     43          1           0        0.485170    1.761829   -2.304077
     44          8           0        1.583007   -0.525089   -1.157695
     45          7           0       -0.054971   -2.006347   -1.738383
     46          1           0       -1.000454   -2.111453   -2.091859
     47          6           0        0.773847   -3.188520   -1.862538
     48          1           0        1.813128   -2.857972   -1.878106
     49          6           0        0.447287   -3.824949   -3.232341
     50          6           0        0.575283   -4.089439   -0.615085
     51          1           0       -0.494776   -4.321871   -0.531981
     52          8           0       -0.586212   -3.536550   -3.826808
     53          6           0        1.372192   -5.383991   -0.639605
     54          1           0        1.045863   -6.037887   -1.451134
     55          1           0        1.232826   -5.908185    0.309078
     56          1           0        2.445177   -5.192127   -0.763263
     57          8           0        0.981963   -3.360802    0.551754
     58          1           0        0.359098   -2.618608    0.716115
     59          7           0        1.422468   -4.632675   -3.697438
     60          1           0        2.237494   -4.829501   -3.122521
     61          6           0        1.654372   -4.987744   -5.086501
     62          1           0        0.831226   -5.580578   -5.497985
     63          6           0        2.957027   -5.795394   -5.068433
     64          6           0        1.823021   -3.669246   -5.924356
     65          1           0        2.432199   -2.984203   -5.321383
     66          1           0        0.828723   -3.234516   -6.044231
     67          8           0        3.585348   -5.958323   -4.019239
     68          8           0        2.389124   -3.852600   -7.204003
     69          1           0        3.357933   -3.743189   -7.085794
     70          7           0        3.435673   -6.206857   -6.272594
     71          1           0        2.959600   -5.786756   -7.068240
     72          6           0        4.890453   -6.306340   -6.380691
     73          1           0        5.252658   -7.176653   -5.829173
     74          1           0        5.148319   -6.429511   -7.435206
     75          6           0        5.493995   -4.995959   -5.836852
     76          8           0        5.018241   -3.900834   -6.160475
     77          7           0        6.499875   -5.117333   -4.948627
     78          1           0        6.756518   -6.039853   -4.614195
     79          6           0        6.849172   -4.034043   -4.034189
     80          1           0        7.063002   -3.125670   -4.601468
     81          6           0        8.090734   -4.480676   -3.282954
     82          6           0        5.663849   -3.797522   -3.061922
     83          1           0        4.831608   -3.462833   -3.687507
     84          1           0        5.375029   -4.774990   -2.663068
     85          8           0        8.399290   -5.639704   -3.114774
     86          6           0        5.855088   -2.814386   -1.902186
     87          1           0        6.574481   -3.212769   -1.176638
     88          1           0        6.260529   -1.858086   -2.253331
     89          6           0        4.489471   -2.594571   -1.231278
     90          1           0        4.000574   -3.569018   -1.099559
     91          1           0        3.849964   -2.001647   -1.896087
     92          6           0        4.559184   -1.908161    0.127758
     93          1           0        5.098901   -2.515380    0.859218
     94          1           0        5.044177   -0.930368    0.063011
     95          7           0        3.172782   -1.674904    0.657015
     96          1           0        3.177186   -1.219667    1.572967
     97          1           0        2.579675   -2.536316    0.721482
     98          1           0        2.611293   -1.079080   -0.005579
     99          8           0        8.779890   -3.438488   -2.782800
    100          1           0        9.541578   -3.807712   -2.294654
 ---------------------------------------------------------------------

 SCF Done:  E(RB3LYP) =  -2418.68158052     A.U. after    2 cycles

 Alpha  occ. eigenvalues --  -19.29531 -19.26102 -19.23936 -19.23849 -19.23270
 Alpha  occ. eigenvalues --  -19.22295 -19.22176 -19.21770 -19.21584 -19.21543
 Alpha  occ. eigenvalues --  -19.18008 -14.54159 -14.47790 -14.46138 -14.45942
 Alpha  occ. eigenvalues --  -14.45689 -14.45299 -14.44854 -14.42237 -14.38146
 Alpha  occ. eigenvalues --  -10.41814 -10.40952 -10.39583 -10.38884 -10.38717
 Alpha  occ. eigenvalues --  -10.38471 -10.38080 -10.36574 -10.35769 -10.35347
 Alpha  occ. eigenvalues --  -10.34333 -10.33995 -10.33627 -10.33273 -10.32603
 Alpha  occ. eigenvalues --  -10.32361 -10.31791 -10.31202 -10.30309 -10.29574
 Alpha  occ. eigenvalues --  -10.29412 -10.28680 -10.28464 -10.28405 -10.28232
 Alpha  occ. eigenvalues --  -10.27890 -10.26520 -10.26392  -1.20480  -1.16107
 Alpha  occ. eigenvalues --   -1.14697  -1.14378  -1.13531  -1.13222  -1.13062
 Alpha  occ. eigenvalues --   -1.12861  -1.11564  -1.09866  -1.09816  -1.09745
 Alpha  occ. eigenvalues --   -1.04275  -1.03273  -1.02488  -1.02461  -1.02306
 Alpha  occ. eigenvalues --   -1.01553  -0.96991  -0.95967  -0.92256  -0.91133
 Alpha  occ. eigenvalues --   -0.89996  -0.88014  -0.87502  -0.85411  -0.84028
 Alpha  occ. eigenvalues --   -0.83003  -0.82886  -0.81920  -0.80757  -0.80025
 Alpha  occ. eigenvalues --   -0.75876  -0.75492  -0.74447  -0.74032  -0.73111
 Alpha  occ. eigenvalues --   -0.72543  -0.71456  -0.71103  -0.70339  -0.69493
 Alpha  occ. eigenvalues --   -0.68196  -0.68077  -0.67832  -0.67559  -0.67199
 Alpha  occ. eigenvalues --   -0.66772  -0.66323  -0.64849  -0.64795  -0.63941
 Alpha  occ. eigenvalues --   -0.62241  -0.61943  -0.61660  -0.61023  -0.60805
 Alpha  occ. eigenvalues --   -0.60573  -0.59911  -0.59458  -0.59232  -0.58582
 Alpha  occ. eigenvalues --   -0.58300  -0.57747  -0.57624  -0.57400  -0.56772
 Alpha  occ. eigenvalues --   -0.56348  -0.56235  -0.55928  -0.55521  -0.55339
 Alpha  occ. eigenvalues --   -0.54600  -0.53941  -0.53776  -0.53407  -0.53291
 Alpha  occ. eigenvalues --   -0.53038  -0.52710  -0.52422  -0.52313  -0.51878
 Alpha  occ. eigenvalues --   -0.51685  -0.51331  -0.51133  -0.50772  -0.50666
 Alpha  occ. eigenvalues --   -0.50544  -0.49824  -0.49497  -0.49434  -0.49125
 Alpha  occ. eigenvalues --   -0.49043  -0.48782  -0.48532  -0.48284  -0.48116
 Alpha  occ. eigenvalues --   -0.47951  -0.47532  -0.47285  -0.47021  -0.46981
 Alpha  occ. eigenvalues --   -0.46688  -0.46562  -0.46228  -0.45755  -0.45686
 Alpha  occ. eigenvalues --   -0.45243  -0.45159  -0.44650  -0.44239  -0.44198
 Alpha  occ. eigenvalues --   -0.43497  -0.43327  -0.42854  -0.42646  -0.42455
 Alpha  occ. eigenvalues --   -0.41488  -0.41402  -0.40157  -0.38462  -0.38325
 Alpha  occ. eigenvalues --   -0.38128  -0.37744  -0.37310  -0.36449  -0.36311
 Alpha  occ. eigenvalues --   -0.36279  -0.35582  -0.35375  -0.35173  -0.34393
 Alpha  occ. eigenvalues --   -0.33953  -0.33433  -0.33286  -0.32067  -0.30550
 Alpha virt. eigenvalues --   -0.10332  -0.09471  -0.09302  -0.08902  -0.08186
 Alpha virt. eigenvalues --   -0.07283  -0.06922  -0.06287  -0.04076  -0.03758
 Alpha virt. eigenvalues --   -0.02613  -0.01836  -0.01666  -0.01477  -0.01048

 Mulliken charges:
               1
     1  N   -0.727684
     2  H    0.286593
     3  H    0.347677
     4  C   -0.075322
     5  H    0.142305
     6  C    0.659495
     7  C   -0.364031
     8  H    0.203080
     9  H    0.162653
    10  O   -0.547921
    11  C    0.610762
    12  N   -0.747056
    13  H    0.353735
    14  H    0.344504
    15  O   -0.514158
    16  N   -0.625253
    17  H    0.344937
    18  C   -0.074597
    19  H    0.193620
    20  C    0.648291
    21  C   -0.090871
    22  H    0.153110
    23  O   -0.582834
    24  C   -0.282558
    25  H    0.139325
    26  H    0.159315
    27  C   -0.479770
    28  H    0.183903
    29  H    0.165769
    30  H    0.138984
    31  C   -0.494938
    32  H    0.140818
    33  H    0.153326
    34  H    0.183147
    35  N   -0.621206
    36  H    0.398094
    37  C   -0.012267
    38  H    0.164401
    39  C    0.645941
    40  C   -0.484585
    41  H    0.179266
    42  H    0.182304
    43  H    0.188330
    44  O   -0.596186
    45  N   -0.584074
    46  H    0.364320
    47  C   -0.107579
    48  H    0.166945
    49  C    0.630549
    50  C    0.141963
    51  H    0.156795
    52  O   -0.522150
    53  C   -0.491277
    54  H    0.188252
    55  H    0.187824
    56  H    0.151769
    57  O   -0.688612
    58  H    0.466748
    59  N   -0.639606
    60  H    0.364102
    61  C   -0.062674
    62  H    0.203044
    63  C    0.598079
    64  C   -0.047746
    65  H    0.137211
    66  H    0.192269
    67  O   -0.543874
    68  O   -0.640833
    69  H    0.435379
    70  N   -0.571990
    71  H    0.362416
    72  C   -0.238709
    73  H    0.191685
    74  H    0.203096
    75  C    0.629438
    76  O   -0.553487
    77  N   -0.581994
    78  H    0.362369
    79  C   -0.039055
    80  H    0.204296
    81  C    0.585153
    82  C   -0.289717
    83  H    0.175420
    84  H    0.178211
    85  O   -0.456120
    86  C   -0.270917
    87  H    0.152492
    88  H    0.166174
    89  C   -0.308900
    90  H    0.161918
    91  H    0.186148
    92  C   -0.179484
    93  H    0.196980
    94  H    0.200845
    95  N   -0.820666
    96  H    0.407010
    97  H    0.422074
    98  H    0.452072
    99  O   -0.562632
   100  H    0.426606
 Sum of Mulliken charges =   1.00000

 Dipole moment (field-independent basis, Debye):
    X=             11.2106    Y=             -6.9330    Z=             -1.9303  Tot=             13.3218
 Quadrupole moment (field-independent basis, Debye-Ang):
   XX=           -177.9961   YY=           -221.1494   ZZ=           -247.2172
   XY=            -67.9831   XZ=            -17.4111   YZ=             23.5261

 Normal termination of Gaussian 16 at Thu Jul 21 23:50:26 2022.
