 Gaussian 16, Revision C.01,
 Gaussian 16:  ES64L-G16RevC.01  3-Jul-2019

 ----------------------------------------------------------------------
 # B3LYP/6-31G* empiricaldispersion=gd3bj guess=read geom=check nosymm
 integral(ultrafinegrid)
 ----------------------------------------------------------------------

 -----------------------------------------------------
 Candidate Structure: Conf:34 Charge calc in gas phase
 -----------------------------------------------------
 Structure from the checkpoint file:  "conf-34.chk"
 Charge =  1 Multiplicity = 1

                          Input orientation:
 ---------------------------------------------------------------------
 Center     Atomic      Atomic             Coordinates (Angstroms)
 Number     Number       Type             X           Y           Z
 ---------------------------------------------------------------------
      1          7           0       -2.733916    3.259112   -4.171947
      2          1           0       -2.854752    4.082929   -3.586844
      3          1           0       -3.538765    3.214946   -4.794008
      4          6           0       -2.675595    2.047794   -3.354189
      5          1           0       -3.652927    1.745916   -2.943562
      6          6           0       -1.735477    2.281009   -2.163220
      7          6           0       -2.204060    0.863500   -4.233848
      8          1           0       -1.932063    0.009535   -3.599730
      9          1           0       -3.034328    0.530452   -4.862068
     10          8           0       -0.615845    2.797311   -2.301203
     11          6           0       -1.052286    1.128776   -5.193966
     12          7           0       -0.017872    1.852014   -4.773645
     13          1           0        0.711532    2.098618   -5.428457
     14          1           0       -0.091307    2.379716   -3.885416
     15          8           0       -1.109229    0.589971   -6.328506
     16          7           0       -2.208674    1.875521   -0.976455
     17          1           0       -3.098775    1.392601   -0.900710
     18          6           0       -1.406875    1.822818    0.242233
     19          1           0       -0.357908    1.917266   -0.052603
     20          6           0       -1.707351    0.441146    0.838903
     21          6           0       -1.769465    2.957340    1.235849
     22          1           0       -2.829291    2.820332    1.494443
     23          8           0       -2.859422    0.001476    0.813655
     24          6           0       -1.604144    4.334337    0.568730
     25          1           0       -2.167787    4.340282   -0.371094
     26          1           0       -0.550593    4.475892    0.293271
     27          6           0       -0.934597    2.831723    2.516886
     28          1           0        0.136606    2.928783    2.297196
     29          1           0       -1.198488    3.616644    3.229700
     30          1           0       -1.090873    1.871646    3.016487
     31          6           0       -2.082847    5.504073    1.433287
     32          1           0       -2.036468    6.442473    0.870781
     33          1           0       -3.121353    5.358827    1.754759
     34          1           0       -1.470561    5.632108    2.331226
     35          7           0       -0.656674   -0.218086    1.356150
     36          1           0        0.277594    0.182169    1.373129
     37          6           0       -0.764360   -1.501685    2.025931
     38          1           0       -1.558323   -1.450195    2.780577
     39          6           0        0.594824   -1.730409    2.699162
     40          6           0       -1.077778   -2.641312    1.040921
     41          1           0       -1.192486   -3.595322    1.564861
     42          1           0       -2.011208   -2.416784    0.521128
     43          1           0       -0.268643   -2.742192    0.309914
     44          8           0        1.561861   -1.008033    2.431002
     45          7           0        0.667987   -2.773056    3.544536
     46          1           0       -0.109159   -3.411428    3.681542
     47          6           0        1.931366   -3.235044    4.113083
     48          1           0        2.537681   -2.357492    4.353982
     49          6           0        2.645422   -4.099881    3.054968
     50          6           0        1.617458   -4.067626    5.370092
     51          1           0        2.555807   -4.535191    5.698042
     52          8           0        2.628117   -5.334728    3.105692
     53          6           0        1.040269   -3.230209    6.500100
     54          1           0        1.758030   -2.470259    6.826299
     55          1           0        0.802340   -3.876650    7.348890
     56          1           0        0.120951   -2.726436    6.184957
     57          8           0        0.662748   -5.067174    5.022818
     58          1           0        1.139260   -5.643005    4.391038
     59          7           0        3.237989   -3.409759    2.058293
     60          1           0        3.170957   -2.393992    2.021501
     61          6           0        3.843335   -4.076637    0.926800
     62          1           0        4.423866   -4.933964    1.281000
     63          6           0        4.732299   -3.078877    0.199832
     64          6           0        2.763353   -4.614411   -0.058064
     65          1           0        2.131775   -3.769845   -0.370832
     66          1           0        2.147629   -5.326284    0.496327
     67          8           0        4.606323   -1.867063    0.328272
     68          8           0        3.327680   -5.291937   -1.162281
     69          1           0        3.535246   -4.627964   -1.850905
     70          7           0        5.643319   -3.662131   -0.642180
     71          1           0        5.479861   -4.644762   -0.836399
     72          6           0        6.241952   -2.874572   -1.687408
     73          1           0        6.312958   -1.845203   -1.322571
     74          1           0        7.255256   -3.230439   -1.904440
     75          6           0        5.398874   -2.888183   -2.969892
     76          8           0        4.257731   -3.354588   -3.025738
     77          7           0        5.997549   -2.341378   -4.052465
     78          1           0        6.964066   -2.035722   -4.022238
     79          6           0        5.389428   -2.404478   -5.368500
     80          1           0        4.910101   -3.383215   -5.486651
     81          6           0        6.525342   -2.283067   -6.374587
     82          6           0        4.311390   -1.307779   -5.560277
     83          1           0        3.740415   -1.277195   -4.627334
     84          1           0        4.804795   -0.333838   -5.673191
     85          8           0        7.650670   -1.938147   -6.090239
     86          6           0        3.360134   -1.579129   -6.729753
     87          1           0        3.928906   -1.721645   -7.654156
     88          1           0        2.825008   -2.519049   -6.539844
     89          6           0        2.346328   -0.445225   -6.930300
     90          1           0        2.886013    0.486286   -7.157213
     91          1           0        1.776063   -0.274735   -6.008580
     92          6           0        1.386977   -0.769967   -8.070602
     93          1           0        1.924307   -1.001910   -8.994195
     94          1           0        0.744219   -1.616918   -7.818779
     95          7           0        0.465985    0.388873   -8.343369
     96          1           0       -0.184542    0.181602   -9.106865
     97          1           0        0.992669    1.225077   -8.610133
     98          1           0       -0.145289    0.598452   -7.442305
     99          8           0        6.137671   -2.585676   -7.629276
    100          1           0        6.924116   -2.479460   -8.199652
 ---------------------------------------------------------------------

 SCF Done:  E(RB3LYP) =  -2418.67538938     A.U. after    3 cycles

 Alpha  occ. eigenvalues --  -19.30451 -19.25119 -19.24734 -19.21845 -19.21681
 Alpha  occ. eigenvalues --  -19.19847 -19.19804 -19.19115 -19.19098 -19.18963
 Alpha  occ. eigenvalues --  -19.18306 -14.56924 -14.46290 -14.45721 -14.45556
 Alpha  occ. eigenvalues --  -14.43714 -14.43391 -14.43147 -14.42035 -14.41740
 Alpha  occ. eigenvalues --  -10.42724 -10.41658 -10.38588 -10.38525 -10.38088
 Alpha  occ. eigenvalues --  -10.36643 -10.36245 -10.35712 -10.35138 -10.34315
 Alpha  occ. eigenvalues --  -10.33414 -10.32625 -10.31194 -10.31149 -10.30933
 Alpha  occ. eigenvalues --  -10.30627 -10.30280 -10.29830 -10.29521 -10.29496
 Alpha  occ. eigenvalues --  -10.29437 -10.29259 -10.26457 -10.25476 -10.24493
 Alpha  occ. eigenvalues --  -10.24029 -10.23301 -10.22737  -1.21404  -1.16006
 Alpha  occ. eigenvalues --   -1.13622  -1.13515  -1.12410  -1.12050  -1.11834
 Alpha  occ. eigenvalues --   -1.11082  -1.10882  -1.10003  -1.07392  -1.06744
 Alpha  occ. eigenvalues --   -1.02577  -1.02323  -1.01742  -1.00330  -0.99954
 Alpha  occ. eigenvalues --   -0.99919  -0.99002  -0.98557  -0.93435  -0.88945
 Alpha  occ. eigenvalues --   -0.88751  -0.86722  -0.85881  -0.84239  -0.83182
 Alpha  occ. eigenvalues --   -0.82238  -0.81153  -0.79464  -0.78347  -0.76972
 Alpha  occ. eigenvalues --   -0.76632  -0.75549  -0.73298  -0.73217  -0.71729
 Alpha  occ. eigenvalues --   -0.71665  -0.70692  -0.70321  -0.69682  -0.68853
 Alpha  occ. eigenvalues --   -0.68194  -0.68116  -0.67287  -0.66172  -0.65123
 Alpha  occ. eigenvalues --   -0.65071  -0.64870  -0.64231  -0.63745  -0.63035
 Alpha  occ. eigenvalues --   -0.62772  -0.62192  -0.61075  -0.60896  -0.59676
 Alpha  occ. eigenvalues --   -0.59537  -0.59179  -0.58297  -0.58058  -0.57568
 Alpha  occ. eigenvalues --   -0.57184  -0.56994  -0.56684  -0.56227  -0.55766
 Alpha  occ. eigenvalues --   -0.55289  -0.54769  -0.54662  -0.54402  -0.53924
 Alpha  occ. eigenvalues --   -0.53821  -0.53289  -0.52917  -0.52636  -0.52357
 Alpha  occ. eigenvalues --   -0.52236  -0.51777  -0.51583  -0.51005  -0.50903
 Alpha  occ. eigenvalues --   -0.50762  -0.50425  -0.50249  -0.49678  -0.49282
 Alpha  occ. eigenvalues --   -0.49152  -0.48953  -0.48491  -0.48272  -0.48014
 Alpha  occ. eigenvalues --   -0.47486  -0.47381  -0.47319  -0.47025  -0.46872
 Alpha  occ. eigenvalues --   -0.46042  -0.45995  -0.45917  -0.45431  -0.45240
 Alpha  occ. eigenvalues --   -0.45101  -0.44476  -0.44310  -0.44196  -0.44132
 Alpha  occ. eigenvalues --   -0.43705  -0.43439  -0.42911  -0.42446  -0.42305
 Alpha  occ. eigenvalues --   -0.42290  -0.41886  -0.40225  -0.39545  -0.39164
 Alpha  occ. eigenvalues --   -0.39130  -0.39125  -0.38928  -0.38642  -0.38531
 Alpha  occ. eigenvalues --   -0.35943  -0.35647  -0.35579  -0.35302  -0.35249
 Alpha  occ. eigenvalues --   -0.35011  -0.34025  -0.33859  -0.33345  -0.33033
 Alpha  occ. eigenvalues --   -0.32772  -0.32462  -0.32214  -0.30585  -0.30474
 Alpha virt. eigenvalues --   -0.10022  -0.09860  -0.09717  -0.07865  -0.07118
 Alpha virt. eigenvalues --   -0.06303  -0.05187  -0.04893  -0.04751  -0.03493
 Alpha virt. eigenvalues --   -0.03334  -0.03034  -0.02210  -0.01559  -0.00493

 Mulliken charges:
               1
     1  N   -0.722653
     2  H    0.326606
     3  H    0.315612
     4  C   -0.079372
     5  H    0.149008
     6  C    0.627303
     7  C   -0.365931
     8  H    0.196055
     9  H    0.192513
    10  O   -0.553833
    11  C    0.636923
    12  N   -0.736539
    13  H    0.326418
    14  H    0.429280
    15  O   -0.600257
    16  N   -0.594240
    17  H    0.357906
    18  C   -0.059436
    19  H    0.174259
    20  C    0.621855
    21  C   -0.071993
    22  H    0.142227
    23  O   -0.552383
    24  C   -0.249145
    25  H    0.125844
    26  H    0.145433
    27  C   -0.473482
    28  H    0.148998
    29  H    0.169041
    30  H    0.158604
    31  C   -0.453201
    32  H    0.151949
    33  H    0.148018
    34  H    0.156725
    35  N   -0.618113
    36  H    0.365164
    37  C   -0.030774
    38  H    0.186660
    39  C    0.625612
    40  C   -0.461834
    41  H    0.159359
    42  H    0.193941
    43  H    0.158522
    44  O   -0.551227
    45  N   -0.604869
    46  H    0.354987
    47  C   -0.080036
    48  H    0.184417
    49  C    0.635964
    50  C    0.112817
    51  H    0.148469
    52  O   -0.550994
    53  C   -0.449770
    54  H    0.149613
    55  H    0.175321
    56  H    0.149527
    57  O   -0.651794
    58  H    0.422526
    59  N   -0.631182
    60  H    0.387364
    61  C   -0.057158
    62  H    0.191323
    63  C    0.585709
    64  C   -0.050937
    65  H    0.131824
    66  H    0.181467
    67  O   -0.519274
    68  O   -0.653942
    69  H    0.436537
    70  N   -0.575429
    71  H    0.346313
    72  C   -0.254532
    73  H    0.226929
    74  H    0.185693
    75  C    0.624901
    76  O   -0.543619
    77  N   -0.614819
    78  H    0.363542
    79  C   -0.023269
    80  H    0.200600
    81  C    0.583062
    82  C   -0.276421
    83  H    0.188866
    84  H    0.151835
    85  O   -0.450537
    86  C   -0.283806
    87  H    0.174623
    88  H    0.164509
    89  C   -0.292829
    90  H    0.148070
    91  H    0.177010
    92  C   -0.183574
    93  H    0.201112
    94  H    0.216135
    95  N   -0.765304
    96  H    0.402954
    97  H    0.387450
    98  H    0.442344
    99  O   -0.564343
   100  H    0.429201
 Sum of Mulliken charges =   1.00000

 Dipole moment (field-independent basis, Debye):
    X=              5.1343    Y=              2.8131    Z=            -30.5030  Tot=             31.0598
 Quadrupole moment (field-independent basis, Debye-Ang):
   XX=           -223.2054   YY=           -281.4478   ZZ=            -13.4725
   XY=            -30.2453   XZ=            -46.7980   YZ=              1.1080

 Normal termination of Gaussian 16 at Thu Jul 21 23:50:30 2022.
