 Gaussian 16, Revision C.01,
 Gaussian 16:  ES64L-G16RevC.01  3-Jul-2019

 ----------------------------------------------------------------------
 # B3LYP/6-31G* empiricaldispersion=gd3bj guess=read geom=check nosymm
 integral(ultrafinegrid)
 ----------------------------------------------------------------------

 ------------------------------------------------------
 Candidate Structure: Conf:102 Charge calc in gas phase
 ------------------------------------------------------
 Structure from the checkpoint file:  "conf-102.chk"
 Charge =  1 Multiplicity = 1

                          Input orientation:
 ---------------------------------------------------------------------
 Center     Atomic      Atomic             Coordinates (Angstroms)
 Number     Number       Type             X           Y           Z
 ---------------------------------------------------------------------
      1          7           0       -5.888517   -1.290779    3.094646
      2          1           0       -5.754479   -0.714736    2.261751
      3          1           0       -6.350118   -0.674398    3.762146
      4          6           0       -4.574015   -1.641897    3.605131
      5          1           0       -4.682220   -1.932529    4.656650
      6          6           0       -3.560787   -0.486862    3.500956
      7          6           0       -4.015064   -2.866629    2.801034
      8          1           0       -4.879436   -3.369821    2.361970
      9          1           0       -3.359836   -2.526501    1.993326
     10          8           0       -3.779307    0.496247    2.801724
     11          6           0       -3.232567   -3.808223    3.689461
     12          7           0       -3.895647   -4.890802    4.137710
     13          1           0       -3.444727   -5.504675    4.803776
     14          1           0       -4.862169   -5.063247    3.900721
     15          8           0       -2.056796   -3.588882    4.040368
     16          7           0       -2.393406   -0.652897    4.188088
     17          1           0       -2.164227   -1.603729    4.466608
     18          6           0       -1.268830    0.195453    3.839227
     19          1           0       -1.537591    1.232725    4.061276
     20          6           0       -0.998149    0.074616    2.333871
     21          6           0       -0.025760   -0.203446    4.667761
     22          1           0        0.170962   -1.261157    4.440860
     23          8           0       -1.066842   -1.021994    1.754620
     24          6           0       -0.306000   -0.114764    6.184132
     25          1           0        0.606197   -0.435532    6.702925
     26          1           0       -1.081768   -0.840792    6.452721
     27          6           0        1.217976    0.598865    4.261086
     28          1           0        1.058648    1.676021    4.387253
     29          1           0        2.063375    0.321066    4.898975
     30          1           0        1.506019    0.422935    3.220727
     31          6           0       -0.722254    1.267857    6.693359
     32          1           0       -0.833339    1.251966    7.781963
     33          1           0        0.020528    2.035673    6.452323
     34          1           0       -1.685107    1.580243    6.274631
     35          7           0       -0.629441    1.206574    1.710264
     36          1           0       -0.647334    2.071497    2.232756
     37          6           0       -0.261827    1.271216    0.305932
     38          1           0       -1.172844    1.201337   -0.303670
     39          6           0        0.668457    0.094640   -0.026565
     40          6           0        0.458159    2.590636    0.017339
     41          1           0        0.701941    2.665587   -1.046375
     42          1           0       -0.178270    3.443560    0.274972
     43          1           0        1.387031    2.642955    0.592371
     44          8           0        1.651737   -0.174841    0.655861
     45          7           0        0.330971   -0.579326   -1.159024
     46          1           0       -0.485296   -0.280384   -1.677706
     47          6           0        1.007451   -1.794867   -1.591382
     48          1           0        1.851745   -1.934824   -0.911060
     49          6           0        1.600841   -1.618134   -2.995123
     50          6           0        0.055491   -3.000923   -1.469212
     51          1           0       -0.754681   -2.895258   -2.203567
     52          8           0        1.434312   -2.434078   -3.895316
     53          6           0        0.753360   -4.336551   -1.670450
     54          1           0        1.005473   -4.465347   -2.722744
     55          1           0        0.087729   -5.147187   -1.358725
     56          1           0        1.680633   -4.383919   -1.090068
     57          8           0       -0.528293   -3.005928   -0.152115
     58          1           0       -0.797283   -2.102356    0.111855
     59          7           0        2.317532   -0.462729   -3.152626
     60          1           0        2.660876   -0.046476   -2.291123
     61          6           0        3.216677   -0.298257   -4.310483
     62          1           0        2.709235   -0.749513   -5.165178
     63          6           0        4.507879   -1.046048   -3.964250
     64          6           0        3.435226    1.191047   -4.562133
     65          1           0        4.093401    1.323858   -5.424116
     66          1           0        3.941758    1.636638   -3.693012
     67          8           0        5.466425   -0.488739   -3.444928
     68          8           0        2.214081    1.840734   -4.865079
     69          1           0        1.577423    1.561791   -4.187108
     70          7           0        4.453603   -2.398698   -4.168954
     71          1           0        3.533168   -2.781210   -4.362426
     72          6           0        5.353300   -3.212310   -3.379926
     73          1           0        5.186057   -4.264910   -3.627744
     74          1           0        6.388831   -2.964378   -3.626271
     75          6           0        5.092937   -2.995356   -1.878777
     76          8           0        3.983229   -2.651920   -1.460186
     77          7           0        6.136419   -3.238721   -1.061628
     78          1           0        7.065400   -3.412587   -1.430477
     79          6           0        6.064745   -2.973657    0.365351
     80          1           0        5.821082   -1.912886    0.518680
     81          6           0        7.463467   -3.180165    0.922157
     82          6           0        4.988313   -3.829876    1.092335
     83          1           0        4.550042   -4.498239    0.346736
     84          1           0        5.454072   -4.462543    1.854556
     85          8           0        8.426522   -3.505201    0.263847
     86          6           0        3.887181   -2.969491    1.722539
     87          1           0        4.246438   -2.530140    2.662326
     88          1           0        3.647760   -2.142975    1.046508
     89          6           0        2.607664   -3.774500    1.959282
     90          1           0        2.805250   -4.650115    2.593541
     91          1           0        2.264092   -4.154711    0.988891
     92          6           0        1.502796   -2.921636    2.572136
     93          1           0        1.659079   -2.751321    3.639721
     94          1           0        1.418228   -1.958565    2.066677
     95          7           0        0.173052   -3.598168    2.399803
     96          1           0       -0.608565   -3.133824    2.897351
     97          1           0        0.193171   -4.563023    2.738107
     98          1           0       -0.070100   -3.583394    1.377842
     99          8           0        7.504238   -2.940332    2.245811
    100          1           0        8.427876   -3.076328    2.531730
 ---------------------------------------------------------------------

 SCF Done:  E(RB3LYP) =  -2418.69583508     A.U. after    1 cycles

 Alpha  occ. eigenvalues --  -19.28749 -19.26166 -19.24330 -19.23842 -19.23256
 Alpha  occ. eigenvalues --  -19.23084 -19.22036 -19.21157 -19.21094 -19.20526
 Alpha  occ. eigenvalues --  -19.19402 -14.53431 -14.48085 -14.48011 -14.47798
 Alpha  occ. eigenvalues --  -14.45719 -14.44677 -14.44667 -14.43149 -14.40133
 Alpha  occ. eigenvalues --  -10.41634 -10.41215 -10.40355 -10.40110 -10.38984
 Alpha  occ. eigenvalues --  -10.37466 -10.37459 -10.36127 -10.35072 -10.34426
 Alpha  occ. eigenvalues --  -10.34263 -10.33156 -10.33093 -10.32911 -10.32648
 Alpha  occ. eigenvalues --  -10.30943 -10.30931 -10.30136 -10.30030 -10.29639
 Alpha  occ. eigenvalues --  -10.29634 -10.29276 -10.27885 -10.27515 -10.27039
 Alpha  occ. eigenvalues --  -10.26599 -10.26360 -10.25451  -1.19806  -1.16041
 Alpha  occ. eigenvalues --   -1.15624  -1.14670  -1.13914  -1.13090  -1.12842
 Alpha  occ. eigenvalues --   -1.12536  -1.11124  -1.10847  -1.08794  -1.08756
 Alpha  occ. eigenvalues --   -1.04451  -1.04225  -1.02801  -1.01988  -1.01619
 Alpha  occ. eigenvalues --   -1.01379  -0.99734  -0.98035  -0.91129  -0.90763
 Alpha  occ. eigenvalues --   -0.89562  -0.87350  -0.86882  -0.86510  -0.84693
 Alpha  occ. eigenvalues --   -0.82658  -0.81682  -0.80704  -0.80108  -0.79138
 Alpha  occ. eigenvalues --   -0.76436  -0.74819  -0.74493  -0.73493  -0.72479
 Alpha  occ. eigenvalues --   -0.71398  -0.71260  -0.70620  -0.70358  -0.69793
 Alpha  occ. eigenvalues --   -0.69357  -0.68027  -0.67423  -0.67129  -0.66599
 Alpha  occ. eigenvalues --   -0.66141  -0.65724  -0.65313  -0.65040  -0.64478
 Alpha  occ. eigenvalues --   -0.63393  -0.62393  -0.61514  -0.61335  -0.60655
 Alpha  occ. eigenvalues --   -0.60617  -0.60188  -0.59722  -0.59440  -0.58752
 Alpha  occ. eigenvalues --   -0.57989  -0.57490  -0.57118  -0.56845  -0.56451
 Alpha  occ. eigenvalues --   -0.56282  -0.56128  -0.55480  -0.55127  -0.54642
 Alpha  occ. eigenvalues --   -0.54512  -0.54161  -0.54090  -0.53587  -0.52990
 Alpha  occ. eigenvalues --   -0.52786  -0.52338  -0.52259  -0.51945  -0.51812
 Alpha  occ. eigenvalues --   -0.51402  -0.51177  -0.50947  -0.50334  -0.50209
 Alpha  occ. eigenvalues --   -0.49773  -0.49702  -0.49324  -0.49047  -0.48976
 Alpha  occ. eigenvalues --   -0.48612  -0.48247  -0.48148  -0.47849  -0.47645
 Alpha  occ. eigenvalues --   -0.47443  -0.47309  -0.47242  -0.47050  -0.46911
 Alpha  occ. eigenvalues --   -0.46643  -0.46262  -0.46196  -0.45968  -0.45390
 Alpha  occ. eigenvalues --   -0.45147  -0.44231  -0.44147  -0.43991  -0.43672
 Alpha  occ. eigenvalues --   -0.43480  -0.42373  -0.41778  -0.41700  -0.41507
 Alpha  occ. eigenvalues --   -0.40822  -0.40198  -0.39534  -0.39277  -0.38405
 Alpha  occ. eigenvalues --   -0.38235  -0.38179  -0.37862  -0.37199  -0.36865
 Alpha  occ. eigenvalues --   -0.36368  -0.35536  -0.35186  -0.34750  -0.34608
 Alpha  occ. eigenvalues --   -0.34496  -0.34132  -0.33248  -0.32954  -0.31626
 Alpha virt. eigenvalues --   -0.10379  -0.09804  -0.09315  -0.08979  -0.08152
 Alpha virt. eigenvalues --   -0.06871  -0.06546  -0.05335  -0.05191  -0.04058
 Alpha virt. eigenvalues --   -0.02787  -0.02411  -0.01763  -0.01622  -0.00756

 Mulliken charges:
               1
     1  N   -0.696421
     2  H    0.321288
     3  H    0.318872
     4  C   -0.095234
     5  H    0.168100
     6  C    0.595799
     7  C   -0.370610
     8  H    0.187517
     9  H    0.194475
    10  O   -0.522759
    11  C    0.592434
    12  N   -0.711334
    13  H    0.361557
    14  H    0.371223
    15  O   -0.574201
    16  N   -0.618448
    17  H    0.365752
    18  C   -0.045498
    19  H    0.170652
    20  C    0.677253
    21  C   -0.119840
    22  H    0.119457
    23  O   -0.604294
    24  C   -0.250426
    25  H    0.146025
    26  H    0.143679
    27  C   -0.493780
    28  H    0.148976
    29  H    0.160208
    30  H    0.184652
    31  C   -0.462867
    32  H    0.166472
    33  H    0.154228
    34  H    0.157837
    35  N   -0.586727
    36  H    0.353440
    37  C   -0.016447
    38  H    0.166895
    39  C    0.624064
    40  C   -0.491352
    41  H    0.176049
    42  H    0.180460
    43  H    0.194267
    44  O   -0.523385
    45  N   -0.628810
    46  H    0.344566
    47  C   -0.124542
    48  H    0.246156
    49  C    0.647676
    50  C    0.161228
    51  H    0.148259
    52  O   -0.524413
    53  C   -0.493916
    54  H    0.203332
    55  H    0.156748
    56  H    0.167420
    57  O   -0.701207
    58  H    0.448149
    59  N   -0.615304
    60  H    0.351890
    61  C   -0.113960
    62  H    0.198577
    63  C    0.620755
    64  C   -0.026835
    65  H    0.177566
    66  H    0.144110
    67  O   -0.519949
    68  O   -0.611775
    69  H    0.386918
    70  N   -0.573901
    71  H    0.362563
    72  C   -0.249202
    73  H    0.190447
    74  H    0.199196
    75  C    0.639584
    76  O   -0.562473
    77  N   -0.623821
    78  H    0.364494
    79  C    0.000781
    80  H    0.202537
    81  C    0.565982
    82  C   -0.276007
    83  H    0.166108
    84  H    0.165419
    85  O   -0.454508
    86  C   -0.285825
    87  H    0.151159
    88  H    0.194692
    89  C   -0.303857
    90  H    0.150790
    91  H    0.163574
    92  C   -0.216606
    93  H    0.190360
    94  H    0.246382
    95  N   -0.785720
    96  H    0.439694
    97  H    0.379356
    98  H    0.432774
    99  O   -0.564111
   100  H    0.429491
 Sum of Mulliken charges =   1.00000

 Dipole moment (field-independent basis, Debye):
    X=             -0.1334    Y=            -13.3603    Z=             12.7841  Tot=             18.4918
 Quadrupole moment (field-independent basis, Debye-Ang):
   XX=           -227.2502   YY=           -205.0907   ZZ=           -227.5369
   XY=             -3.9924   XZ=             -9.9193   YZ=            -31.0567

 Normal termination of Gaussian 16 at Thu Jul 21 23:50:06 2022.
