 Gaussian 16, Revision C.01,
 Gaussian 16:  ES64L-G16RevC.01  3-Jul-2019

 ----------------------------------------------------------------------
 # B3LYP/6-31G* empiricaldispersion=gd3bj guess=read geom=check nosymm
 integral(ultrafinegrid)
 ----------------------------------------------------------------------

 ------------------------------------------------------
 Candidate Structure: Conf:156 Charge calc in gas phase
 ------------------------------------------------------
 Structure from the checkpoint file:  "conf-156.chk"
 Charge =  1 Multiplicity = 1

                          Input orientation:
 ---------------------------------------------------------------------
 Center     Atomic      Atomic             Coordinates (Angstroms)
 Number     Number       Type             X           Y           Z
 ---------------------------------------------------------------------
      1          7           0       -7.325248    1.186042    1.212868
      2          1           0       -6.856858    1.427865    0.338604
      3          1           0       -7.544991    2.089865    1.629640
      4          6           0       -6.362894    0.505514    2.069498
      5          1           0       -6.768513    0.495117    3.087719
      6          6           0       -5.000851    1.235905    2.124905
      7          6           0       -6.213816   -0.965286    1.601660
      8          1           0       -7.131395   -1.219860    1.063579
      9          1           0       -5.383733   -1.065093    0.889373
     10          8           0       -4.805540    2.256667    1.448179
     11          6           0       -5.970097   -1.949604    2.738160
     12          7           0       -6.563581   -3.158492    2.601578
     13          1           0       -6.434502   -3.843794    3.333808
     14          1           0       -7.213391   -3.361460    1.857570
     15          8           0       -5.264961   -1.687800    3.716707
     16          7           0       -4.076556    0.701133    2.946073
     17          1           0       -4.312506   -0.179778    3.414691
     18          6           0       -2.800779    1.361125    3.212346
     19          1           0       -2.993391    2.439120    3.184635
     20          6           0       -1.851405    1.026026    2.047047
     21          6           0       -2.213761    0.979703    4.579387
     22          1           0       -1.819258   -0.039882    4.489581
     23          8           0       -0.993414    0.127556    2.108876
     24          6           0       -3.278212    0.976815    5.697592
     25          1           0       -2.764005    0.728871    6.634708
     26          1           0       -3.991883    0.162826    5.526061
     27          6           0       -1.043822    1.918093    4.911704
     28          1           0       -1.386111    2.953526    5.019914
     29          1           0       -0.577699    1.621334    5.856827
     30          1           0       -0.263925    1.903714    4.145935
     31          6           0       -4.048984    2.289365    5.874973
     32          1           0       -4.760093    2.204694    6.703334
     33          1           0       -3.383655    3.129446    6.099946
     34          1           0       -4.621947    2.546551    4.976868
     35          7           0       -2.079657    1.763722    0.940235
     36          1           0       -2.935536    2.325203    0.955724
     37          6           0       -1.471584    1.483600   -0.363443
     38          1           0       -1.443430    0.394832   -0.499667
     39          6           0       -0.016705    1.993580   -0.352301
     40          6           0       -2.287644    2.136484   -1.470218
     41          1           0       -1.872199    1.880201   -2.448707
     42          1           0       -3.324600    1.791131   -1.424805
     43          1           0       -2.267889    3.224693   -1.369049
     44          8           0        0.323855    3.048857   -0.912973
     45          7           0        0.821585    1.192530    0.328175
     46          1           0        0.358567    0.447984    0.851798
     47          6           0        2.183288    1.552773    0.729028
     48          1           0        2.193898    2.616253    0.997919
     49          6           0        3.095348    1.327765   -0.488772
     50          6           0        2.586799    0.725004    1.965754
     51          1           0        2.612381   -0.333637    1.670055
     52          8           0        3.843311    0.350152   -0.606772
     53          6           0        3.957082    1.138168    2.484098
     54          1           0        4.728168    0.965251    1.729991
     55          1           0        4.194910    0.554051    3.376756
     56          1           0        3.951066    2.197383    2.764621
     57          8           0        1.661326    0.935476    3.022216
     58          1           0        0.832433    0.450442    2.855530
     59          7           0        2.953208    2.278402   -1.442608
     60          1           0        2.193027    2.938432   -1.272012
     61          6           0        3.285457    2.027473   -2.845341
     62          1           0        3.115259    0.961689   -3.046080
     63          6           0        4.761911    2.318609   -3.123479
     64          6           0        2.357305    2.847035   -3.750538
     65          1           0        2.667355    2.693331   -4.786966
     66          1           0        2.481948    3.917144   -3.533926
     67          8           0        5.155832    3.191454   -3.890586
     68          8           0        1.013244    2.425240   -3.638685
     69          1           0        0.633513    2.800743   -2.822061
     70          7           0        5.627717    1.462017   -2.496091
     71          1           0        5.242739    0.856087   -1.764735
     72          6           0        7.046030    1.712588   -2.612828
     73          1           0        7.331943    2.695490   -2.223957
     74          1           0        7.587116    0.947687   -2.046519
     75          6           0        7.518408    1.696041   -4.070647
     76          8           0        8.514855    2.363785   -4.393454
     77          7           0        6.802417    0.876573   -4.884422
     78          1           0        5.999169    0.474456   -4.409688
     79          6           0        6.605188    1.054797   -6.327760
     80          1           0        6.698168    2.129000   -6.539125
     81          6           0        5.187251    0.682910   -6.753309
     82          6           0        7.636667    0.308650   -7.212996
     83          1           0        7.506324   -0.775486   -7.127082
     84          1           0        7.453099    0.588671   -8.253930
     85          8           0        4.848046    0.625281   -7.908710
     86          6           0        8.991537    0.766953   -6.700955
     87          1           0        8.879334    1.845260   -6.578478
     88          1           0        9.088583    0.358323   -5.689016
     89          6           0       10.323300    0.549878   -7.408539
     90          1           0       10.390762    1.132011   -8.335166
     91          1           0       10.509357   -0.497349   -7.670819
     92          6           0       11.419281    0.972898   -6.416473
     93          1           0       11.542826    0.223261   -5.631504
     94          1           0       12.387245    1.156615   -6.886996
     95          7           0       11.042013    2.258029   -5.674343
     96          1           0       11.763850    2.507883   -4.991211
     97          1           0       10.117807    2.194348   -5.163076
     98          1           0       10.954814    3.047569   -6.323358
     99          8           0        4.357172    0.431272   -5.713669
    100          1           0        3.480956    0.217656   -6.088919
 ---------------------------------------------------------------------

 SCF Done:  E(RB3LYP) =  -2418.65243130     A.U. after    1 cycles

 Alpha  occ. eigenvalues --  -19.30249 -19.23827 -19.23808 -19.20312 -19.20199
 Alpha  occ. eigenvalues --  -19.20151 -19.19679 -19.19658 -19.19224 -19.18935
 Alpha  occ. eigenvalues --  -19.18057 -14.59824 -14.46549 -14.43900 -14.43266
 Alpha  occ. eigenvalues --  -14.42995 -14.42949 -14.42703 -14.41120 -14.36832
 Alpha  occ. eigenvalues --  -10.42370 -10.40555 -10.39505 -10.36698 -10.36609
 Alpha  occ. eigenvalues --  -10.36523 -10.36483 -10.35856 -10.34981 -10.34280
 Alpha  occ. eigenvalues --  -10.32840 -10.32399 -10.30664 -10.30431 -10.30320
 Alpha  occ. eigenvalues --  -10.30075 -10.29964 -10.29923 -10.29785 -10.28775
 Alpha  occ. eigenvalues --  -10.28654 -10.26432 -10.24562 -10.24012 -10.22792
 Alpha  occ. eigenvalues --  -10.22451 -10.21567 -10.21547  -1.20853  -1.14991
 Alpha  occ. eigenvalues --   -1.13985  -1.12387  -1.11926  -1.11830  -1.11212
 Alpha  occ. eigenvalues --   -1.10772  -1.10586  -1.09351  -1.07375  -1.07025
 Alpha  occ. eigenvalues --   -1.03981  -1.00630  -1.00397  -0.99770  -0.99139
 Alpha  occ. eigenvalues --   -0.98175  -0.97550  -0.94519  -0.94090  -0.89816
 Alpha  occ. eigenvalues --   -0.86563  -0.85850  -0.84596  -0.83728  -0.82840
 Alpha  occ. eigenvalues --   -0.82402  -0.80782  -0.78588  -0.78166  -0.77233
 Alpha  occ. eigenvalues --   -0.75538  -0.73713  -0.72653  -0.72185  -0.71735
 Alpha  occ. eigenvalues --   -0.71132  -0.70590  -0.69748  -0.69126  -0.68528
 Alpha  occ. eigenvalues --   -0.67827  -0.66399  -0.65781  -0.65634  -0.64970
 Alpha  occ. eigenvalues --   -0.63972  -0.63883  -0.62832  -0.62788  -0.61902
 Alpha  occ. eigenvalues --   -0.61416  -0.60992  -0.60823  -0.60356  -0.59462
 Alpha  occ. eigenvalues --   -0.58851  -0.58638  -0.58107  -0.57441  -0.57168
 Alpha  occ. eigenvalues --   -0.56851  -0.56570  -0.56178  -0.56038  -0.55850
 Alpha  occ. eigenvalues --   -0.55360  -0.55090  -0.54495  -0.54232  -0.53903
 Alpha  occ. eigenvalues --   -0.53672  -0.52984  -0.52720  -0.52442  -0.51415
 Alpha  occ. eigenvalues --   -0.50710  -0.50575  -0.50225  -0.50051  -0.49794
 Alpha  occ. eigenvalues --   -0.49577  -0.49259  -0.48927  -0.48815  -0.48689
 Alpha  occ. eigenvalues --   -0.48079  -0.47729  -0.47471  -0.46931  -0.46759
 Alpha  occ. eigenvalues --   -0.46375  -0.46299  -0.46062  -0.45904  -0.45810
 Alpha  occ. eigenvalues --   -0.45513  -0.45269  -0.44972  -0.44823  -0.44470
 Alpha  occ. eigenvalues --   -0.44379  -0.43971  -0.43793  -0.43325  -0.43108
 Alpha  occ. eigenvalues --   -0.42857  -0.42608  -0.42214  -0.41911  -0.41722
 Alpha  occ. eigenvalues --   -0.40953  -0.40554  -0.39001  -0.38564  -0.38050
 Alpha  occ. eigenvalues --   -0.37555  -0.37435  -0.36732  -0.36708  -0.36630
 Alpha  occ. eigenvalues --   -0.36113  -0.35953  -0.35141  -0.34539  -0.34203
 Alpha  occ. eigenvalues --   -0.34030  -0.33442  -0.33178  -0.32966  -0.32428
 Alpha  occ. eigenvalues --   -0.31952  -0.31408  -0.31252  -0.30533  -0.29799
 Alpha virt. eigenvalues --   -0.11028  -0.09673  -0.09183  -0.07115  -0.06473
 Alpha virt. eigenvalues --   -0.05885  -0.05267  -0.05204  -0.04572  -0.03581
 Alpha virt. eigenvalues --   -0.03502  -0.02830  -0.01740  -0.00080   0.00208

 Mulliken charges:
               1
     1  N   -0.692755
     2  H    0.305852
     3  H    0.314871
     4  C   -0.079663
     5  H    0.181034
     6  C    0.568270
     7  C   -0.380969
     8  H    0.182353
     9  H    0.181885
    10  O   -0.558936
    11  C    0.624855
    12  N   -0.737616
    13  H    0.357468
    14  H    0.353297
    15  O   -0.529764
    16  N   -0.631810
    17  H    0.409158
    18  C   -0.043103
    19  H    0.175114
    20  C    0.637564
    21  C   -0.105933
    22  H    0.153257
    23  O   -0.579438
    24  C   -0.272506
    25  H    0.142697
    26  H    0.152164
    27  C   -0.481304
    28  H    0.145636
    29  H    0.155992
    30  H    0.170917
    31  C   -0.457897
    32  H    0.153258
    33  H    0.151853
    34  H    0.146091
    35  N   -0.609149
    36  H    0.393206
    37  C   -0.054207
    38  H    0.174912
    39  C    0.644073
    40  C   -0.483735
    41  H    0.177367
    42  H    0.165888
    43  H    0.185763
    44  O   -0.570907
    45  N   -0.617911
    46  H    0.376587
    47  C   -0.057048
    48  H    0.181686
    49  C    0.640310
    50  C    0.110085
    51  H    0.144089
    52  O   -0.556033
    53  C   -0.461850
    54  H    0.155285
    55  H    0.170459
    56  H    0.154482
    57  O   -0.651497
    58  H    0.432109
    59  N   -0.619111
    60  H    0.376756
    61  C   -0.075342
    62  H    0.175021
    63  C    0.625607
    64  C   -0.065023
    65  H    0.153170
    66  H    0.155318
    67  O   -0.525971
    68  O   -0.652970
    69  H    0.431080
    70  N   -0.649960
    71  H    0.389697
    72  C   -0.209719
    73  H    0.205117
    74  H    0.186547
    75  C    0.626756
    76  O   -0.577948
    77  N   -0.598568
    78  H    0.382911
    79  C   -0.064061
    80  H    0.215537
    81  C    0.605848
    82  C   -0.262745
    83  H    0.166068
    84  H    0.187985
    85  O   -0.436220
    86  C   -0.296176
    87  H    0.144254
    88  H    0.156636
    89  C   -0.279656
    90  H    0.176027
    91  H    0.194769
    92  C   -0.195630
    93  H    0.218167
    94  H    0.213702
    95  N   -0.775733
    96  H    0.413999
    97  H    0.462865
    98  H    0.411503
    99  O   -0.584852
   100  H    0.438487
 Sum of Mulliken charges =   1.00000

 Dipole moment (field-independent basis, Debye):
    X=             32.6941    Y=              1.9440    Z=            -19.0082  Tot=             37.8681
 Quadrupole moment (field-independent basis, Debye-Ang):
   XX=            211.9705   YY=           -263.3402   ZZ=           -158.9672
   XY=             85.6968   XZ=           -249.0210   YZ=            -27.8476

 Normal termination of Gaussian 16 at Thu Jul 21 23:49:59 2022.
