 Gaussian 16, Revision C.01,
 Gaussian 16:  ES64L-G16RevC.01  3-Jul-2019

 ----------------------------------------------------------------------
 # B3LYP/6-31G* empiricaldispersion=gd3bj guess=read geom=check nosymm
 integral(ultrafinegrid)
 ----------------------------------------------------------------------

 ------------------------------------------------------
 Candidate Structure: Conf:553 Charge calc in gas phase
 ------------------------------------------------------
 Structure from the checkpoint file:  "conf-553.chk"
 Charge =  1 Multiplicity = 1

                          Input orientation:
 ---------------------------------------------------------------------
 Center     Atomic      Atomic             Coordinates (Angstroms)
 Number     Number       Type             X           Y           Z
 ---------------------------------------------------------------------
      1          7           0       -6.856942    2.314526    3.928300
      2          1           0       -6.577475    3.291594    4.032308
      3          1           0       -6.986397    1.965594    4.877018
      4          6           0       -5.744253    1.606578    3.293524
      5          1           0       -5.891579    0.530125    3.441574
      6          6           0       -4.389570    2.033016    3.873541
      7          6           0       -5.699770    1.902306    1.776812
      8          1           0       -5.673443    2.992241    1.642154
      9          1           0       -4.782399    1.500954    1.337608
     10          8           0       -4.217497    3.157232    4.336580
     11          6           0       -6.849996    1.330174    0.937176
     12          7           0       -8.070055    1.380000    1.526701
     13          1           0       -8.868757    1.045129    1.006944
     14          1           0       -8.163048    1.778091    2.459477
     15          8           0       -6.641884    0.891968   -0.186604
     16          7           0       -3.394918    1.100489    3.788113
     17          1           0       -3.564668    0.253921    3.256939
     18          6           0       -1.996847    1.464818    3.952747
     19          1           0       -1.993010    2.505995    4.283991
     20          6           0       -1.348845    1.335481    2.576697
     21          6           0       -1.265234    0.580662    4.989918
     22          1           0       -1.287476   -0.446788    4.601051
     23          8           0       -1.525318    0.332178    1.880621
     24          6           0       -1.999916    0.577575    6.344773
     25          1           0       -1.455404   -0.103852    7.010866
     26          1           0       -2.993042    0.138608    6.199730
     27          6           0        0.203999    1.005890    5.121877
     28          1           0        0.293793    2.055901    5.424391
     29          1           0        0.707233    0.400349    5.882246
     30          1           0        0.753629    0.878740    4.183265
     31          6           0       -2.149956    1.945961    7.018900
     32          1           0       -2.635413    1.832493    7.993684
     33          1           0       -1.180183    2.425088    7.195184
     34          1           0       -2.767166    2.626498    6.423272
     35          7           0       -0.581950    2.374391    2.153859
     36          1           0       -0.447811    3.173537    2.758323
     37          6           0        0.001228    2.392990    0.814563
     38          1           0       -0.722411    1.901190    0.156193
     39          6           0        1.295084    1.555584    0.797809
     40          6           0        0.234958    3.826889    0.358020
     41          1           0        0.579677    3.844189   -0.680899
     42          1           0       -0.699271    4.392224    0.406746
     43          1           0        0.984408    4.322095    0.984557
     44          8           0        2.432461    2.084145    0.782080
     45          7           0        1.120029    0.236407    0.831260
     46          1           0        0.167888   -0.136828    0.884386
     47          6           0        2.218996   -0.724019    0.916858
     48          1           0        2.985565   -0.310946    1.580930
     49          6           0        2.825989   -0.943704   -0.484641
     50          6           0        1.675710   -2.057907    1.475003
     51          1           0        2.501933   -2.781679    1.419290
     52          8           0        2.532148   -1.908507   -1.188963
     53          6           0        1.196151   -1.941414    2.914511
     54          1           0        1.989156   -1.564465    3.569019
     55          1           0        0.885643   -2.926779    3.271282
     56          1           0        0.331150   -1.275712    2.977288
     57          8           0        0.576640   -2.480630    0.688870
     58          1           0        0.943413   -2.656292   -0.199033
     59          7           0        3.710238    0.006682   -0.877356
     60          1           0        3.893722    0.791018   -0.262984
     61          6           0        4.405562   -0.078130   -2.142821
     62          1           0        4.712557   -1.114960   -2.310683
     63          6           0        5.606000    0.843690   -2.125031
     64          6           0        3.503708    0.332281   -3.351421
     65          1           0        3.103287    1.340533   -3.159235
     66          1           0        2.669395   -0.371563   -3.381548
     67          8           0        5.642856    1.877694   -1.431833
     68          8           0        4.197616    0.255313   -4.570695
     69          1           0        4.687206    1.095259   -4.692498
     70          7           0        6.593646    0.505977   -2.978752
     71          1           0        6.364740   -0.226633   -3.641627
     72          6           0        7.582476    1.484442   -3.380024
     73          1           0        8.155944    1.808769   -2.507618
     74          1           0        8.274183    1.011076   -4.082357
     75          6           0        6.904496    2.699938   -4.037365
     76          8           0        5.745861    2.647310   -4.461887
     77          7           0        7.649762    3.820548   -4.065793
     78          1           0        8.629264    3.806248   -3.802038
     79          6           0        7.141786    5.091846   -4.556845
     80          1           0        6.381865    4.882344   -5.313685
     81          6           0        8.309697    5.836785   -5.183527
     82          6           0        6.514321    5.951577   -3.424272
     83          1           0        7.312562    6.407786   -2.824556
     84          1           0        5.956146    6.769567   -3.892100
     85          8           0        9.469994    5.534235   -5.012433
     86          6           0        5.617467    5.105867   -2.518399
     87          1           0        4.935460    4.526812   -3.149923
     88          1           0        6.242779    4.370654   -2.000222
     89          6           0        4.817977    5.900862   -1.481288
     90          1           0        3.996444    6.445238   -1.965201
     91          1           0        5.446466    6.658137   -0.997851
     92          6           0        4.267859    4.998441   -0.375045
     93          1           0        5.063275    4.646516    0.286258
     94          1           0        3.513296    5.505299    0.230828
     95          7           0        3.632894    3.752216   -0.933282
     96          1           0        3.060261    3.237796   -0.210359
     97          1           0        4.361415    3.069885   -1.250144
     98          1           0        3.025080    3.967787   -1.727496
     99          8           0        7.893049    6.894224   -5.895367
    100          1           0        8.686374    7.351641   -6.236083
 ---------------------------------------------------------------------

 SCF Done:  E(RB3LYP) =  -2418.69200491     A.U. after    2 cycles

 Alpha  occ. eigenvalues --  -19.30313 -19.25780 -19.25246 -19.24827 -19.24401
 Alpha  occ. eigenvalues --  -19.23374 -19.22321 -19.22311 -19.21349 -19.19211
 Alpha  occ. eigenvalues --  -19.14490 -14.55362 -14.48897 -14.48155 -14.47608
 Alpha  occ. eigenvalues --  -14.47602 -14.46724 -14.43798 -14.39106 -14.38386
 Alpha  occ. eigenvalues --  -10.42899 -10.41901 -10.41441 -10.41237 -10.39269
 Alpha  occ. eigenvalues --  -10.39011 -10.37291 -10.35838 -10.35358 -10.35356
 Alpha  occ. eigenvalues --  -10.35159 -10.34142 -10.33631 -10.33271 -10.32606
 Alpha  occ. eigenvalues --  -10.32435 -10.31957 -10.31478 -10.30676 -10.30660
 Alpha  occ. eigenvalues --  -10.30315 -10.29730 -10.27216 -10.25664 -10.25244
 Alpha  occ. eigenvalues --  -10.25230 -10.24724 -10.23168  -1.21397  -1.17440
 Alpha  occ. eigenvalues --   -1.16394  -1.15801  -1.14345  -1.14219  -1.12594
 Alpha  occ. eigenvalues --   -1.11222  -1.11045  -1.10847  -1.09445  -1.06358
 Alpha  occ. eigenvalues --   -1.05407  -1.04863  -1.04355  -1.03625  -1.03006
 Alpha  occ. eigenvalues --   -1.00501  -0.96490  -0.93235  -0.93153  -0.90248
 Alpha  occ. eigenvalues --   -0.89883  -0.88742  -0.88042  -0.86379  -0.84518
 Alpha  occ. eigenvalues --   -0.82718  -0.82696  -0.80770  -0.80421  -0.78446
 Alpha  occ. eigenvalues --   -0.76933  -0.76606  -0.75397  -0.73637  -0.72412
 Alpha  occ. eigenvalues --   -0.72122  -0.71641  -0.71074  -0.70665  -0.70355
 Alpha  occ. eigenvalues --   -0.69412  -0.69332  -0.69024  -0.68142  -0.68064
 Alpha  occ. eigenvalues --   -0.66210  -0.65800  -0.64236  -0.63391  -0.63252
 Alpha  occ. eigenvalues --   -0.62521  -0.62420  -0.62085  -0.61608  -0.61141
 Alpha  occ. eigenvalues --   -0.60972  -0.59993  -0.59850  -0.59471  -0.59157
 Alpha  occ. eigenvalues --   -0.58428  -0.58327  -0.57965  -0.57694  -0.57213
 Alpha  occ. eigenvalues --   -0.57033  -0.56511  -0.56226  -0.55974  -0.55075
 Alpha  occ. eigenvalues --   -0.54656  -0.54482  -0.54329  -0.54016  -0.53763
 Alpha  occ. eigenvalues --   -0.53227  -0.52831  -0.52515  -0.52153  -0.51899
 Alpha  occ. eigenvalues --   -0.51624  -0.51588  -0.51463  -0.51026  -0.50555
 Alpha  occ. eigenvalues --   -0.50521  -0.50364  -0.50149  -0.49812  -0.49524
 Alpha  occ. eigenvalues --   -0.49148  -0.48531  -0.48330  -0.48031  -0.47938
 Alpha  occ. eigenvalues --   -0.47294  -0.47092  -0.46605  -0.46580  -0.46303
 Alpha  occ. eigenvalues --   -0.46142  -0.46008  -0.45687  -0.45244  -0.45193
 Alpha  occ. eigenvalues --   -0.44784  -0.44333  -0.43897  -0.43420  -0.42839
 Alpha  occ. eigenvalues --   -0.42726  -0.42413  -0.41339  -0.40640  -0.40550
 Alpha  occ. eigenvalues --   -0.40352  -0.39666  -0.39596  -0.39477  -0.39367
 Alpha  occ. eigenvalues --   -0.39184  -0.38716  -0.38247  -0.37553  -0.37397
 Alpha  occ. eigenvalues --   -0.36685  -0.36139  -0.35385  -0.34725  -0.34115
 Alpha  occ. eigenvalues --   -0.34041  -0.32912  -0.31628  -0.29932  -0.28335
 Alpha virt. eigenvalues --   -0.11672  -0.11233  -0.10203  -0.09563  -0.08905
 Alpha virt. eigenvalues --   -0.08447  -0.07848  -0.05018  -0.03545  -0.02995
 Alpha virt. eigenvalues --   -0.02253  -0.01981  -0.01547  -0.01289  -0.00821

 Mulliken charges:
               1
     1  N   -0.721671
     2  H    0.328271
     3  H    0.319211
     4  C   -0.093251
     5  H    0.159408
     6  C    0.599565
     7  C   -0.357386
     8  H    0.173483
     9  H    0.165754
    10  O   -0.525717
    11  C    0.577795
    12  N   -0.751692
    13  H    0.337632
    14  H    0.378037
    15  O   -0.512179
    16  N   -0.597176
    17  H    0.350903
    18  C   -0.060099
    19  H    0.179576
    20  C    0.638581
    21  C   -0.089092
    22  H    0.149050
    23  O   -0.546999
    24  C   -0.253047
    25  H    0.143377
    26  H    0.147269
    27  C   -0.474444
    28  H    0.144814
    29  H    0.167230
    30  H    0.139911
    31  C   -0.479275
    32  H    0.158031
    33  H    0.141195
    34  H    0.179200
    35  N   -0.596777
    36  H    0.348352
    37  C   -0.045718
    38  H    0.206881
    39  C    0.640263
    40  C   -0.489098
    41  H    0.144102
    42  H    0.197084
    43  H    0.161143
    44  O   -0.607750
    45  N   -0.591865
    46  H    0.411393
    47  C   -0.073303
    48  H    0.175120
    49  C    0.637892
    50  C    0.104341
    51  H    0.148045
    52  O   -0.528060
    53  C   -0.471242
    54  H    0.144074
    55  H    0.182070
    56  H    0.173153
    57  O   -0.632755
    58  H    0.425475
    59  N   -0.635507
    60  H    0.355413
    61  C   -0.056851
    62  H    0.202229
    63  C    0.617282
    64  C   -0.030281
    65  H    0.098695
    66  H    0.201687
    67  O   -0.583987
    68  O   -0.639632
    69  H    0.437099
    70  N   -0.554321
    71  H    0.368359
    72  C   -0.256354
    73  H    0.207756
    74  H    0.216013
    75  C    0.645564
    76  O   -0.549158
    77  N   -0.598590
    78  H    0.362478
    79  C   -0.048443
    80  H    0.214255
    81  C    0.590275
    82  C   -0.274930
    83  H    0.161144
    84  H    0.179642
    85  O   -0.455082
    86  C   -0.303972
    87  H    0.159684
    88  H    0.168936
    89  C   -0.288612
    90  H    0.164967
    91  H    0.183024
    92  C   -0.184194
    93  H    0.212377
    94  H    0.198198
    95  N   -0.828258
    96  H    0.454337
    97  H    0.447446
    98  H    0.384076
    99  O   -0.555638
   100  H    0.433787
 Sum of Mulliken charges =   1.00000

 Dipole moment (field-independent basis, Debye):
    X=             20.9709    Y=             18.9269    Z=             -0.7370  Tot=             28.2587
 Quadrupole moment (field-independent basis, Debye-Ang):
   XX=           -131.3557   YY=           -188.9002   ZZ=           -228.7443
   XY=             80.2396   XZ=            -86.8937   YZ=            -41.0635

 Normal termination of Gaussian 16 at Thu Jul 21 23:50:21 2022.
