 Gaussian 16, Revision C.01,
 Gaussian 16:  ES64L-G16RevC.01  3-Jul-2019

 ----------------------------------------------------------------------
 # B3LYP/6-31G* empiricaldispersion=gd3bj guess=read geom=check nosymm
 integral(ultrafinegrid)
 ----------------------------------------------------------------------

 ------------------------------------------------------
 Candidate Structure: Conf:841 Charge calc in gas phase
 ------------------------------------------------------
 Structure from the checkpoint file:  "conf-841.chk"
 Charge =  1 Multiplicity = 1

                          Input orientation:
 ---------------------------------------------------------------------
 Center     Atomic      Atomic             Coordinates (Angstroms)
 Number     Number       Type             X           Y           Z
 ---------------------------------------------------------------------
      1          7           0       -5.073560    5.621607    4.428622
      2          1           0       -4.257257    6.235517    4.409623
      3          1           0       -5.219526    5.401096    5.413310
      4          6           0       -4.705963    4.406181    3.716531
      5          1           0       -5.444674    3.629290    3.950943
      6          6           0       -3.295750    3.898173    4.060217
      7          6           0       -4.745696    4.695621    2.188709
      8          1           0       -5.772055    4.966278    1.921815
      9          1           0       -4.093001    5.546563    1.980424
     10          8           0       -2.389074    4.678998    4.327448
     11          6           0       -4.230590    3.514938    1.378803
     12          7           0       -5.109539    2.484080    1.210758
     13          1           0       -4.711577    1.578053    0.991271
     14          1           0       -6.017343    2.499952    1.652927
     15          8           0       -3.076632    3.463669    0.960650
     16          7           0       -3.124996    2.543700    3.984245
     17          1           0       -3.885261    1.989949    3.602105
     18          6           0       -1.816148    1.987567    3.678124
     19          1           0       -1.164267    2.834008    3.439578
     20          6           0       -1.980781    1.108000    2.434505
     21          6           0       -1.186362    1.202371    4.858124
     22          1           0       -0.223700    0.815272    4.488602
     23          8           0       -3.042972    0.538723    2.171102
     24          6           0       -2.052747    0.001801    5.275911
     25          1           0       -2.296887   -0.595187    4.389876
     26          1           0       -3.008660    0.379927    5.661253
     27          6           0       -0.912621    2.162473    6.021653
     28          1           0       -1.853836    2.536734    6.437285
     29          1           0       -0.359365    1.664692    6.823914
     30          1           0       -0.337385    3.033217    5.691276
     31          6           0       -1.396166   -0.902580    6.322279
     32          1           0       -2.022623   -1.777211    6.526797
     33          1           0       -0.421531   -1.267209    5.973394
     34          1           0       -1.237425   -0.383599    7.273227
     35          7           0       -0.859741    0.954138    1.693705
     36          1           0       -0.053079    1.540119    1.864841
     37          6           0       -0.870015    0.249402    0.426366
     38          1           0       -1.591007   -0.566996    0.515314
     39          6           0        0.536848   -0.273054    0.182930
     40          6           0       -1.257603    1.176262   -0.745278
     41          1           0       -1.402233    0.598428   -1.665031
     42          1           0       -2.176463    1.709563   -0.491682
     43          1           0       -0.469381    1.917465   -0.915228
     44          8           0        1.510768    0.421680    0.535399
     45          7           0        0.653213   -1.419014   -0.497503
     46          1           0       -0.174743   -1.912038   -0.816486
     47          6           0        1.916227   -1.969513   -0.975777
     48          1           0        2.704895   -1.702619   -0.264705
     49          6           0        2.278274   -1.372422   -2.349199
     50          6           0        1.791107   -3.497666   -1.077682
     51          1           0        2.725858   -3.870519   -1.510386
     52          8           0        2.652771   -2.080746   -3.292955
     53          6           0        1.549611   -4.154104    0.271781
     54          1           0        2.375867   -3.934605    0.955764
     55          1           0        1.473437   -5.236850    0.143941
     56          1           0        0.619226   -3.797714    0.725209
     57          8           0        0.689195   -3.808399   -1.932374
     58          1           0        0.998725   -3.627786   -2.836964
     59          7           0        2.153466   -0.033309   -2.450923
     60          1           0        1.971178    0.545753   -1.636511
     61          6           0        2.437309    0.703651   -3.676213
     62          1           0        2.112192    0.099383   -4.528401
     63          6           0        3.953653    0.941625   -3.742757
     64          6           0        1.677288    2.032847   -3.611400
     65          1           0        0.602495    1.837724   -3.650893
     66          1           0        1.952529    2.655468   -4.472145
     67          8           0        4.452171    2.031361   -3.413846
     68          8           0        1.931429    2.687090   -2.379104
     69          1           0        2.885737    2.892061   -2.401224
     70          7           0        4.685910   -0.128994   -4.107979
     71          1           0        4.194984   -1.020576   -4.170724
     72          6           0        6.145168   -0.129769   -4.034433
     73          1           0        6.532479   -0.924281   -4.671337
     74          1           0        6.505400    0.837954   -4.394177
     75          6           0        6.627523   -0.392322   -2.598797
     76          8           0        7.203698   -1.416711   -2.273238
     77          7           0        6.318232    0.624380   -1.726583
     78          1           0        5.737767    1.381879   -2.085036
     79          6           0        6.346279    0.404278   -0.290860
     80          1           0        7.000039   -0.451325   -0.113834
     81          6           0        4.942865   -0.005931    0.165265
     82          6           0        6.850994    1.654801    0.438040
     83          1           0        7.870610    1.862406    0.093493
     84          1           0        6.225799    2.508610    0.150777
     85          8           0        4.649281   -1.128415    0.525516
     86          6           0        6.820562    1.492299    1.961176
     87          1           0        5.796408    1.267572    2.283928
     88          1           0        7.444400    0.639794    2.259066
     89          6           0        7.301041    2.762141    2.679188
     90          1           0        6.679193    3.611753    2.365063
     91          1           0        8.335680    2.985752    2.385336
     92          6           0        7.215478    2.592783    4.187889
     93          1           0        6.194958    2.402883    4.528223
     94          1           0        7.868127    1.799412    4.559281
     95          7           0        7.662600    3.872847    4.900000
     96          1           0        7.614167    3.787373    5.922709
     97          1           0        7.073792    4.668531    4.624063
     98          1           0        8.630358    4.111799    4.650907
     99          8           0        4.076722    1.013285    0.079031
    100          1           0        3.159341    0.695615    0.313578
 ---------------------------------------------------------------------

 SCF Done:  E(RB3LYP) =  -2418.64762862     A.U. after    2 cycles

 Alpha  occ. eigenvalues --  -19.26255 -19.22016 -19.21771 -19.21423 -19.21127
 Alpha  occ. eigenvalues --  -19.21024 -19.20855 -19.18823 -19.18263 -19.16758
 Alpha  occ. eigenvalues --  -19.16558 -14.66070 -14.45635 -14.44683 -14.44619
 Alpha  occ. eigenvalues --  -14.43042 -14.42760 -14.40716 -14.40656 -14.36308
 Alpha  occ. eigenvalues --  -10.42981 -10.39614 -10.38355 -10.37594 -10.37528
 Alpha  occ. eigenvalues --  -10.35980 -10.35550 -10.35238 -10.34076 -10.33236
 Alpha  occ. eigenvalues --  -10.31947 -10.31772 -10.31498 -10.30913 -10.30846
 Alpha  occ. eigenvalues --  -10.30665 -10.30634 -10.30324 -10.29571 -10.28466
 Alpha  occ. eigenvalues --  -10.28164 -10.25006 -10.24447 -10.24155 -10.23722
 Alpha  occ. eigenvalues --  -10.23013 -10.22528 -10.22487  -1.19956  -1.17739
 Alpha  occ. eigenvalues --   -1.13678  -1.13092  -1.12172  -1.10685  -1.10282
 Alpha  occ. eigenvalues --   -1.08940  -1.08900  -1.08568  -1.08510  -1.08039
 Alpha  occ. eigenvalues --   -1.02288  -1.01295  -1.00535  -0.99885  -0.99544
 Alpha  occ. eigenvalues --   -0.97679  -0.96690  -0.95522  -0.93886  -0.89816
 Alpha  occ. eigenvalues --   -0.87158  -0.86346  -0.84906  -0.83861  -0.83072
 Alpha  occ. eigenvalues --   -0.81278  -0.80652  -0.78968  -0.78812  -0.78534
 Alpha  occ. eigenvalues --   -0.78021  -0.75859  -0.75843  -0.72773  -0.72448
 Alpha  occ. eigenvalues --   -0.71976  -0.70500  -0.69631  -0.68801  -0.68485
 Alpha  occ. eigenvalues --   -0.67758  -0.67434  -0.66796  -0.66047  -0.65479
 Alpha  occ. eigenvalues --   -0.65317  -0.64238  -0.64059  -0.63291  -0.62600
 Alpha  occ. eigenvalues --   -0.61430  -0.61039  -0.60462  -0.59707  -0.59008
 Alpha  occ. eigenvalues --   -0.58824  -0.58389  -0.57825  -0.57650  -0.57016
 Alpha  occ. eigenvalues --   -0.56837  -0.56381  -0.55669  -0.55334  -0.54814
 Alpha  occ. eigenvalues --   -0.54596  -0.53993  -0.53533  -0.53410  -0.53030
 Alpha  occ. eigenvalues --   -0.52711  -0.52533  -0.51945  -0.51401  -0.51204
 Alpha  occ. eigenvalues --   -0.50865  -0.50604  -0.50395  -0.50149  -0.49735
 Alpha  occ. eigenvalues --   -0.49664  -0.49123  -0.48841  -0.48703  -0.48511
 Alpha  occ. eigenvalues --   -0.47947  -0.47731  -0.47344  -0.47200  -0.46973
 Alpha  occ. eigenvalues --   -0.46411  -0.46148  -0.46079  -0.45882  -0.45752
 Alpha  occ. eigenvalues --   -0.45400  -0.45088  -0.44577  -0.44426  -0.44343
 Alpha  occ. eigenvalues --   -0.44091  -0.43953  -0.43677  -0.43423  -0.43121
 Alpha  occ. eigenvalues --   -0.43030  -0.42829  -0.41986  -0.41802  -0.41219
 Alpha  occ. eigenvalues --   -0.41077  -0.39961  -0.39757  -0.39466  -0.38459
 Alpha  occ. eigenvalues --   -0.38045  -0.37481  -0.37175  -0.36791  -0.36563
 Alpha  occ. eigenvalues --   -0.36063  -0.35803  -0.34867  -0.34401  -0.33162
 Alpha  occ. eigenvalues --   -0.32995  -0.32552  -0.32304  -0.32177  -0.31825
 Alpha  occ. eigenvalues --   -0.31452  -0.31440  -0.30385  -0.29849  -0.28523
 Alpha virt. eigenvalues --   -0.16361  -0.09668  -0.09657  -0.08489  -0.08258
 Alpha virt. eigenvalues --   -0.07453  -0.07054  -0.05667  -0.04441  -0.04359
 Alpha virt. eigenvalues --   -0.03948  -0.03333  -0.02587  -0.02562  -0.01530

 Mulliken charges:
               1
     1  N   -0.694044
     2  H    0.316120
     3  H    0.304086
     4  C   -0.087705
     5  H    0.133810
     6  C    0.589335
     7  C   -0.331940
     8  H    0.172546
     9  H    0.183544
    10  O   -0.529695
    11  C    0.568516
    12  N   -0.739013
    13  H    0.368753
    14  H    0.335990
    15  O   -0.517891
    16  N   -0.592275
    17  H    0.341893
    18  C   -0.064624
    19  H    0.171915
    20  C    0.666159
    21  C   -0.065938
    22  H    0.109758
    23  O   -0.573011
    24  C   -0.267075
    25  H    0.152023
    26  H    0.142543
    27  C   -0.450229
    28  H    0.163395
    29  H    0.139256
    30  H    0.147136
    31  C   -0.449788
    32  H    0.153042
    33  H    0.134030
    34  H    0.148812
    35  N   -0.601026
    36  H    0.346302
    37  C   -0.053565
    38  H    0.181452
    39  C    0.643282
    40  C   -0.476502
    41  H    0.140976
    42  H    0.216843
    43  H    0.182394
    44  O   -0.596523
    45  N   -0.582152
    46  H    0.361359
    47  C   -0.120780
    48  H    0.236682
    49  C    0.632886
    50  C    0.102992
    51  H    0.165567
    52  O   -0.559223
    53  C   -0.451214
    54  H    0.159538
    55  H    0.175626
    56  H    0.149747
    57  O   -0.642395
    58  H    0.414708
    59  N   -0.619179
    60  H    0.378005
    61  C   -0.089332
    62  H    0.188375
    63  C    0.629063
    64  C   -0.051941
    65  H    0.166019
    66  H    0.160486
    67  O   -0.568305
    68  O   -0.632827
    69  H    0.418879
    70  N   -0.587462
    71  H    0.385998
    72  C   -0.244927
    73  H    0.198982
    74  H    0.199697
    75  C    0.586540
    76  O   -0.483533
    77  N   -0.627121
    78  H    0.376052
    79  C   -0.025318
    80  H    0.202168
    81  C    0.568577
    82  C   -0.279326
    83  H    0.163951
    84  H    0.165192
    85  O   -0.465310
    86  C   -0.285622
    87  H    0.173676
    88  H    0.169042
    89  C   -0.292628
    90  H    0.173880
    91  H    0.172699
    92  C   -0.208113
    93  H    0.234055
    94  H    0.233237
    95  N   -0.731403
    96  H    0.434018
    97  H    0.429925
    98  H    0.429107
    99  O   -0.618932
   100  H    0.467253
 Sum of Mulliken charges =   1.00000

 Dipole moment (field-independent basis, Debye):
    X=             29.7180    Y=             14.6593    Z=             18.2184  Tot=             37.8149
 Quadrupole moment (field-independent basis, Debye-Ang):
   XX=            -15.7576   YY=           -246.6705   ZZ=           -156.4601
   XY=            136.4590   XZ=            146.0579   YZ=             72.3778

 Normal termination of Gaussian 16 at Thu Jul 21 23:50:23 2022.
