 Gaussian 16, Revision C.01,
 Gaussian 16:  ES64L-G16RevC.01  3-Jul-2019

 ----------------------------------------------------------------------
 # B3LYP/6-31G* empiricaldispersion=gd3bj guess=read geom=check nosymm
 integral(ultrafinegrid)
 ----------------------------------------------------------------------

 ------------------------------------------------------
 Candidate Structure: Conf:448 Charge calc in gas phase
 ------------------------------------------------------
 Structure from the checkpoint file:  "conf-448.chk"
 Charge =  1 Multiplicity = 1

                          Input orientation:
 ---------------------------------------------------------------------
 Center     Atomic      Atomic             Coordinates (Angstroms)
 Number     Number       Type             X           Y           Z
 ---------------------------------------------------------------------
      1          7           0       -0.360342    6.109769    1.374951
      2          1           0        0.361901    5.610042    0.859492
      3          1           0       -0.062564    6.134555    2.348469
      4          6           0       -1.606155    5.377254    1.259966
      5          1           0       -2.387156    5.937480    1.788575
      6          6           0       -1.544993    3.944518    1.820207
      7          6           0       -2.035067    5.292746   -0.234785
      8          1           0       -3.074367    4.959564   -0.309043
      9          1           0       -1.946224    6.296542   -0.655849
     10          8           0       -0.490882    3.293684    1.793499
     11          6           0       -1.120172    4.350155   -0.991939
     12          7           0       -1.599314    3.125706   -1.265529
     13          1           0       -0.901439    2.400025   -1.408890
     14          1           0       -2.463858    2.794410   -0.837198
     15          8           0        0.036431    4.710293   -1.292326
     16          7           0       -2.698458    3.428251    2.288757
     17          1           0       -3.550597    3.962715    2.183083
     18          6           0       -2.824833    2.021086    2.642966
     19          1           0       -1.957563    1.762234    3.256218
     20          6           0       -2.828404    1.180647    1.350097
     21          6           0       -4.125125    1.789994    3.445043
     22          1           0       -4.953541    2.079555    2.782187
     23          8           0       -3.502444    1.550268    0.382828
     24          6           0       -4.190545    2.684575    4.702211
     25          1           0       -5.149119    2.482957    5.195648
     26          1           0       -4.224646    3.739722    4.403559
     27          6           0       -4.306255    0.305398    3.789702
     28          1           0       -3.447108   -0.091902    4.341522
     29          1           0       -5.193476    0.173835    4.416628
     30          1           0       -4.439492   -0.306024    2.892911
     31          6           0       -3.049654    2.490369    5.705241
     32          1           0       -3.206840    3.121470    6.585496
     33          1           0       -2.983042    1.454346    6.053194
     34          1           0       -2.079172    2.766286    5.277150
     35          7           0       -2.082039    0.060535    1.424698
     36          1           0       -1.439136   -0.024088    2.206606
     37          6           0       -1.891342   -1.012616    0.451572
     38          1           0       -2.570109   -1.839862    0.708980
     39          6           0       -0.442958   -1.501247    0.678817
     40          6           0       -2.135324   -0.614639   -1.009328
     41          1           0       -2.087786   -1.500352   -1.649930
     42          1           0       -3.119085   -0.162837   -1.119515
     43          1           0       -1.373780    0.095124   -1.337839
     44          8           0        0.216238   -1.103683    1.646873
     45          7           0        0.072551   -2.326109   -0.253824
     46          1           0       -0.533690   -2.770995   -0.928724
     47          6           0        1.456548   -2.805139   -0.194298
     48          1           0        1.724479   -2.914044    0.862126
     49          6           0        2.336665   -1.720748   -0.854380
     50          6           0        1.586751   -4.149845   -0.917918
     51          1           0        1.531974   -3.960544   -1.999386
     52          8           0        2.911380   -1.893905   -1.930408
     53          6           0        2.912497   -4.829878   -0.594424
     54          1           0        3.754505   -4.210551   -0.915472
     55          1           0        2.986254   -5.787192   -1.122712
     56          1           0        2.990745   -5.024036    0.480506
     57          8           0        0.463153   -4.921199   -0.492354
     58          1           0        0.532673   -5.794895   -0.907489
     59          7           0        2.359717   -0.533512   -0.191872
     60          1           0        1.791697   -0.505728    0.655784
     61          6           0        2.437092    0.745562   -0.902127
     62          1           0        1.875663    0.649712   -1.845687
     63          6           0        3.830039    1.221017   -1.325991
     64          6           0        1.733655    1.787611   -0.036215
     65          1           0        1.898458    2.793150   -0.426502
     66          1           0        2.155656    1.762214    0.978052
     67          8           0        4.062152    2.440322   -1.444216
     68          8           0        0.357778    1.452241   -0.028377
     69          1           0       -0.051832    1.955450    0.709341
     70          7           0        4.733661    0.277222   -1.619995
     71          1           0        4.358443   -0.661219   -1.776134
     72          6           0        5.978600    0.650049   -2.260595
     73          1           0        6.558377    1.293912   -1.592176
     74          1           0        6.555861   -0.261646   -2.438128
     75          6           0        5.718370    1.366288   -3.598610
     76          8           0        4.679287    1.193798   -4.224772
     77          7           0        6.717411    2.195305   -4.001586
     78          1           0        7.549628    2.299486   -3.437668
     79          6           0        6.599885    3.007642   -5.203285
     80          1           0        5.900712    2.484969   -5.861285
     81          6           0        7.914002    3.144372   -5.953823
     82          6           0        6.030456    4.424896   -4.921591
     83          1           0        6.800497    5.055104   -4.457668
     84          1           0        5.786824    4.878369   -5.888277
     85          8           0        8.001151    3.627129   -7.056539
     86          6           0        4.806597    4.333243   -4.009508
     87          1           0        4.188166    3.503756   -4.366971
     88          1           0        5.136198    4.040954   -3.007339
     89          6           0        3.952193    5.599827   -3.914551
     90          1           0        3.436156    5.782370   -4.866531
     91          1           0        4.571734    6.484422   -3.724829
     92          6           0        2.930246    5.506109   -2.778000
     93          1           0        3.408992    5.606717   -1.801069
     94          1           0        2.144880    6.260363   -2.856269
     95          7           0        2.248856    4.159142   -2.746879
     96          1           0        1.357272    4.217500   -2.185461
     97          1           0        2.885711    3.448657   -2.313695
     98          1           0        2.010773    3.843611   -3.690747
     99          8           0        8.980362    2.728213   -5.229554
    100          1           0        9.771827    2.890210   -5.778193
 ---------------------------------------------------------------------

 SCF Done:  E(RB3LYP) =  -2418.69932996     A.U. after    1 cycles

 Alpha  occ. eigenvalues --  -19.28267 -19.23784 -19.23193 -19.22988 -19.22976
 Alpha  occ. eigenvalues --  -19.22543 -19.22322 -19.22285 -19.21958 -19.20920
 Alpha  occ. eigenvalues --  -19.20330 -14.52949 -14.46498 -14.46465 -14.45658
 Alpha  occ. eigenvalues --  -14.45470 -14.45192 -14.45163 -14.44644 -14.39777
 Alpha  occ. eigenvalues --  -10.40367 -10.39763 -10.39442 -10.39188 -10.38949
 Alpha  occ. eigenvalues --  -10.38657 -10.38257 -10.37903 -10.34707 -10.33754
 Alpha  occ. eigenvalues --  -10.33667 -10.33136 -10.32916 -10.32798 -10.32579
 Alpha  occ. eigenvalues --  -10.32556 -10.32487 -10.32397 -10.29486 -10.29415
 Alpha  occ. eigenvalues --  -10.28324 -10.28042 -10.27532 -10.27089 -10.26234
 Alpha  occ. eigenvalues --  -10.25681 -10.25560 -10.24787  -1.18923  -1.14956
 Alpha  occ. eigenvalues --   -1.14478  -1.14367  -1.13750  -1.13683  -1.12433
 Alpha  occ. eigenvalues --   -1.12287  -1.11348  -1.10749  -1.09899  -1.08334
 Alpha  occ. eigenvalues --   -1.03124  -1.02851  -1.02603  -1.02007  -1.01797
 Alpha  occ. eigenvalues --   -1.01490  -1.00387  -0.97860  -0.90474  -0.90255
 Alpha  occ. eigenvalues --   -0.88766  -0.87176  -0.86359  -0.85737  -0.85377
 Alpha  occ. eigenvalues --   -0.82679  -0.81983  -0.80262  -0.79457  -0.79180
 Alpha  occ. eigenvalues --   -0.76301  -0.74762  -0.74121  -0.73777  -0.72321
 Alpha  occ. eigenvalues --   -0.71622  -0.69913  -0.69660  -0.69416  -0.68632
 Alpha  occ. eigenvalues --   -0.68259  -0.68062  -0.67864  -0.67382  -0.66600
 Alpha  occ. eigenvalues --   -0.66375  -0.65536  -0.64624  -0.63922  -0.63912
 Alpha  occ. eigenvalues --   -0.62857  -0.62236  -0.61760  -0.60992  -0.60448
 Alpha  occ. eigenvalues --   -0.60002  -0.59337  -0.59307  -0.58791  -0.58599
 Alpha  occ. eigenvalues --   -0.57869  -0.57602  -0.57274  -0.56887  -0.56302
 Alpha  occ. eigenvalues --   -0.56108  -0.55691  -0.55472  -0.55068  -0.54518
 Alpha  occ. eigenvalues --   -0.54325  -0.53631  -0.53466  -0.53275  -0.52979
 Alpha  occ. eigenvalues --   -0.52509  -0.51978  -0.51917  -0.51684  -0.51367
 Alpha  occ. eigenvalues --   -0.51286  -0.50860  -0.50542  -0.50241  -0.50065
 Alpha  occ. eigenvalues --   -0.49874  -0.49640  -0.49583  -0.49170  -0.48827
 Alpha  occ. eigenvalues --   -0.48385  -0.48282  -0.48059  -0.47942  -0.47572
 Alpha  occ. eigenvalues --   -0.47424  -0.47268  -0.46739  -0.46573  -0.46322
 Alpha  occ. eigenvalues --   -0.46265  -0.45941  -0.45823  -0.45691  -0.45146
 Alpha  occ. eigenvalues --   -0.44843  -0.44669  -0.44218  -0.43963  -0.43342
 Alpha  occ. eigenvalues --   -0.42915  -0.42590  -0.41681  -0.40853  -0.40662
 Alpha  occ. eigenvalues --   -0.40536  -0.39965  -0.39258  -0.38107  -0.37943
 Alpha  occ. eigenvalues --   -0.37186  -0.36983  -0.36814  -0.36572  -0.36458
 Alpha  occ. eigenvalues --   -0.36246  -0.35884  -0.35773  -0.34829  -0.34792
 Alpha  occ. eigenvalues --   -0.34271  -0.34185  -0.33841  -0.33425  -0.32457
 Alpha virt. eigenvalues --   -0.09861  -0.09184  -0.09080  -0.08420  -0.07646
 Alpha virt. eigenvalues --   -0.07341  -0.06925  -0.06607  -0.05038  -0.02691
 Alpha virt. eigenvalues --   -0.01608  -0.01285  -0.00610  -0.00198  -0.00039

 Mulliken charges:
               1
     1  N   -0.689387
     2  H    0.322715
     3  H    0.312140
     4  C   -0.093991
     5  H    0.163207
     6  C    0.612107
     7  C   -0.340422
     8  H    0.168316
     9  H    0.207047
    10  O   -0.573522
    11  C    0.583822
    12  N   -0.752364
    13  H    0.360843
    14  H    0.393820
    15  O   -0.572054
    16  N   -0.588738
    17  H    0.346644
    18  C   -0.035485
    19  H    0.171590
    20  C    0.621190
    21  C   -0.117977
    22  H    0.148953
    23  O   -0.568952
    24  C   -0.255272
    25  H    0.155963
    26  H    0.128314
    27  C   -0.468073
    28  H    0.152020
    29  H    0.167958
    30  H    0.161669
    31  C   -0.460741
    32  H    0.164770
    33  H    0.158241
    34  H    0.149204
    35  N   -0.607597
    36  H    0.365996
    37  C   -0.022240
    38  H    0.192009
    39  C    0.650875
    40  C   -0.478511
    41  H    0.144931
    42  H    0.210725
    43  H    0.168800
    44  O   -0.560972
    45  N   -0.605280
    46  H    0.358936
    47  C   -0.066518
    48  H    0.200892
    49  C    0.626652
    50  C    0.123384
    51  H    0.151792
    52  O   -0.532324
    53  C   -0.479142
    54  H    0.172311
    55  H    0.158028
    56  H    0.166078
    57  O   -0.640664
    58  H    0.407824
    59  N   -0.626929
    60  H    0.399359
    61  C   -0.075422
    62  H    0.187367
    63  C    0.657241
    64  C   -0.069772
    65  H    0.137396
    66  H    0.165677
    67  O   -0.578933
    68  O   -0.683781
    69  H    0.464800
    70  N   -0.575352
    71  H    0.395159
    72  C   -0.248562
    73  H    0.186357
    74  H    0.201939
    75  C    0.640867
    76  O   -0.528449
    77  N   -0.604950
    78  H    0.348264
    79  C   -0.062771
    80  H    0.216556
    81  C    0.594283
    82  C   -0.270477
    83  H    0.152044
    84  H    0.178672
    85  O   -0.443893
    86  C   -0.306594
    87  H    0.159020
    88  H    0.173820
    89  C   -0.289447
    90  H    0.161534
    91  H    0.177233
    92  C   -0.180735
    93  H    0.204703
    94  H    0.206475
    95  N   -0.826300
    96  H    0.442566
    97  H    0.446704
    98  H    0.385718
    99  O   -0.578477
   100  H    0.427550
 Sum of Mulliken charges =   1.00000

 Dipole moment (field-independent basis, Debye):
    X=              6.6842    Y=              8.6970    Z=             -3.1991  Tot=             11.4258
 Quadrupole moment (field-independent basis, Debye-Ang):
   XX=           -174.3297   YY=           -196.7099   ZZ=           -256.0076
   XY=             14.0954   XZ=            -47.4998   YZ=             -9.8507

 Normal termination of Gaussian 16 at Thu Jul 21 23:50:07 2022.
