 Gaussian 16, Revision C.01,
 Gaussian 16:  ES64L-G16RevC.01  3-Jul-2019

 ----------------------------------------------------------------------
 # B3LYP/6-31G* empiricaldispersion=gd3bj guess=read geom=check nosymm
 integral(ultrafinegrid)
 ----------------------------------------------------------------------

 ------------------------------------------------------
 Candidate Structure: Conf:137 Charge calc in gas phase
 ------------------------------------------------------
 Structure from the checkpoint file:  "conf-137.chk"
 Charge =  1 Multiplicity = 1

                          Input orientation:
 ---------------------------------------------------------------------
 Center     Atomic      Atomic             Coordinates (Angstroms)
 Number     Number       Type             X           Y           Z
 ---------------------------------------------------------------------
      1          7           0       -6.971327   -1.529000    4.794869
      2          1           0       -7.578087   -1.173011    4.057016
      3          1           0       -6.905525   -0.802556    5.505144
      4          6           0       -5.659773   -1.838320    4.237746
      5          1           0       -4.982039   -2.079622    5.064950
      6          6           0       -5.083800   -0.685296    3.404503
      7          6           0       -5.791719   -3.084338    3.333255
      8          1           0       -6.072569   -3.935467    3.955465
      9          1           0       -6.582105   -2.901628    2.600149
     10          8           0       -5.571696   -0.368936    2.317805
     11          6           0       -4.473734   -3.379070    2.648614
     12          7           0       -4.345110   -2.911498    1.388913
     13          1           0       -3.447436   -2.968135    0.926672
     14          1           0       -5.001893   -2.218988    1.049044
     15          8           0       -3.556413   -3.965933    3.247139
     16          7           0       -3.992395   -0.043220    3.904432
     17          1           0       -3.695326   -0.222536    4.853700
     18          6           0       -3.451989    1.115644    3.207822
     19          1           0       -4.285396    1.790580    2.990966
     20          6           0       -2.844420    0.671636    1.875298
     21          6           0       -2.422279    1.868680    4.091310
     22          1           0       -2.975428    2.113869    5.010685
     23          8           0       -2.101341   -0.328459    1.780956
     24          6           0       -1.968781    3.195215    3.450600
     25          1           0       -1.439146    2.997001    2.511324
     26          1           0       -1.226814    3.637056    4.126119
     27          6           0       -1.200338    1.020767    4.475720
     28          1           0       -0.537787    0.849198    3.623130
     29          1           0       -0.620254    1.545434    5.240642
     30          1           0       -1.480106    0.047284    4.900173
     31          6           0       -3.084835    4.218545    3.220968
     32          1           0       -2.664993    5.167417    2.874467
     33          1           0       -3.811083    3.899485    2.462410
     34          1           0       -3.645220    4.416991    4.142296
     35          7           0       -3.108884    1.446877    0.818929
     36          1           0       -3.682821    2.268443    0.952755
     37          6           0       -2.441082    1.283674   -0.470390
     38          1           0       -2.625484    0.261143   -0.817369
     39          6           0       -0.930813    1.512132   -0.260449
     40          6           0       -2.996528    2.299744   -1.466190
     41          1           0       -2.531210    2.159248   -2.445479
     42          1           0       -4.078866    2.183244   -1.580226
     43          1           0       -2.770733    3.315308   -1.125928
     44          8           0       -0.524441    2.497203    0.343292
     45          7           0       -0.131820    0.541310   -0.764141
     46          1           0       -0.500346   -0.213171   -1.332937
     47          6           0        1.313877    0.548588   -0.628953
     48          1           0        1.641733    1.583480   -0.500866
     49          6           0        1.868688   -0.112157   -1.891172
     50          6           0        1.738820   -0.293802    0.614109
     51          1           0        1.594808   -1.350484    0.343876
     52          8           0        1.201689   -1.000298   -2.443637
     53          6           0        3.187523   -0.073592    1.009770
     54          1           0        3.858881   -0.426408    0.225228
     55          1           0        3.407273   -0.643125    1.917333
     56          1           0        3.370790    0.986009    1.219497
     57          8           0        0.924329    0.035989    1.737748
     58          1           0       -0.007085    0.011628    1.452685
     59          7           0        3.089781    0.273743   -2.289742
     60          1           0        3.471354    1.136338   -1.920745
     61          6           0        3.745434   -0.232140   -3.501116
     62          1           0        2.995359   -0.266393   -4.299697
     63          6           0        4.319183   -1.650177   -3.267081
     64          6           0        4.878353    0.721642   -3.868722
     65          1           0        5.231172    0.474446   -4.877694
     66          1           0        5.713095    0.566347   -3.174871
     67          8           0        5.519534   -1.850282   -3.149063
     68          8           0        4.358211    2.045728   -3.787491
     69          1           0        5.085242    2.662602   -3.959513
     70          7           0        3.373814   -2.634289   -3.239561
     71          1           0        2.413297   -2.314827   -3.120979
     72          6           0        3.722222   -3.922707   -2.698846
     73          1           0        3.072783   -4.696773   -3.121631
     74          1           0        4.753771   -4.144546   -2.990533
     75          6           0        3.646474   -3.933384   -1.163997
     76          8           0        3.605513   -2.901466   -0.502841
     77          7           0        3.630925   -5.177426   -0.604480
     78          1           0        3.795225   -5.976788   -1.202372
     79          6           0        3.843678   -5.372290    0.824433
     80          1           0        4.396663   -4.497331    1.187893
     81          6           0        4.715829   -6.587823    1.116613
     82          6           0        2.538711   -5.476512    1.643537
     83          1           0        1.961978   -6.346112    1.302921
     84          1           0        2.825075   -5.665267    2.683569
     85          8           0        4.985612   -6.957647    2.233858
     86          6           0        1.704080   -4.201997    1.534898
     87          1           0        2.352155   -3.336682    1.709605
     88          1           0        1.340371   -4.093960    0.506076
     89          6           0        0.515439   -4.132160    2.502271
     90          1           0        0.878090   -4.174050    3.538734
     91          1           0       -0.165284   -4.981812    2.363801
     92          6           0       -0.203464   -2.815160    2.252910
     93          1           0        0.482897   -1.967826    2.295524
     94          1           0       -0.680094   -2.802828    1.268318
     95          7           0       -1.293644   -2.504283    3.236223
     96          1           0       -1.712969   -1.585062    2.960302
     97          1           0       -0.921979   -2.436790    4.186305
     98          1           0       -2.072287   -3.215419    3.226680
     99          8           0        5.143913   -7.220089   -0.001461
    100          1           0        5.685424   -7.977300    0.293257
 ---------------------------------------------------------------------

 SCF Done:  E(RB3LYP) =  -2418.68969768     A.U. after    2 cycles

 Alpha  occ. eigenvalues --  -19.28449 -19.25259 -19.23894 -19.23274 -19.23021
 Alpha  occ. eigenvalues --  -19.22688 -19.22103 -19.21646 -19.20940 -19.20102
 Alpha  occ. eigenvalues --  -19.18602 -14.53521 -14.48470 -14.48239 -14.47304
 Alpha  occ. eigenvalues --  -14.45802 -14.45561 -14.44511 -14.42225 -14.42042
 Alpha  occ. eigenvalues --  -10.41386 -10.40982 -10.40545 -10.39656 -10.38427
 Alpha  occ. eigenvalues --  -10.38369 -10.37031 -10.35705 -10.34773 -10.34396
 Alpha  occ. eigenvalues --  -10.34307 -10.33791 -10.32481 -10.32476 -10.32280
 Alpha  occ. eigenvalues --  -10.31322 -10.30929 -10.30437 -10.30391 -10.29725
 Alpha  occ. eigenvalues --  -10.29648 -10.28529 -10.27780 -10.27648 -10.27602
 Alpha  occ. eigenvalues --  -10.26905 -10.26389 -10.24750  -1.19126  -1.16663
 Alpha  occ. eigenvalues --   -1.15395  -1.14786  -1.13817  -1.12877  -1.12045
 Alpha  occ. eigenvalues --   -1.10708  -1.10501  -1.10050  -1.09824  -1.08971
 Alpha  occ. eigenvalues --   -1.04831  -1.04277  -1.02303  -1.02079  -1.01702
 Alpha  occ. eigenvalues --   -1.01168  -0.99547  -0.99179  -0.91902  -0.90813
 Alpha  occ. eigenvalues --   -0.88953  -0.87068  -0.86876  -0.86636  -0.84150
 Alpha  occ. eigenvalues --   -0.83491  -0.81676  -0.81384  -0.79741  -0.78965
 Alpha  occ. eigenvalues --   -0.76841  -0.75007  -0.74741  -0.72913  -0.72326
 Alpha  occ. eigenvalues --   -0.71606  -0.70902  -0.70167  -0.69612  -0.69517
 Alpha  occ. eigenvalues --   -0.68858  -0.68461  -0.68049  -0.67479  -0.66859
 Alpha  occ. eigenvalues --   -0.66750  -0.66013  -0.65427  -0.64808  -0.63886
 Alpha  occ. eigenvalues --   -0.62863  -0.62364  -0.62028  -0.61102  -0.60924
 Alpha  occ. eigenvalues --   -0.60683  -0.60125  -0.59584  -0.59437  -0.58583
 Alpha  occ. eigenvalues --   -0.58198  -0.57771  -0.57087  -0.56689  -0.56512
 Alpha  occ. eigenvalues --   -0.56424  -0.56306  -0.55873  -0.55457  -0.55144
 Alpha  occ. eigenvalues --   -0.54237  -0.53732  -0.53385  -0.53109  -0.52774
 Alpha  occ. eigenvalues --   -0.52575  -0.52372  -0.52051  -0.51889  -0.51582
 Alpha  occ. eigenvalues --   -0.51178  -0.51012  -0.50881  -0.50692  -0.50619
 Alpha  occ. eigenvalues --   -0.49843  -0.49708  -0.49354  -0.49031  -0.48946
 Alpha  occ. eigenvalues --   -0.48810  -0.48702  -0.47976  -0.47741  -0.47369
 Alpha  occ. eigenvalues --   -0.47344  -0.47152  -0.46829  -0.46617  -0.46448
 Alpha  occ. eigenvalues --   -0.46156  -0.46008  -0.45824  -0.45460  -0.45074
 Alpha  occ. eigenvalues --   -0.44533  -0.44369  -0.44039  -0.43576  -0.43378
 Alpha  occ. eigenvalues --   -0.42913  -0.42409  -0.42257  -0.42194  -0.42017
 Alpha  occ. eigenvalues --   -0.41415  -0.40079  -0.39572  -0.39162  -0.38882
 Alpha  occ. eigenvalues --   -0.38216  -0.37428  -0.37350  -0.36893  -0.36642
 Alpha  occ. eigenvalues --   -0.36491  -0.36033  -0.35194  -0.34540  -0.34392
 Alpha  occ. eigenvalues --   -0.33910  -0.33633  -0.33487  -0.32363  -0.31343
 Alpha virt. eigenvalues --   -0.10973  -0.10667  -0.09049  -0.07965  -0.07433
 Alpha virt. eigenvalues --   -0.07349  -0.06985  -0.05949  -0.05096  -0.04918
 Alpha virt. eigenvalues --   -0.03640  -0.03248  -0.01078  -0.00636  -0.00398

 Mulliken charges:
               1
     1  N   -0.690594
     2  H    0.323110
     3  H    0.314516
     4  C   -0.070889
     5  H    0.148489
     6  C    0.609261
     7  C   -0.327107
     8  H    0.211680
     9  H    0.177010
    10  O   -0.548312
    11  C    0.575827
    12  N   -0.708483
    13  H    0.341920
    14  H    0.378809
    15  O   -0.559240
    16  N   -0.631294
    17  H    0.340562
    18  C   -0.039364
    19  H    0.177463
    20  C    0.693436
    21  C   -0.119273
    22  H    0.145700
    23  O   -0.618072
    24  C   -0.296989
    25  H    0.198352
    26  H    0.158748
    27  C   -0.482254
    28  H    0.195678
    29  H    0.177875
    30  H    0.096862
    31  C   -0.459852
    32  H    0.177124
    33  H    0.120434
    34  H    0.157268
    35  N   -0.573628
    36  H    0.363362
    37  C   -0.032832
    38  H    0.156170
    39  C    0.611816
    40  C   -0.492628
    41  H    0.186250
    42  H    0.176623
    43  H    0.189667
    44  O   -0.509738
    45  N   -0.629461
    46  H    0.352210
    47  C   -0.062621
    48  H    0.188161
    49  C    0.652926
    50  C    0.131712
    51  H    0.139098
    52  O   -0.574653
    53  C   -0.467006
    54  H    0.191265
    55  H    0.160659
    56  H    0.154134
    57  O   -0.661755
    58  H    0.440861
    59  N   -0.590674
    60  H    0.360411
    61  C   -0.076835
    62  H    0.189447
    63  C    0.629216
    64  C   -0.071652
    65  H    0.163745
    66  H    0.173047
    67  O   -0.511349
    68  O   -0.633803
    69  H    0.413367
    70  N   -0.591865
    71  H    0.373586
    72  C   -0.259418
    73  H    0.171303
    74  H    0.222039
    75  C    0.617345
    76  O   -0.517801
    77  N   -0.610578
    78  H    0.354521
    79  C   -0.058963
    80  H    0.210259
    81  C    0.595577
    82  C   -0.263293
    83  H    0.147589
    84  H    0.176712
    85  O   -0.446154
    86  C   -0.275627
    87  H    0.176095
    88  H    0.151290
    89  C   -0.275825
    90  H    0.151722
    91  H    0.164386
    92  C   -0.218350
    93  H    0.236096
    94  H    0.176054
    95  N   -0.812793
    96  H    0.436608
    97  H    0.384016
    98  H    0.432313
    99  O   -0.580204
   100  H    0.429447
 Sum of Mulliken charges =   1.00000

 Dipole moment (field-independent basis, Debye):
    X=             -6.8507    Y=             -5.7675    Z=              6.6717  Tot=             11.1672
 Quadrupole moment (field-independent basis, Debye-Ang):
   XX=           -217.9469   YY=           -219.6535   ZZ=           -223.4445
   XY=            -16.3141   XZ=            -46.6359   YZ=              2.1033

 Normal termination of Gaussian 16 at Thu Jul 21 23:50:30 2022.
