 Gaussian 16, Revision C.01,
 Gaussian 16:  ES64L-G16RevC.01  3-Jul-2019

 ----------------------------------------------------------------------
 # B3LYP/6-31G* empiricaldispersion=gd3bj guess=read geom=check nosymm
 integral(ultrafinegrid)
 ----------------------------------------------------------------------

 ------------------------------------------------------
 Candidate Structure: Conf:302 Charge calc in gas phase
 ------------------------------------------------------
 Structure from the checkpoint file:  "conf-302.chk"
 Charge =  1 Multiplicity = 1

                          Input orientation:
 ---------------------------------------------------------------------
 Center     Atomic      Atomic             Coordinates (Angstroms)
 Number     Number       Type             X           Y           Z
 ---------------------------------------------------------------------
      1          7           0       -7.466123   -0.578990    2.697006
      2          1           0       -8.266470   -1.204692    2.678997
      3          1           0       -7.430351   -0.055960    1.824525
      4          6           0       -6.223841   -1.291331    2.885129
      5          1           0       -6.129542   -1.571394    3.942924
      6          6           0       -5.088995   -0.330982    2.513218
      7          6           0       -6.076614   -2.589407    2.019715
      8          1           0       -6.951281   -3.222918    2.211582
      9          1           0       -6.068806   -2.319401    0.961788
     10          8           0       -5.211788    0.458568    1.577028
     11          6           0       -4.810858   -3.368309    2.314693
     12          7           0       -4.727820   -3.911571    3.559755
     13          1           0       -3.953201   -4.529012    3.766387
     14          1           0       -5.549589   -4.003990    4.141425
     15          8           0       -3.882294   -3.446342    1.504603
     16          7           0       -3.947033   -0.439503    3.235527
     17          1           0       -3.884572   -1.121375    3.979055
     18          6           0       -2.788776    0.411673    2.959569
     19          1           0       -3.176258    1.414825    2.752452
     20          6           0       -2.110173   -0.124758    1.690972
     21          6           0       -1.823256    0.481708    4.154158
     22          1           0       -1.454751   -0.538158    4.337393
     23          8           0       -1.231238   -1.012797    1.756549
     24          6           0       -2.553448    0.988113    5.413794
     25          1           0       -3.484603    0.426143    5.557965
     26          1           0       -2.857965    2.030745    5.249221
     27          6           0       -0.622702    1.370961    3.797475
     28          1           0       -0.956342    2.386410    3.549279
     29          1           0        0.060066    1.449770    4.647352
     30          1           0       -0.047261    0.975168    2.956972
     31          6           0       -1.720415    0.886677    6.694522
     32          1           0       -2.312939    1.190172    7.563252
     33          1           0       -1.380897   -0.142491    6.864819
     34          1           0       -0.835289    1.528874    6.662420
     35          7           0       -2.535091    0.409250    0.543881
     36          1           0       -3.372564    0.984068    0.595504
     37          6           0       -2.052622    0.019545   -0.787119
     38          1           0       -1.821521   -1.050886   -0.753271
     39          6           0       -0.745408    0.786437   -1.103447
     40          6           0       -3.126772    0.296601   -1.828199
     41          1           0       -2.789441   -0.042569   -2.810052
     42          1           0       -4.054382   -0.220853   -1.565188
     43          1           0       -3.315517    1.370688   -1.903429
     44          8           0       -0.701998    1.681202   -1.934412
     45          7           0        0.331817    0.379779   -0.381899
     46          1           0        0.201060   -0.195078    0.444083
     47          6           0        1.580490    1.105310   -0.486411
     48          1           0        1.431273    2.154424   -0.196307
     49          6           0        2.104916    1.035744   -1.927270
     50          6           0        2.638048    0.455922    0.441405
     51          1           0        3.046969   -0.424801   -0.069149
     52          8           0        1.941421    0.035141   -2.622526
     53          6           0        3.772795    1.407323    0.793592
     54          1           0        4.362657    1.651278   -0.092928
     55          1           0        4.457550    0.924260    1.501367
     56          1           0        3.384700    2.319725    1.260050
     57          8           0        1.922728    0.030318    1.615413
     58          1           0        2.578658   -0.247334    2.272832
     59          7           0        2.839797    2.093659   -2.344769
     60          1           0        3.126849    2.796600   -1.674220
     61          6           0        3.746562    1.900922   -3.459375
     62          1           0        3.161399    1.695866   -4.362548
     63          6           0        4.659443    0.688811   -3.161398
     64          6           0        4.540285    3.189676   -3.681163
     65          1           0        3.862972    3.955218   -4.086662
     66          1           0        5.332246    3.000623   -4.419128
     67          8           0        5.040722    0.417727   -2.030703
     68          8           0        5.068609    3.582402   -2.422430
     69          1           0        5.536113    4.423862   -2.531721
     70          7           0        4.995156   -0.060435   -4.248780
     71          1           0        4.524463    0.113200   -5.126471
     72          6           0        5.703517   -1.318126   -4.081515
     73          1           0        6.162362   -1.604579   -5.031197
     74          1           0        6.502416   -1.176984   -3.351608
     75          6           0        4.856336   -2.503454   -3.591134
     76          8           0        5.397003   -3.572645   -3.336513
     77          7           0        3.517803   -2.288345   -3.503244
     78          1           0        3.126808   -1.355388   -3.582245
     79          6           0        2.633116   -3.300817   -2.974301
     80          1           0        3.157925   -4.258020   -3.036662
     81          6           0        1.391499   -3.365145   -3.853691
     82          6           0        2.303128   -2.982030   -1.495914
     83          1           0        3.263972   -2.992056   -0.967323
     84          1           0        1.920393   -1.957641   -1.461834
     85          8           0        1.021382   -2.509013   -4.620445
     86          6           0        1.316957   -3.915444   -0.791787
     87          1           0        0.341371   -3.824729   -1.289246
     88          1           0        1.609979   -4.965310   -0.913142
     89          6           0        1.211334   -3.573710    0.703749
     90          1           0        1.218101   -2.486129    0.856097
     91          1           0        2.092638   -3.958093    1.229768
     92          6           0       -0.026013   -4.153895    1.383972
     93          1           0       -0.111434   -5.234118    1.236445
     94          1           0       -0.033468   -3.939944    2.455241
     95          7           0       -1.265451   -3.516345    0.825143
     96          1           0       -2.161394   -3.818375    1.257696
     97          1           0       -1.337742   -3.678324   -0.182030
     98          1           0       -1.233997   -2.477012    1.000012
     99          8           0        0.707883   -4.527500   -3.670703
    100          1           0       -0.043990   -4.493792   -4.292867
 ---------------------------------------------------------------------

 SCF Done:  E(RB3LYP) =  -2418.67580658     A.U. after    1 cycles

 Alpha  occ. eigenvalues --  -19.27051 -19.25437 -19.24298 -19.24210 -19.23260
 Alpha  occ. eigenvalues --  -19.22790 -19.21111 -19.19729 -19.19647 -19.18921
 Alpha  occ. eigenvalues --  -19.16506 -14.54007 -14.49049 -14.47612 -14.47425
 Alpha  occ. eigenvalues --  -14.43891 -14.43583 -14.43402 -14.41233 -14.40911
 Alpha  occ. eigenvalues --  -10.42508 -10.40448 -10.39661 -10.38984 -10.36622
 Alpha  occ. eigenvalues --  -10.36602 -10.36055 -10.35889 -10.34275 -10.33972
 Alpha  occ. eigenvalues --  -10.33802 -10.33289 -10.32676 -10.32277 -10.31396
 Alpha  occ. eigenvalues --  -10.31395 -10.31094 -10.30392 -10.29758 -10.29111
 Alpha  occ. eigenvalues --  -10.28974 -10.28357 -10.26987 -10.26620 -10.26487
 Alpha  occ. eigenvalues --  -10.25653 -10.25411 -10.24943  -1.17762  -1.16752
 Alpha  occ. eigenvalues --   -1.15749  -1.14569  -1.12674  -1.11687  -1.11157
 Alpha  occ. eigenvalues --   -1.10627  -1.10384  -1.09690  -1.08946  -1.08490
 Alpha  occ. eigenvalues --   -1.04167  -1.03827  -1.03531  -1.00372  -1.00166
 Alpha  occ. eigenvalues --   -1.00087  -0.99035  -0.98155  -0.90978  -0.90681
 Alpha  occ. eigenvalues --   -0.87989  -0.87355  -0.86355  -0.85675  -0.84055
 Alpha  occ. eigenvalues --   -0.83145  -0.80970  -0.79819  -0.78878  -0.78354
 Alpha  occ. eigenvalues --   -0.76485  -0.74315  -0.73916  -0.72924  -0.71991
 Alpha  occ. eigenvalues --   -0.71880  -0.70884  -0.70101  -0.69611  -0.69336
 Alpha  occ. eigenvalues --   -0.68877  -0.67850  -0.67068  -0.66635  -0.66577
 Alpha  occ. eigenvalues --   -0.66014  -0.65904  -0.65826  -0.64517  -0.63492
 Alpha  occ. eigenvalues --   -0.62335  -0.62035  -0.61115  -0.60777  -0.60606
 Alpha  occ. eigenvalues --   -0.60026  -0.59733  -0.59351  -0.58560  -0.58236
 Alpha  occ. eigenvalues --   -0.57861  -0.56770  -0.56514  -0.56105  -0.55843
 Alpha  occ. eigenvalues --   -0.55305  -0.55071  -0.54867  -0.54504  -0.54306
 Alpha  occ. eigenvalues --   -0.53938  -0.53892  -0.53177  -0.52743  -0.52690
 Alpha  occ. eigenvalues --   -0.52237  -0.52017  -0.51773  -0.51567  -0.50941
 Alpha  occ. eigenvalues --   -0.50337  -0.50216  -0.50038  -0.50008  -0.49708
 Alpha  occ. eigenvalues --   -0.49589  -0.48802  -0.48784  -0.48560  -0.48364
 Alpha  occ. eigenvalues --   -0.47919  -0.47652  -0.47579  -0.47118  -0.46837
 Alpha  occ. eigenvalues --   -0.46732  -0.46634  -0.46544  -0.46321  -0.46182
 Alpha  occ. eigenvalues --   -0.45651  -0.45433  -0.44917  -0.44722  -0.44515
 Alpha  occ. eigenvalues --   -0.44500  -0.44223  -0.43280  -0.43218  -0.42260
 Alpha  occ. eigenvalues --   -0.42211  -0.42130  -0.41460  -0.41295  -0.40916
 Alpha  occ. eigenvalues --   -0.40773  -0.40710  -0.39718  -0.39427  -0.38935
 Alpha  occ. eigenvalues --   -0.38339  -0.36626  -0.36449  -0.36050  -0.35853
 Alpha  occ. eigenvalues --   -0.35029  -0.34596  -0.34273  -0.34163  -0.33175
 Alpha  occ. eigenvalues --   -0.32999  -0.32714  -0.31982  -0.31035  -0.29801
 Alpha virt. eigenvalues --   -0.11309  -0.10509  -0.08662  -0.07253  -0.06611
 Alpha virt. eigenvalues --   -0.06335  -0.05811  -0.05183  -0.05029  -0.02695
 Alpha virt. eigenvalues --   -0.02274  -0.01769  -0.01377  -0.00902  -0.00369

 Mulliken charges:
               1
     1  N   -0.704970
     2  H    0.310697
     3  H    0.335067
     4  C   -0.055431
     5  H    0.145407
     6  C    0.646697
     7  C   -0.378450
     8  H    0.175017
     9  H    0.197697
    10  O   -0.542171
    11  C    0.591727
    12  N   -0.727749
    13  H    0.353192
    14  H    0.362574
    15  O   -0.541024
    16  N   -0.611211
    17  H    0.339497
    18  C   -0.033559
    19  H    0.183449
    20  C    0.640391
    21  C   -0.100656
    22  H    0.130398
    23  O   -0.609405
    24  C   -0.260036
    25  H    0.126920
    26  H    0.150873
    27  C   -0.495874
    28  H    0.150768
    29  H    0.162520
    30  H    0.189563
    31  C   -0.451163
    32  H    0.163886
    33  H    0.140053
    34  H    0.161829
    35  N   -0.571574
    36  H    0.384824
    37  C   -0.065775
    38  H    0.135170
    39  C    0.648902
    40  C   -0.469797
    41  H    0.188294
    42  H    0.158061
    43  H    0.189886
    44  O   -0.502483
    45  N   -0.664296
    46  H    0.406668
    47  C   -0.044221
    48  H    0.161762
    49  C    0.671646
    50  C    0.116678
    51  H    0.166313
    52  O   -0.539784
    53  C   -0.501112
    54  H    0.214899
    55  H    0.149194
    56  H    0.151231
    57  O   -0.648861
    58  H    0.406074
    59  N   -0.590782
    60  H    0.357860
    61  C   -0.065079
    62  H    0.177968
    63  C    0.612433
    64  C   -0.057779
    65  H    0.158440
    66  H    0.155184
    67  O   -0.511846
    68  O   -0.616889
    69  H    0.414950
    70  N   -0.605796
    71  H    0.342290
    72  C   -0.229867
    73  H    0.191588
    74  H    0.217501
    75  C    0.607033
    76  O   -0.519730
    77  N   -0.615624
    78  H    0.385113
    79  C   -0.050283
    80  H    0.206252
    81  C    0.578244
    82  C   -0.301622
    83  H    0.169050
    84  H    0.192027
    85  O   -0.446553
    86  C   -0.277633
    87  H    0.115489
    88  H    0.167580
    89  C   -0.306062
    90  H    0.183409
    91  H    0.178437
    92  C   -0.183129
    93  H    0.194949
    94  H    0.194503
    95  N   -0.792377
    96  H    0.410680
    97  H    0.389224
    98  H    0.448396
    99  O   -0.577261
   100  H    0.411490
 Sum of Mulliken charges =   1.00000

 Dipole moment (field-independent basis, Debye):
    X=             -8.6109    Y=             -8.6013    Z=              7.9984  Tot=             14.5638
 Quadrupole moment (field-independent basis, Debye-Ang):
   XX=           -203.2215   YY=           -212.8274   ZZ=           -214.2365
   XY=             82.2746   XZ=            -51.8102   YZ=            -46.2830

 Normal termination of Gaussian 16 at Thu Jul 21 23:50:08 2022.
