 Gaussian 16, Revision C.01,
 Gaussian 16:  ES64L-G16RevC.01  3-Jul-2019

 ----------------------------------------------------------------------
 # B3LYP/6-31G* empiricaldispersion=gd3bj guess=read geom=check nosymm
 integral(ultrafinegrid)
 ----------------------------------------------------------------------

 ------------------------------------------------------
 Candidate Structure: Conf:879 Charge calc in gas phase
 ------------------------------------------------------
 Structure from the checkpoint file:  "conf-879.chk"
 Charge =  1 Multiplicity = 1

                          Input orientation:
 ---------------------------------------------------------------------
 Center     Atomic      Atomic             Coordinates (Angstroms)
 Number     Number       Type             X           Y           Z
 ---------------------------------------------------------------------
      1          7           0       -5.954981    1.863235    2.203563
      2          1           0       -6.231481    1.017227    1.708241
      3          1           0       -6.817132    2.353586    2.450877
      4          6           0       -5.188400    2.734564    1.308577
      5          1           0       -5.507366    2.685551    0.256926
      6          6           0       -3.703015    2.355592    1.324593
      7          6           0       -5.284792    4.203011    1.770355
      8          1           0       -5.006833    4.250483    2.831170
      9          1           0       -4.559810    4.795798    1.205897
     10          8           0       -2.910655    2.782946    0.472455
     11          6           0       -6.700083    4.756712    1.636242
     12          7           0       -6.797744    5.993468    1.084948
     13          1           0       -7.711454    6.422025    1.023296
     14          1           0       -5.992589    6.525093    0.792352
     15          8           0       -7.685532    4.126352    2.011614
     16          7           0       -3.345410    1.573477    2.362298
     17          1           0       -4.116475    1.283792    2.962325
     18          6           0       -1.954924    1.250986    2.658691
     19          1           0       -1.362987    2.129761    2.374553
     20          6           0       -1.555157    0.091564    1.725753
     21          6           0       -1.706164    0.935287    4.140864
     22          1           0       -2.149998   -0.046981    4.350094
     23          8           0       -1.542372   -1.097076    2.091951
     24          6           0       -2.363967    1.984096    5.057871
     25          1           0       -3.438988    2.038864    4.851383
     26          1           0       -1.957035    2.975766    4.812684
     27          6           0       -0.190599    0.853789    4.381349
     28          1           0        0.260162    1.851736    4.307749
     29          1           0        0.028294    0.461187    5.377254
     30          1           0        0.314683    0.202001    3.664046
     31          6           0       -2.172669    1.700978    6.550623
     32          1           0       -2.739998    2.417386    7.153304
     33          1           0       -2.525989    0.695306    6.808352
     34          1           0       -1.123447    1.774960    6.852209
     35          7           0       -1.282154    0.490103    0.465181
     36          1           0       -1.539109    1.460041    0.252018
     37          6           0       -1.147945   -0.430430   -0.669056
     38          1           0       -1.898619   -1.223581   -0.557921
     39          6           0        0.243242   -1.093195   -0.610352
     40          6           0       -1.364614    0.326925   -1.971585
     41          1           0       -1.341711   -0.361839   -2.820200
     42          1           0       -2.335085    0.830590   -1.953869
     43          1           0       -0.578499    1.072733   -2.115642
     44          8           0        1.177906   -0.738168   -1.346164
     45          7           0        0.339716   -2.046407    0.326146
     46          1           0       -0.474710   -2.121048    0.937286
     47          6           0        1.594381   -2.586948    0.808454
     48          1           0        2.328789   -1.776060    0.885106
     49          6           0        2.114584   -3.675454   -0.123560
     50          6           0        1.357606   -3.154234    2.241902
     51          1           0        0.574803   -3.923198    2.155700
     52          8           0        1.368831   -4.520984   -0.625029
     53          6           0        2.615762   -3.776285    2.831553
     54          1           0        2.942223   -4.651839    2.262233
     55          1           0        2.406659   -4.089408    3.856976
     56          1           0        3.431205   -3.044869    2.862576
     57          8           0        0.957119   -2.112690    3.107685
     58          1           0        0.019091   -1.885517    2.959782
     59          7           0        3.454680   -3.658843   -0.340531
     60          1           0        4.040799   -2.980924    0.138356
     61          6           0        4.188061   -4.814933   -0.830705
     62          1           0        3.870562   -5.703233   -0.271234
     63          6           0        5.668767   -4.509535   -0.586200
     64          6           0        3.996977   -5.086321   -2.365504
     65          1           0        3.985655   -6.171539   -2.526429
     66          1           0        4.838099   -4.684602   -2.934477
     67          8           0        6.035578   -3.368113   -0.303683
     68          8           0        2.819369   -4.497972   -2.894123
     69          1           0        2.080295   -4.720460   -2.278420
     70          7           0        6.538188   -5.533118   -0.767298
     71          1           0        6.185422   -6.383217   -1.187725
     72          6           0        7.930172   -5.203972   -1.036437
     73          1           0        8.321461   -4.608620   -0.209047
     74          1           0        8.500619   -6.134499   -1.096185
     75          6           0        8.019375   -4.453917   -2.382457
     76          8           0        7.244677   -4.740618   -3.292340
     77          7           0        8.966209   -3.492360   -2.439220
     78          1           0        9.532389   -3.320720   -1.619386
     79          6           0        9.199538   -2.602000   -3.579824
     80          1           0        9.790267   -3.136522   -4.338752
     81          6           0       10.067765   -1.421527   -3.141855
     82          6           0        7.912775   -2.095998   -4.259148
     83          1           0        8.219965   -1.362924   -5.009336
     84          1           0        7.465538   -2.944755   -4.775667
     85          8           0       10.122816   -0.368257   -3.726729
     86          6           0        6.896542   -1.484552   -3.280272
     87          1           0        7.005221   -1.946348   -2.293111
     88          1           0        7.092673   -0.413581   -3.150928
     89          6           0        5.454004   -1.715419   -3.748263
     90          1           0        5.328513   -2.786543   -3.947526
     91          1           0        5.262849   -1.189106   -4.693372
     92          6           0        4.447972   -1.282594   -2.689382
     93          1           0        4.693689   -1.730365   -1.725419
     94          1           0        4.412812   -0.196661   -2.569888
     95          7           0        3.056023   -1.740840   -3.022768
     96          1           0        2.360881   -1.387125   -2.319214
     97          1           0        2.983309   -2.792262   -3.025377
     98          1           0        2.767680   -1.399914   -3.943622
     99          8           0       10.804140   -1.697867   -2.037718
    100          1           0       11.343562   -0.906454   -1.848204
 ---------------------------------------------------------------------

 SCF Done:  E(RB3LYP) =  -2418.69697420     A.U. after    1 cycles

 Alpha  occ. eigenvalues --  -19.29520 -19.26540 -19.24090 -19.23382 -19.23366
 Alpha  occ. eigenvalues --  -19.23316 -19.22231 -19.22061 -19.21389 -19.19614
 Alpha  occ. eigenvalues --  -19.18125 -14.52886 -14.47771 -14.47512 -14.46189
 Alpha  occ. eigenvalues --  -14.45766 -14.44972 -14.43605 -14.42684 -14.38600
 Alpha  occ. eigenvalues --  -10.41635 -10.40791 -10.40097 -10.39476 -10.38876
 Alpha  occ. eigenvalues --  -10.38215 -10.36056 -10.36024 -10.35185 -10.34727
 Alpha  occ. eigenvalues --  -10.34489 -10.33733 -10.33593 -10.33490 -10.33314
 Alpha  occ. eigenvalues --  -10.33068 -10.31194 -10.30079 -10.29367 -10.27518
 Alpha  occ. eigenvalues --  -10.27104 -10.27096 -10.26901 -10.26380 -10.26322
 Alpha  occ. eigenvalues --  -10.24738 -10.23896 -10.23222  -1.20234  -1.16453
 Alpha  occ. eigenvalues --   -1.15509  -1.14595  -1.13295  -1.13240  -1.13166
 Alpha  occ. eigenvalues --   -1.11212  -1.11127  -1.10242  -1.09991  -1.08296
 Alpha  occ. eigenvalues --   -1.04141  -1.03813  -1.03092  -1.02699  -1.01820
 Alpha  occ. eigenvalues --   -1.00619  -0.97309  -0.95932  -0.90682  -0.89587
 Alpha  occ. eigenvalues --   -0.88392  -0.87733  -0.86870  -0.85729  -0.83359
 Alpha  occ. eigenvalues --   -0.82494  -0.80999  -0.80841  -0.80445  -0.77420
 Alpha  occ. eigenvalues --   -0.76738  -0.75199  -0.73972  -0.72883  -0.71793
 Alpha  occ. eigenvalues --   -0.71306  -0.70752  -0.69728  -0.69629  -0.68490
 Alpha  occ. eigenvalues --   -0.68170  -0.67832  -0.67111  -0.66505  -0.65841
 Alpha  occ. eigenvalues --   -0.65666  -0.65311  -0.64986  -0.63620  -0.63360
 Alpha  occ. eigenvalues --   -0.62779  -0.61965  -0.61078  -0.60861  -0.60759
 Alpha  occ. eigenvalues --   -0.60248  -0.59415  -0.59343  -0.58859  -0.58607
 Alpha  occ. eigenvalues --   -0.58510  -0.57986  -0.57585  -0.57276  -0.56975
 Alpha  occ. eigenvalues --   -0.56946  -0.56266  -0.55353  -0.54789  -0.54710
 Alpha  occ. eigenvalues --   -0.53876  -0.53577  -0.53342  -0.53080  -0.52855
 Alpha  occ. eigenvalues --   -0.52425  -0.52163  -0.51831  -0.51387  -0.51055
 Alpha  occ. eigenvalues --   -0.50831  -0.50464  -0.50348  -0.50104  -0.49862
 Alpha  occ. eigenvalues --   -0.49173  -0.49071  -0.48930  -0.48724  -0.48654
 Alpha  occ. eigenvalues --   -0.47967  -0.47746  -0.47542  -0.47420  -0.47319
 Alpha  occ. eigenvalues --   -0.47068  -0.46712  -0.46532  -0.46187  -0.46050
 Alpha  occ. eigenvalues --   -0.45727  -0.45266  -0.45138  -0.44771  -0.44653
 Alpha  occ. eigenvalues --   -0.44295  -0.44047  -0.43464  -0.43173  -0.42493
 Alpha  occ. eigenvalues --   -0.42266  -0.42080  -0.41381  -0.41142  -0.40013
 Alpha  occ. eigenvalues --   -0.39965  -0.39121  -0.38930  -0.38722  -0.38332
 Alpha  occ. eigenvalues --   -0.38195  -0.37630  -0.37193  -0.37023  -0.36828
 Alpha  occ. eigenvalues --   -0.36181  -0.35213  -0.35097  -0.34837  -0.34736
 Alpha  occ. eigenvalues --   -0.34053  -0.33518  -0.32991  -0.32685  -0.30632
 Alpha virt. eigenvalues --   -0.10485  -0.09658  -0.09236  -0.08714  -0.07918
 Alpha virt. eigenvalues --   -0.07429  -0.05699  -0.05145  -0.03819  -0.03236
 Alpha virt. eigenvalues --   -0.02665  -0.01931  -0.00884  -0.00411   0.00569

 Mulliken charges:
               1
     1  N   -0.780801
     2  H    0.312123
     3  H    0.362823
     4  C   -0.039083
     5  H    0.158253
     6  C    0.601165
     7  C   -0.386312
     8  H    0.189642
     9  H    0.172756
    10  O   -0.570600
    11  C    0.618539
    12  N   -0.741965
    13  H    0.355973
    14  H    0.348047
    15  O   -0.512088
    16  N   -0.604099
    17  H    0.378787
    18  C   -0.037484
    19  H    0.173127
    20  C    0.635784
    21  C   -0.102157
    22  H    0.150645
    23  O   -0.579980
    24  C   -0.262847
    25  H    0.140004
    26  H    0.134776
    27  C   -0.480454
    28  H    0.144925
    29  H    0.169041
    30  H    0.160583
    31  C   -0.451192
    32  H    0.156751
    33  H    0.149672
    34  H    0.155482
    35  N   -0.611644
    36  H    0.396208
    37  C   -0.058987
    38  H    0.184618
    39  C    0.642821
    40  C   -0.476570
    41  H    0.163364
    42  H    0.181272
    43  H    0.178597
    44  O   -0.583167
    45  N   -0.596932
    46  H    0.380788
    47  C   -0.045706
    48  H    0.164784
    49  C    0.620369
    50  C    0.099576
    51  H    0.155678
    52  O   -0.548903
    53  C   -0.467183
    54  H    0.146625
    55  H    0.189923
    56  H    0.158538
    57  O   -0.641799
    58  H    0.440935
    59  N   -0.628680
    60  H    0.368319
    61  C   -0.067976
    62  H    0.195228
    63  C    0.600440
    64  C   -0.078989
    65  H    0.164718
    66  H    0.214733
    67  O   -0.528061
    68  O   -0.649950
    69  H    0.444856
    70  N   -0.561297
    71  H    0.352379
    72  C   -0.254689
    73  H    0.198815
    74  H    0.204008
    75  C    0.634414
    76  O   -0.531861
    77  N   -0.628239
    78  H    0.366846
    79  C   -0.033567
    80  H    0.208089
    81  C    0.593433
    82  C   -0.285744
    83  H    0.181289
    84  H    0.185555
    85  O   -0.440609
    86  C   -0.292136
    87  H    0.172084
    88  H    0.161283
    89  C   -0.295167
    90  H    0.175348
    91  H    0.156840
    92  C   -0.198238
    93  H    0.203446
    94  H    0.196976
    95  N   -0.812769
    96  H    0.444875
    97  H    0.440900
    98  H    0.382807
    99  O   -0.585101
   100  H    0.432352
 Sum of Mulliken charges =   1.00000

 Dipole moment (field-independent basis, Debye):
    X=             14.6619    Y=             -6.2552    Z=             -4.5447  Tot=             16.5757
 Quadrupole moment (field-independent basis, Debye-Ang):
   XX=           -109.9298   YY=           -192.8302   ZZ=           -257.4119
   XY=           -101.9816   XZ=            -28.7250   YZ=             17.7445

 Normal termination of Gaussian 16 at Thu Jul 21 23:50:01 2022.
