 Gaussian 16, Revision C.01,
 Gaussian 16:  ES64L-G16RevC.01  3-Jul-2019

 ----------------------------------------------------------------------
 # B3LYP/6-31G* empiricaldispersion=gd3bj guess=read geom=check nosymm
 integral(ultrafinegrid)
 ----------------------------------------------------------------------

 ------------------------------------------------------
 Candidate Structure: Conf:205 Charge calc in gas phase
 ------------------------------------------------------
 Structure from the checkpoint file:  "conf-205.chk"
 Charge =  1 Multiplicity = 1

                          Input orientation:
 ---------------------------------------------------------------------
 Center     Atomic      Atomic             Coordinates (Angstroms)
 Number     Number       Type             X           Y           Z
 ---------------------------------------------------------------------
      1          7           0       -4.788871    0.970017    4.426176
      2          1           0       -5.771025    0.718445    4.529637
      3          1           0       -4.591816    1.654899    5.156794
      4          6           0       -4.642302    1.599191    3.109687
      5          1           0       -5.149196    0.936460    2.396942
      6          6           0       -3.172649    1.620253    2.682940
      7          6           0       -5.271193    2.988955    2.965049
      8          1           0       -4.873124    3.666893    3.732989
      9          1           0       -4.992712    3.420932    1.997505
     10          8           0       -2.760371    2.325692    1.752260
     11          6           0       -6.791738    2.909101    3.095738
     12          7           0       -7.446750    4.090572    2.943258
     13          1           0       -8.456549    4.089542    2.986346
     14          1           0       -6.976080    4.940309    2.670694
     15          8           0       -7.378015    1.857523    3.332838
     16          7           0       -2.382872    0.774525    3.380888
     17          1           0       -2.860727    0.214450    4.083459
     18          6           0       -0.951634    0.673935    3.136334
     19          1           0       -0.611917    1.681758    2.869496
     20          6           0       -0.743549   -0.232420    1.907141
     21          6           0       -0.159999    0.177936    4.355129
     22          1           0       -0.385327   -0.889324    4.482293
     23          8           0       -0.416138   -1.428284    1.987496
     24          6           0       -0.559675    0.925822    5.639789
     25          1           0       -1.636547    0.814966    5.808685
     26          1           0       -0.383749    2.001123    5.495036
     27          6           0        1.342002    0.332399    4.063318
     28          1           0        1.636552    1.387756    4.106728
     29          1           0        1.946425   -0.211492    4.794903
     30          1           0        1.602339   -0.035332    3.065434
     31          6           0        0.183234    0.442053    6.888356
     32          1           0       -0.203318    0.939344    7.783414
     33          1           0        0.056864   -0.638513    7.028016
     34          1           0        1.256446    0.651218    6.835723
     35          7           0       -0.981686    0.372916    0.731994
     36          1           0       -1.423375    1.294885    0.772450
     37          6           0       -0.918201   -0.328217   -0.536063
     38          1           0       -1.743013   -1.051092   -0.605370
     39          6           0        0.406684   -1.080696   -0.667177
     40          6           0       -1.009007    0.689657   -1.682451
     41          1           0       -0.890753    0.210826   -2.658519
     42          1           0       -1.976223    1.201152   -1.652824
     43          1           0       -0.213146    1.432229   -1.569776
     44          8           0        1.486781   -0.576295   -0.323597
     45          7           0        0.330673   -2.286848   -1.272476
     46          1           0       -0.578674   -2.626338   -1.559538
     47          6           0        1.508921   -2.968708   -1.800481
     48          1           0        2.375660   -2.530695   -1.303787
     49          6           0        1.678094   -2.638680   -3.295663
     50          6           0        1.487112   -4.472978   -1.519985
     51          1           0        0.656450   -4.934826   -2.069220
     52          8           0        1.744256   -3.503146   -4.168294
     53          6           0        2.798475   -5.158904   -1.883458
     54          1           0        2.939777   -5.148243   -2.964239
     55          1           0        2.780756   -6.202817   -1.548283
     56          1           0        3.643782   -4.646766   -1.413740
     57          8           0        1.226538   -4.596166   -0.101060
     58          1           0        1.226672   -5.540487    0.120532
     59          7           0        1.728689   -1.307626   -3.544842
     60          1           0        1.927704   -0.699716   -2.756351
     61          6           0        2.127900   -0.797645   -4.858124
     62          1           0        1.712439   -1.479341   -5.603149
     63          6           0        3.666227   -0.822267   -4.868088
     64          6           0        1.586490    0.606086   -5.072766
     65          1           0        1.917985    0.955934   -6.059601
     66          1           0        2.019162    1.283184   -4.323189
     67          8           0        4.337180    0.167447   -4.606819
     68          8           0        0.168482    0.539847   -4.979208
     69          1           0       -0.184236    1.408684   -5.223449
     70          7           0        4.209907   -2.065826   -5.055410
     71          1           0        3.552500   -2.840701   -5.033667
     72          6           0        5.516103   -2.300950   -4.476229
     73          1           0        5.821367   -3.328380   -4.696778
     74          1           0        6.247987   -1.624628   -4.924855
     75          6           0        5.467106   -2.095412   -2.951025
     76          8           0        4.412727   -2.212788   -2.319923
     77          7           0        6.635814   -1.804458   -2.345269
     78          1           0        7.471526   -1.594499   -2.881179
     79          6           0        6.666790   -1.402710   -0.948349
     80          1           0        5.997355   -0.540087   -0.818998
     81          6           0        8.072658   -0.900837   -0.663244
     82          6           0        6.208950   -2.515460    0.039155
     83          1           0        5.960111   -3.403191   -0.547781
     84          1           0        7.028841   -2.790614    0.710515
     85          8           0        8.965372   -0.852591   -1.479643
     86          6           0        4.991021   -2.074342    0.856048
     87          1           0        5.268906   -1.225394    1.495217
     88          1           0        4.237934   -1.711427    0.146805
     89          6           0        4.423277   -3.200426    1.726082
     90          1           0        5.182665   -3.540453    2.440326
     91          1           0        4.174143   -4.069789    1.101675
     92          6           0        3.186723   -2.794439    2.525824
     93          1           0        2.875963   -3.586134    3.212240
     94          1           0        3.364653   -1.886865    3.108703
     95          7           0        2.026911   -2.521305    1.623193
     96          1           0        1.158382   -2.214139    2.106598
     97          1           0        1.772193   -3.355526    1.051596
     98          1           0        2.203653   -1.756114    0.945158
     99          8           0        8.198293   -0.496066    0.614208
    100          1           0        9.113821   -0.174697    0.723754
 ---------------------------------------------------------------------

 SCF Done:  E(RB3LYP) =  -2418.69613097     A.U. after    1 cycles

 Alpha  occ. eigenvalues --  -19.29074 -19.27632 -19.23570 -19.23174 -19.22773
 Alpha  occ. eigenvalues --  -19.22510 -19.21543 -19.20952 -19.20325 -19.19637
 Alpha  occ. eigenvalues --  -19.18372 -14.51991 -14.47794 -14.45443 -14.45110
 Alpha  occ. eigenvalues --  -14.45034 -14.44425 -14.43178 -14.42587 -14.39728
 Alpha  occ. eigenvalues --  -10.41545 -10.40239 -10.38773 -10.38536 -10.37842
 Alpha  occ. eigenvalues --  -10.36937 -10.36375 -10.36118 -10.35137 -10.35042
 Alpha  occ. eigenvalues --  -10.33875 -10.33518 -10.33317 -10.32213 -10.31338
 Alpha  occ. eigenvalues --  -10.31314 -10.31228 -10.30332 -10.29995 -10.28392
 Alpha  occ. eigenvalues --  -10.28319 -10.28197 -10.27517 -10.26970 -10.26910
 Alpha  occ. eigenvalues --  -10.26772 -10.26306 -10.24891  -1.20120  -1.15524
 Alpha  occ. eigenvalues --   -1.14331  -1.13741  -1.13465  -1.12885  -1.11900
 Alpha  occ. eigenvalues --   -1.11380  -1.11171  -1.10158  -1.09922  -1.07999
 Alpha  occ. eigenvalues --   -1.04124  -1.02599  -1.01790  -1.01552  -1.01431
 Alpha  occ. eigenvalues --   -0.99823  -0.97340  -0.96812  -0.91094  -0.90066
 Alpha  occ. eigenvalues --   -0.89483  -0.87284  -0.86884  -0.85268  -0.83525
 Alpha  occ. eigenvalues --   -0.82307  -0.82154  -0.80667  -0.79639  -0.79293
 Alpha  occ. eigenvalues --   -0.75073  -0.74896  -0.73840  -0.73396  -0.72605
 Alpha  occ. eigenvalues --   -0.71687  -0.70355  -0.69889  -0.69541  -0.68631
 Alpha  occ. eigenvalues --   -0.67632  -0.67134  -0.66628  -0.66478  -0.66091
 Alpha  occ. eigenvalues --   -0.65792  -0.65491  -0.64354  -0.64021  -0.62718
 Alpha  occ. eigenvalues --   -0.62144  -0.61440  -0.61195  -0.61053  -0.60897
 Alpha  occ. eigenvalues --   -0.60089  -0.59462  -0.58624  -0.58493  -0.57625
 Alpha  occ. eigenvalues --   -0.57487  -0.57092  -0.56849  -0.56667  -0.55963
 Alpha  occ. eigenvalues --   -0.55589  -0.55407  -0.55331  -0.54483  -0.54339
 Alpha  occ. eigenvalues --   -0.53837  -0.53633  -0.53485  -0.53314  -0.52625
 Alpha  occ. eigenvalues --   -0.52494  -0.52382  -0.51934  -0.51640  -0.51119
 Alpha  occ. eigenvalues --   -0.50933  -0.50584  -0.50246  -0.49922  -0.49621
 Alpha  occ. eigenvalues --   -0.49178  -0.49132  -0.48784  -0.48636  -0.48521
 Alpha  occ. eigenvalues --   -0.48319  -0.48143  -0.47947  -0.47825  -0.47423
 Alpha  occ. eigenvalues --   -0.47185  -0.47059  -0.46897  -0.46774  -0.46579
 Alpha  occ. eigenvalues --   -0.45977  -0.45779  -0.45444  -0.45321  -0.44593
 Alpha  occ. eigenvalues --   -0.44374  -0.44286  -0.43990  -0.43888  -0.43650
 Alpha  occ. eigenvalues --   -0.43035  -0.42629  -0.41766  -0.41606  -0.41142
 Alpha  occ. eigenvalues --   -0.40884  -0.40690  -0.39588  -0.38680  -0.37539
 Alpha  occ. eigenvalues --   -0.37314  -0.37260  -0.36606  -0.35993  -0.35517
 Alpha  occ. eigenvalues --   -0.35248  -0.34956  -0.34905  -0.34131  -0.33839
 Alpha  occ. eigenvalues --   -0.33486  -0.33432  -0.32735  -0.31962  -0.31605
 Alpha virt. eigenvalues --   -0.10310  -0.08834  -0.08550  -0.08137  -0.06801
 Alpha virt. eigenvalues --   -0.06124  -0.05233  -0.04392  -0.04105  -0.02884
 Alpha virt. eigenvalues --   -0.02348  -0.01483  -0.00986  -0.00530   0.00230

 Mulliken charges:
               1
     1  N   -0.759452
     2  H    0.350143
     3  H    0.306130
     4  C   -0.064289
     5  H    0.195005
     6  C    0.619286
     7  C   -0.389832
     8  H    0.166958
     9  H    0.195559
    10  O   -0.568851
    11  C    0.613191
    12  N   -0.748681
    13  H    0.354515
    14  H    0.345674
    15  O   -0.511978
    16  N   -0.612654
    17  H    0.374544
    18  C   -0.040692
    19  H    0.177296
    20  C    0.645955
    21  C   -0.096393
    22  H    0.143131
    23  O   -0.596239
    24  C   -0.260527
    25  H    0.139773
    26  H    0.140849
    27  C   -0.477895
    28  H    0.164082
    29  H    0.159446
    30  H    0.131992
    31  C   -0.452626
    32  H    0.162382
    33  H    0.146734
    34  H    0.152620
    35  N   -0.606363
    36  H    0.391512
    37  C   -0.017572
    38  H    0.163016
    39  C    0.642857
    40  C   -0.510133
    41  H    0.204674
    42  H    0.180907
    43  H    0.179964
    44  O   -0.586423
    45  N   -0.575381
    46  H    0.349885
    47  C   -0.131570
    48  H    0.223371
    49  C    0.666644
    50  C    0.137204
    51  H    0.158770
    52  O   -0.542249
    53  C   -0.486956
    54  H    0.202682
    55  H    0.145312
    56  H    0.167943
    57  O   -0.656586
    58  H    0.418576
    59  N   -0.581303
    60  H    0.357706
    61  C   -0.095427
    62  H    0.200374
    63  C    0.619136
    64  C   -0.043137
    65  H    0.158688
    66  H    0.151380
    67  O   -0.520145
    68  O   -0.617705
    69  H    0.407479
    70  N   -0.577349
    71  H    0.365057
    72  C   -0.251341
    73  H    0.192335
    74  H    0.201225
    75  C    0.635909
    76  O   -0.557457
    77  N   -0.621758
    78  H    0.364606
    79  C   -0.003189
    80  H    0.202028
    81  C    0.568204
    82  C   -0.271536
    83  H    0.171447
    84  H    0.167373
    85  O   -0.453616
    86  C   -0.305854
    87  H    0.157569
    88  H    0.178681
    89  C   -0.289311
    90  H    0.175130
    91  H    0.154529
    92  C   -0.177706
    93  H    0.190049
    94  H    0.196017
    95  N   -0.842329
    96  H    0.438021
    97  H    0.431072
    98  H    0.434139
    99  O   -0.564816
   100  H    0.430584
 Sum of Mulliken charges =   1.00000

 Dipole moment (field-independent basis, Debye):
    X=              5.9740    Y=             -4.8557    Z=              5.2967  Tot=              9.3446
 Quadrupole moment (field-independent basis, Debye-Ang):
   XX=           -189.9862   YY=           -210.1075   ZZ=           -230.3515
   XY=            -66.8418   XZ=              0.1328   YZ=              9.5318

 Normal termination of Gaussian 16 at Thu Jul 21 23:50:05 2022.
