 Gaussian 16, Revision C.01,
 Gaussian 16:  ES64L-G16RevC.01  3-Jul-2019

 ----------------------------------------------------------------------
 # B3LYP/6-31G* empiricaldispersion=gd3bj guess=read geom=check nosymm
 integral(ultrafinegrid)
 ----------------------------------------------------------------------

 ------------------------------------------------------
 Candidate Structure: Conf:950 Charge calc in gas phase
 ------------------------------------------------------
 Structure from the checkpoint file:  "conf-950.chk"
 Charge =  1 Multiplicity = 1

                          Input orientation:
 ---------------------------------------------------------------------
 Center     Atomic      Atomic             Coordinates (Angstroms)
 Number     Number       Type             X           Y           Z
 ---------------------------------------------------------------------
      1          7           0       -2.895307    1.933275    3.848535
      2          1           0       -3.195812    1.035596    4.223828
      3          1           0       -2.556791    2.485642    4.639282
      4          6           0       -4.044061    2.635274    3.267274
      5          1           0       -4.996653    2.418741    3.774265
      6          6           0       -4.255466    2.246751    1.796195
      7          6           0       -3.824811    4.161461    3.307064
      8          1           0       -2.855198    4.384169    2.843900
      9          1           0       -4.605583    4.637395    2.708446
     10          8           0       -5.244752    2.601046    1.158980
     11          6           0       -3.784450    4.691324    4.734885
     12          7           0       -4.649288    5.699150    5.017630
     13          1           0       -4.666279    6.070726    5.957761
     14          1           0       -5.314647    6.049395    4.345940
     15          8           0       -3.011838    4.233877    5.574695
     16          7           0       -3.238297    1.523440    1.267816
     17          1           0       -2.449153    1.323749    1.877794
     18          6           0       -3.234511    1.140738   -0.122333
     19          1           0       -4.255396    0.849678   -0.387681
     20          6           0       -2.287944   -0.035660   -0.286023
     21          6           0       -2.826982    2.333475   -1.048849
     22          1           0       -3.541404    3.119459   -0.778100
     23          8           0       -1.284235   -0.176695    0.429874
     24          6           0       -2.989207    2.039891   -2.550109
     25          1           0       -2.272132    1.266381   -2.857001
     26          1           0       -2.698118    2.949355   -3.091687
     27          6           0       -1.411697    2.828049   -0.736064
     28          1           0       -0.672194    2.069788   -1.015948
     29          1           0       -1.199114    3.746980   -1.294727
     30          1           0       -1.284916    3.042261    0.329052
     31          6           0       -4.409747    1.660374   -2.983229
     32          1           0       -4.482573    1.602098   -4.073778
     33          1           0       -4.737324    0.689854   -2.588043
     34          1           0       -5.137465    2.400288   -2.633281
     35          7           0       -2.561373   -0.901166   -1.284925
     36          1           0       -3.367730   -0.736512   -1.872246
     37          6           0       -1.635893   -1.961369   -1.663906
     38          1           0       -1.655160   -2.740948   -0.892859
     39          6           0       -0.222509   -1.365571   -1.739899
     40          6           0       -2.040738   -2.547702   -3.016678
     41          1           0       -1.377117   -3.373712   -3.286379
     42          1           0       -3.063119   -2.936256   -2.974404
     43          1           0       -1.976081   -1.781047   -3.794273
     44          8           0       -0.012051   -0.360151   -2.436438
     45          7           0        0.719853   -2.020317   -1.043532
     46          1           0        0.476142   -2.862565   -0.535304
     47          6           0        2.060618   -1.525971   -0.813815
     48          1           0        2.297202   -0.854030   -1.637365
     49          6           0        3.038649   -2.705533   -0.872378
     50          6           0        2.116894   -0.705548    0.511950
     51          1           0        1.629700   -1.304087    1.291386
     52          8           0        2.672022   -3.851206   -0.605044
     53          6           0        3.517834   -0.324831    0.969484
     54          1           0        4.114037   -1.204099    1.223686
     55          1           0        3.432789    0.306752    1.857043
     56          1           0        4.062894    0.240550    0.204419
     57          8           0        1.385464    0.510807    0.331898
     58          1           0        0.421101    0.330884    0.425242
     59          7           0        4.266833   -2.330909   -1.269123
     60          1           0        4.473316   -1.335954   -1.309967
     61          6           0        5.502534   -3.110531   -1.268449
     62          1           0        5.676771   -3.540834   -0.271164
     63          6           0        6.582580   -2.031877   -1.502730
     64          6           0        5.451871   -4.289309   -2.261313
     65          1           0        6.464242   -4.655677   -2.465875
     66          1           0        5.036078   -3.922141   -3.213446
     67          8           0        6.334887   -0.852829   -1.220632
     68          8           0        4.755397   -5.388158   -1.736596
     69          1           0        3.901472   -5.069821   -1.380153
     70          7           0        7.782855   -2.396618   -1.984852
     71          1           0        7.936460   -3.335471   -2.319691
     72          6           0        8.765237   -1.365052   -2.281647
     73          1           0        9.144614   -0.936329   -1.348239
     74          1           0        9.599342   -1.834215   -2.808839
     75          6           0        8.151099   -0.280506   -3.189125
     76          8           0        7.456408   -0.573260   -4.152570
     77          7           0        8.461046    0.991475   -2.831177
     78          1           0        9.001466    1.156816   -1.994378
     79          6           0        7.961446    2.149368   -3.549231
     80          1           0        7.760321    1.820727   -4.574585
     81          6           0        8.997711    3.265162   -3.640292
     82          6           0        6.655653    2.717797   -2.944826
     83          1           0        6.807884    2.866088   -1.867201
     84          1           0        6.481894    3.703750   -3.388337
     85          8           0        8.790184    4.317315   -4.196303
     86          6           0        5.450434    1.807278   -3.187770
     87          1           0        5.267633    1.742588   -4.268610
     88          1           0        5.676647    0.793295   -2.848359
     89          6           0        4.179310    2.295463   -2.475120
     90          1           0        3.999789    3.359156   -2.680525
     91          1           0        4.303963    2.193416   -1.388555
     92          6           0        2.987864    1.468708   -2.941723
     93          1           0        2.738677    1.676979   -3.985236
     94          1           0        3.208778    0.401108   -2.870745
     95          7           0        1.735745    1.694780   -2.141083
     96          1           0        0.988904    1.017239   -2.431531
     97          1           0        1.388430    2.652990   -2.228158
     98          1           0        1.830060    1.464927   -1.121517
     99          8           0       10.158202    2.968435   -3.012843
    100          1           0       10.739595    3.745250   -3.124324
 ---------------------------------------------------------------------

 SCF Done:  E(RB3LYP) =  -2418.67872293     A.U. after    3 cycles

 Alpha  occ. eigenvalues --  -19.28441 -19.26462 -19.24868 -19.23650 -19.23559
 Alpha  occ. eigenvalues --  -19.23226 -19.22198 -19.20897 -19.19928 -19.17849
 Alpha  occ. eigenvalues --  -19.17600 -14.55048 -14.48625 -14.47813 -14.47574
 Alpha  occ. eigenvalues --  -14.46922 -14.45044 -14.42487 -14.42378 -14.38088
 Alpha  occ. eigenvalues --  -10.41689 -10.40615 -10.40583 -10.40208 -10.40108
 Alpha  occ. eigenvalues --  -10.37786 -10.36772 -10.36020 -10.35712 -10.35319
 Alpha  occ. eigenvalues --  -10.35293 -10.34600 -10.34017 -10.33071 -10.32788
 Alpha  occ. eigenvalues --  -10.32548 -10.32029 -10.30916 -10.29344 -10.29270
 Alpha  occ. eigenvalues --  -10.28365 -10.28197 -10.28175 -10.28127 -10.26970
 Alpha  occ. eigenvalues --  -10.26918 -10.26583 -10.26003  -1.19182  -1.16912
 Alpha  occ. eigenvalues --   -1.15841  -1.15092  -1.14838  -1.13604  -1.12080
 Alpha  occ. eigenvalues --   -1.10387  -1.10103  -1.09789  -1.09566  -1.09047
 Alpha  occ. eigenvalues --   -1.05211  -1.04206  -1.04132  -1.03243  -1.01757
 Alpha  occ. eigenvalues --   -0.99888  -0.97067  -0.95470  -0.91818  -0.91074
 Alpha  occ. eigenvalues --   -0.89813  -0.88244  -0.87611  -0.86454  -0.83326
 Alpha  occ. eigenvalues --   -0.82985  -0.82338  -0.82206  -0.80408  -0.80283
 Alpha  occ. eigenvalues --   -0.76451  -0.75670  -0.75039  -0.73297  -0.72454
 Alpha  occ. eigenvalues --   -0.71981  -0.71471  -0.71301  -0.70996  -0.70281
 Alpha  occ. eigenvalues --   -0.69706  -0.68843  -0.68383  -0.67469  -0.67234
 Alpha  occ. eigenvalues --   -0.67025  -0.66387  -0.65388  -0.64669  -0.63640
 Alpha  occ. eigenvalues --   -0.63012  -0.62286  -0.61744  -0.61382  -0.60668
 Alpha  occ. eigenvalues --   -0.60449  -0.60333  -0.60082  -0.59371  -0.58596
 Alpha  occ. eigenvalues --   -0.58463  -0.57726  -0.57123  -0.56899  -0.56640
 Alpha  occ. eigenvalues --   -0.56339  -0.56040  -0.55510  -0.55128  -0.54702
 Alpha  occ. eigenvalues --   -0.54589  -0.54037  -0.53748  -0.53322  -0.53257
 Alpha  occ. eigenvalues --   -0.52804  -0.52695  -0.52401  -0.51744  -0.51551
 Alpha  occ. eigenvalues --   -0.51380  -0.51054  -0.50765  -0.50725  -0.50534
 Alpha  occ. eigenvalues --   -0.50267  -0.49867  -0.49817  -0.49625  -0.49409
 Alpha  occ. eigenvalues --   -0.49310  -0.48831  -0.48781  -0.48555  -0.48308
 Alpha  occ. eigenvalues --   -0.47867  -0.47677  -0.47265  -0.47076  -0.46645
 Alpha  occ. eigenvalues --   -0.46369  -0.46070  -0.45798  -0.45400  -0.44979
 Alpha  occ. eigenvalues --   -0.44858  -0.44391  -0.44250  -0.44207  -0.43874
 Alpha  occ. eigenvalues --   -0.43113  -0.42429  -0.42402  -0.42217  -0.41208
 Alpha  occ. eigenvalues --   -0.40905  -0.40483  -0.40076  -0.39352  -0.38326
 Alpha  occ. eigenvalues --   -0.37772  -0.37673  -0.37328  -0.37096  -0.36833
 Alpha  occ. eigenvalues --   -0.36504  -0.35910  -0.34177  -0.34040  -0.33690
 Alpha  occ. eigenvalues --   -0.33295  -0.32883  -0.32214  -0.31930  -0.29755
 Alpha virt. eigenvalues --   -0.10938  -0.09953  -0.09220  -0.09163  -0.07614
 Alpha virt. eigenvalues --   -0.06938  -0.06408  -0.05025  -0.04588  -0.03397
 Alpha virt. eigenvalues --   -0.03119  -0.02274  -0.01780  -0.01620  -0.01153

 Mulliken charges:
               1
     1  N   -0.782487
     2  H    0.310039
     3  H    0.356665
     4  C   -0.045932
     5  H    0.161023
     6  C    0.602599
     7  C   -0.380973
     8  H    0.175191
     9  H    0.173446
    10  O   -0.544756
    11  C    0.610946
    12  N   -0.740570
    13  H    0.353891
    14  H    0.349141
    15  O   -0.515204
    16  N   -0.617580
    17  H    0.369154
    18  C   -0.043298
    19  H    0.182960
    20  C    0.656434
    21  C   -0.077965
    22  H    0.179758
    23  O   -0.593237
    24  C   -0.287639
    25  H    0.138891
    26  H    0.144996
    27  C   -0.482992
    28  H    0.111993
    29  H    0.146091
    30  H    0.174361
    31  C   -0.463813
    32  H    0.162570
    33  H    0.128312
    34  H    0.181716
    35  N   -0.606003
    36  H    0.360645
    37  C   -0.012048
    38  H    0.174775
    39  C    0.654842
    40  C   -0.496231
    41  H    0.186731
    42  H    0.182663
    43  H    0.188019
    44  O   -0.587163
    45  N   -0.579820
    46  H    0.365463
    47  C   -0.104059
    48  H    0.145517
    49  C    0.646289
    50  C    0.134623
    51  H    0.168119
    52  O   -0.541205
    53  C   -0.484313
    54  H    0.177634
    55  H    0.191155
    56  H    0.155300
    57  O   -0.690588
    58  H    0.477507
    59  N   -0.642233
    60  H    0.374833
    61  C   -0.072982
    62  H    0.207072
    63  C    0.629625
    64  C   -0.011447
    65  H    0.138490
    66  H    0.147374
    67  O   -0.553180
    68  O   -0.633193
    69  H    0.428903
    70  N   -0.587667
    71  H    0.360666
    72  C   -0.231696
    73  H    0.180024
    74  H    0.201033
    75  C    0.644932
    76  O   -0.527581
    77  N   -0.593655
    78  H    0.344051
    79  C   -0.064503
    80  H    0.216451
    81  C    0.591492
    82  C   -0.267425
    83  H    0.144991
    84  H    0.180068
    85  O   -0.447329
    86  C   -0.290161
    87  H    0.155681
    88  H    0.196881
    89  C   -0.288162
    90  H    0.161039
    91  H    0.165740
    92  C   -0.193867
    93  H    0.206987
    94  H    0.203936
    95  N   -0.806539
    96  H    0.453023
    97  H    0.393219
    98  H    0.428900
    99  O   -0.572391
   100  H    0.427026
 Sum of Mulliken charges =   1.00000

 Dipole moment (field-independent basis, Debye):
    X=             10.4668    Y=              4.4610    Z=             -6.3016  Tot=             13.0064
 Quadrupole moment (field-independent basis, Debye-Ang):
   XX=           -121.7208   YY=           -248.2758   ZZ=           -265.7432
   XY=             -9.2762   XZ=            -29.0424   YZ=              8.6318

 Normal termination of Gaussian 16 at Thu Jul 21 23:50:45 2022.
