 Gaussian 16, Revision C.01,
 Gaussian 16:  ES64L-G16RevC.01  3-Jul-2019

 ----------------------------------------------------------------------
 # B3LYP/6-31G* empiricaldispersion=gd3bj guess=read geom=check nosymm
 integral(ultrafinegrid)
 ----------------------------------------------------------------------

 ------------------------------------------------------
 Candidate Structure: Conf:123 Charge calc in gas phase
 ------------------------------------------------------
 Structure from the checkpoint file:  "conf-123.chk"
 Charge =  1 Multiplicity = 1

                          Input orientation:
 ---------------------------------------------------------------------
 Center     Atomic      Atomic             Coordinates (Angstroms)
 Number     Number       Type             X           Y           Z
 ---------------------------------------------------------------------
      1          7           0       -7.189123    1.412373    4.468407
      2          1           0       -6.556486    2.163150    4.750526
      3          1           0       -7.376871    0.887801    5.321743
      4          6           0       -6.460963    0.560004    3.536518
      5          1           0       -6.965007   -0.407419    3.463581
      6          6           0       -4.993613    0.355118    3.950409
      7          6           0       -6.487770    1.212009    2.140748
      8          1           0       -7.536476    1.420760    1.897890
      9          1           0       -5.968927    2.177578    2.176283
     10          8           0       -4.382833    1.248829    4.552074
     11          6           0       -5.904304    0.318618    1.053695
     12          7           0       -5.357514    0.969236   -0.011938
     13          1           0       -5.074295    0.410345   -0.806073
     14          1           0       -5.482024    1.961812   -0.147136
     15          8           0       -5.913707   -0.907877    1.126172
     16          7           0       -4.428122   -0.815953    3.576215
     17          1           0       -4.931522   -1.352762    2.872533
     18          6           0       -2.989225   -1.060285    3.712185
     19          1           0       -2.682408   -0.566506    4.639980
     20          6           0       -2.308293   -0.354316    2.523880
     21          6           0       -2.656231   -2.557139    3.784857
     22          1           0       -2.882763   -2.989748    2.800759
     23          8           0       -1.919695   -0.951373    1.516494
     24          6           0       -3.516822   -3.260709    4.849851
     25          1           0       -4.574260   -3.040809    4.664974
     26          1           0       -3.286001   -2.830316    5.835268
     27          6           0       -1.155162   -2.732984    4.052656
     28          1           0       -0.896912   -2.347685    5.048609
     29          1           0       -0.876872   -3.790169    4.026839
     30          1           0       -0.543739   -2.216280    3.309796
     31          6           0       -3.327860   -4.779470    4.892679
     32          1           0       -4.024950   -5.236332    5.603254
     33          1           0       -3.514652   -5.225855    3.908311
     34          1           0       -2.315188   -5.060153    5.198986
     35          7           0       -2.237940    0.996215    2.648848
     36          1           0       -2.713735    1.405725    3.452590
     37          6           0       -1.992129    1.857030    1.488797
     38          1           0       -2.401994    1.338111    0.612642
     39          6           0       -0.481574    2.035457    1.249802
     40          6           0       -2.682881    3.200673    1.679707
     41          1           0       -2.514307    3.841413    0.811346
     42          1           0       -3.757895    3.050208    1.816413
     43          1           0       -2.284325    3.723658    2.553326
     44          8           0        0.064952    3.143038    1.284805
     45          7           0        0.189407    0.890316    0.987995
     46          1           0       -0.326647    0.009436    1.053600
     47          6           0        1.645874    0.862926    0.980559
     48          1           0        1.990009    1.625975    1.693431
     49          6           0        2.180650    1.261348   -0.407458
     50          6           0        2.161704   -0.520431    1.418699
     51          1           0        1.947824   -1.237390    0.621759
     52          8           0        2.774447    0.461623   -1.147375
     53          6           0        3.660629   -0.503796    1.702882
     54          1           0        4.223907   -0.234937    0.806051
     55          1           0        3.980668   -1.494467    2.037496
     56          1           0        3.897552    0.219373    2.495039
     57          8           0        1.423758   -0.991770    2.542720
     58          1           0        1.589223   -0.390903    3.287604
     59          7           0        1.944171    2.543287   -0.750495
     60          1           0        1.435086    3.144204   -0.095312
     61          6           0        2.228206    3.046101   -2.089253
     62          1           0        2.007964    2.248865   -2.809475
     63          6           0        3.719504    3.397867   -2.212214
     64          6           0        1.361039    4.271003   -2.387072
     65          1           0        0.306823    3.985135   -2.321375
     66          1           0        1.568485    4.595212   -3.416736
     67          8           0        4.138532    4.557359   -2.268189
     68          8           0        1.568176    5.302006   -1.444766
     69          1           0        2.507994    5.544093   -1.543688
     70          7           0        4.548124    2.321949   -2.293802
     71          1           0        4.135453    1.414986   -2.058243
     72          6           0        5.985850    2.520369   -2.276907
     73          1           0        6.327686    3.004344   -1.356366
     74          1           0        6.468241    1.540846   -2.350950
     75          6           0        6.463789    3.417681   -3.421953
     76          8           0        7.459892    4.120995   -3.319231
     77          7           0        5.716167    3.344316   -4.571448
     78          1           0        4.829888    2.855725   -4.479213
     79          6           0        5.631443    4.519132   -5.419552
     80          1           0        5.970439    5.388107   -4.841367
     81          6           0        4.162203    4.742060   -5.756803
     82          6           0        6.494198    4.421551   -6.693230
     83          1           0        6.150031    3.572041   -7.297284
     84          1           0        6.345863    5.330639   -7.286925
     85          8           0        3.260476    3.997809   -5.436431
     86          6           0        7.972939    4.249331   -6.339250
     87          1           0        8.283911    5.055780   -5.666612
     88          1           0        8.101668    3.322318   -5.771650
     89          6           0        8.875943    4.227198   -7.580704
     90          1           0        8.758480    5.162191   -8.146315
     91          1           0        8.583616    3.402034   -8.245179
     92          6           0       10.325055    4.060903   -7.152420
     93          1           0       10.667247    4.881628   -6.518082
     94          1           0       10.500578    3.115799   -6.633820
     95          7           0       11.257131    4.052967   -8.368641
     96          1           0       12.243296    3.942195   -8.102993
     97          1           0       11.171647    4.928531   -8.899124
     98          1           0       11.016255    3.286425   -9.008666
     99          8           0        3.981078    5.869464   -6.467097
    100          1           0        3.021835    5.956013   -6.628332
 ---------------------------------------------------------------------

 SCF Done:  E(RB3LYP) =  -2418.63511360     A.U. after    1 cycles

 Alpha  occ. eigenvalues --  -19.28908 -19.23455 -19.19801 -19.19259 -19.19235
 Alpha  occ. eigenvalues --  -19.18240 -19.18189 -19.17085 -19.16941 -19.16725
 Alpha  occ. eigenvalues --  -19.16681 -14.65581 -14.42862 -14.42612 -14.41623
 Alpha  occ. eigenvalues --  -14.41426 -14.40443 -14.40295 -14.40269 -14.35455
 Alpha  occ. eigenvalues --  -10.42292 -10.41338 -10.36353 -10.35548 -10.34804
 Alpha  occ. eigenvalues --  -10.34803 -10.34758 -10.33465 -10.33244 -10.32977
 Alpha  occ. eigenvalues --  -10.32689 -10.30482 -10.30096 -10.29473 -10.29044
 Alpha  occ. eigenvalues --  -10.29008 -10.28487 -10.28366 -10.28183 -10.27182
 Alpha  occ. eigenvalues --  -10.26969 -10.24762 -10.22883 -10.22557 -10.22504
 Alpha  occ. eigenvalues --  -10.21208 -10.20315 -10.19910  -1.19953  -1.19460
 Alpha  occ. eigenvalues --   -1.11689  -1.10962  -1.10649  -1.09735  -1.09122
 Alpha  occ. eigenvalues --   -1.08837  -1.08334  -1.07773  -1.07218  -1.06023
 Alpha  occ. eigenvalues --   -1.00791  -0.99034  -0.98054  -0.97577  -0.97121
 Alpha  occ. eigenvalues --   -0.96348  -0.96098  -0.95945  -0.93117  -0.89221
 Alpha  occ. eigenvalues --   -0.84850  -0.84543  -0.83831  -0.82194  -0.81462
 Alpha  occ. eigenvalues --   -0.81010  -0.79694  -0.78756  -0.78063  -0.77360
 Alpha  occ. eigenvalues --   -0.76089  -0.75732  -0.73790  -0.71299  -0.70668
 Alpha  occ. eigenvalues --   -0.70165  -0.69422  -0.68993  -0.67506  -0.67008
 Alpha  occ. eigenvalues --   -0.66743  -0.65732  -0.64985  -0.64618  -0.63808
 Alpha  occ. eigenvalues --   -0.63356  -0.62913  -0.62046  -0.61908  -0.60235
 Alpha  occ. eigenvalues --   -0.60072  -0.59680  -0.58937  -0.58689  -0.58040
 Alpha  occ. eigenvalues --   -0.57768  -0.57531  -0.56906  -0.56571  -0.56000
 Alpha  occ. eigenvalues --   -0.55538  -0.55229  -0.54798  -0.54246  -0.54178
 Alpha  occ. eigenvalues --   -0.53907  -0.52810  -0.52593  -0.52476  -0.52181
 Alpha  occ. eigenvalues --   -0.51866  -0.51539  -0.50656  -0.50351  -0.50124
 Alpha  occ. eigenvalues --   -0.49796  -0.49455  -0.49142  -0.48505  -0.48204
 Alpha  occ. eigenvalues --   -0.47925  -0.47535  -0.47225  -0.47155  -0.47003
 Alpha  occ. eigenvalues --   -0.46788  -0.46650  -0.46313  -0.46173  -0.46126
 Alpha  occ. eigenvalues --   -0.45610  -0.45362  -0.45089  -0.44843  -0.44491
 Alpha  occ. eigenvalues --   -0.43958  -0.43774  -0.43577  -0.43385  -0.43095
 Alpha  occ. eigenvalues --   -0.42602  -0.42508  -0.42249  -0.42160  -0.41637
 Alpha  occ. eigenvalues --   -0.41201  -0.40983  -0.40596  -0.40517  -0.40099
 Alpha  occ. eigenvalues --   -0.39466  -0.38837  -0.38254  -0.37469  -0.37127
 Alpha  occ. eigenvalues --   -0.36333  -0.35726  -0.35264  -0.34409  -0.34307
 Alpha  occ. eigenvalues --   -0.33784  -0.33557  -0.33199  -0.32589  -0.32396
 Alpha  occ. eigenvalues --   -0.32176  -0.31946  -0.31635  -0.31231  -0.30642
 Alpha  occ. eigenvalues --   -0.30101  -0.29643  -0.29189  -0.28536  -0.28088
 Alpha virt. eigenvalues --   -0.15965  -0.09279  -0.09251  -0.08372  -0.06641
 Alpha virt. eigenvalues --   -0.05723  -0.05359  -0.04372  -0.04127  -0.03253
 Alpha virt. eigenvalues --   -0.03175  -0.02924  -0.01893  -0.01570  -0.01173

 Mulliken charges:
               1
     1  N   -0.703316
     2  H    0.315223
     3  H    0.308630
     4  C   -0.074339
     5  H    0.168619
     6  C    0.581530
     7  C   -0.369789
     8  H    0.204159
     9  H    0.163213
    10  O   -0.560406
    11  C    0.609687
    12  N   -0.744720
    13  H    0.352178
    14  H    0.345655
    15  O   -0.522795
    16  N   -0.601092
    17  H    0.376888
    18  C   -0.053569
    19  H    0.172421
    20  C    0.627658
    21  C   -0.088123
    22  H    0.148196
    23  O   -0.552257
    24  C   -0.251494
    25  H    0.137780
    26  H    0.129475
    27  C   -0.493630
    28  H    0.128128
    29  H    0.152690
    30  H    0.199485
    31  C   -0.449381
    32  H    0.147352
    33  H    0.145328
    34  H    0.150189
    35  N   -0.618805
    36  H    0.379910
    37  C   -0.054787
    38  H    0.175459
    39  C    0.622467
    40  C   -0.474076
    41  H    0.169607
    42  H    0.147205
    43  H    0.179419
    44  O   -0.546254
    45  N   -0.621045
    46  H    0.399586
    47  C   -0.078928
    48  H    0.166213
    49  C    0.641719
    50  C    0.127865
    51  H    0.171661
    52  O   -0.569140
    53  C   -0.473617
    54  H    0.162573
    55  H    0.169672
    56  H    0.134131
    57  O   -0.611629
    58  H    0.390305
    59  N   -0.616830
    60  H    0.402194
    61  C   -0.075090
    62  H    0.177878
    63  C    0.624921
    64  C   -0.058803
    65  H    0.152376
    66  H    0.145763
    67  O   -0.548795
    68  O   -0.627257
    69  H    0.417120
    70  N   -0.637388
    71  H    0.388634
    72  C   -0.212779
    73  H    0.203355
    74  H    0.180564
    75  C    0.597459
    76  O   -0.524882
    77  N   -0.597006
    78  H    0.361750
    79  C   -0.043502
    80  H    0.208880
    81  C    0.597031
    82  C   -0.270298
    83  H    0.151254
    84  H    0.165391
    85  O   -0.465521
    86  C   -0.267839
    87  H    0.181870
    88  H    0.178371
    89  C   -0.294939
    90  H    0.166135
    91  H    0.166325
    92  C   -0.207005
    93  H    0.235941
    94  H    0.233390
    95  N   -0.731715
    96  H    0.432654
    97  H    0.427721
    98  H    0.427356
    99  O   -0.561872
   100  H    0.428105
 Sum of Mulliken charges =   1.00000

 Dipole moment (field-independent basis, Debye):
    X=             43.2982    Y=             17.4295    Z=            -36.7941  Tot=             59.4334
 Quadrupole moment (field-independent basis, Debye-Ang):
   XX=            252.6526   YY=           -226.2658   ZZ=             50.0370
   XY=            169.3779   XZ=           -395.3425   YZ=           -165.9625

 Normal termination of Gaussian 16 at Thu Jul 21 23:49:51 2022.
