 Gaussian 16, Revision C.01,
 Gaussian 16:  ES64L-G16RevC.01  3-Jul-2019

 ----------------------------------------------------------------------
 # B3LYP/6-31G* empiricaldispersion=gd3bj guess=read geom=check nosymm
 integral(ultrafinegrid)
 ----------------------------------------------------------------------

 -----------------------------------------------------
 Candidate Structure: Conf:14 Charge calc in gas phase
 -----------------------------------------------------
 Structure from the checkpoint file:  "conf-14.chk"
 Charge =  1 Multiplicity = 1

                          Input orientation:
 ---------------------------------------------------------------------
 Center     Atomic      Atomic             Coordinates (Angstroms)
 Number     Number       Type             X           Y           Z
 ---------------------------------------------------------------------
      1          7           0       -7.442215    3.765135    2.348205
      2          1           0       -8.291217    3.842555    1.793451
      3          1           0       -6.942403    4.651508    2.294589
      4          6           0       -6.577570    2.719190    1.835763
      5          1           0       -6.950857    1.746809    2.181239
      6          6           0       -5.177335    2.953583    2.409812
      7          6           0       -6.460631    2.676457    0.279060
      8          1           0       -7.452152    2.451128   -0.134453
      9          1           0       -6.147054    3.658527   -0.080905
     10          8           0       -4.712868    4.093008    2.493311
     11          6           0       -5.432687    1.663286   -0.199707
     12          7           0       -5.741343    0.346145    0.068374
     13          1           0       -5.118001   -0.341091   -0.338576
     14          1           0       -6.708703    0.067238    0.166314
     15          8           0       -4.357714    1.985256   -0.683115
     16          7           0       -4.492066    1.841543    2.766795
     17          1           0       -4.863427    0.940438    2.490954
     18          6           0       -3.093230    1.897302    3.197523
     19          1           0       -2.986954    2.835455    3.751109
     20          6           0       -2.220846    1.967126    1.929562
     21          6           0       -2.720800    0.716973    4.106272
     22          1           0       -2.758546   -0.192994    3.490754
     23          8           0       -1.660908    0.971980    1.456166
     24          6           0       -3.716407    0.577722    5.272205
     25          1           0       -4.738503    0.536232    4.878261
     26          1           0       -3.670291    1.486333    5.889043
     27          6           0       -1.279405    0.896069    4.603578
     28          1           0       -1.206449    1.767128    5.267302
     29          1           0       -0.953877    0.019228    5.171053
     30          1           0       -0.585370    1.037915    3.772392
     31          6           0       -3.474038   -0.654257    6.148413
     32          1           0       -4.259860   -0.751718    6.904796
     33          1           0       -3.473942   -1.571819    5.546853
     34          1           0       -2.516237   -0.601970    6.675513
     35          7           0       -2.158689    3.195219    1.368429
     36          1           0       -2.783692    3.904032    1.747311
     37          6           0       -1.653828    3.392211    0.005674
     38          1           0       -1.905187    2.490074   -0.561810
     39          6           0       -0.121985    3.527061    0.033121
     40          6           0       -2.320495    4.602108   -0.631959
     41          1           0       -1.963308    4.732344   -1.656810
     42          1           0       -3.399309    4.435772   -0.658105
     43          1           0       -2.093879    5.516940   -0.076659
     44          8           0        0.453287    4.587130   -0.278874
     45          7           0        0.532458    2.410030    0.398413
     46          1           0       -0.040641    1.630093    0.734814
     47          6           0        1.982037    2.354240    0.583670
     48          1           0        2.302009    3.284779    1.068163
     49          6           0        2.637521    2.256585   -0.807876
     50          6           0        2.355369    1.175757    1.482190
     51          1           0        2.045161    0.249999    0.976751
     52          8           0        3.052501    1.194780   -1.287163
     53          6           0        3.854299    1.125206    1.765829
     54          1           0        4.420657    0.956046    0.846985
     55          1           0        4.076852    0.302789    2.455329
     56          1           0        4.185319    2.058278    2.234574
     57          8           0        1.607644    1.368014    2.684040
     58          1           0        1.736086    0.585724    3.241597
     59          7           0        2.666370    3.437686   -1.463908
     60          1           0        2.147402    4.185670   -1.001427
     61          6           0        2.769026    3.523181   -2.921511
     62          1           0        2.300398    2.624080   -3.343055
     63          6           0        4.235805    3.546473   -3.372469
     64          6           0        1.994321    4.754764   -3.411768
     65          1           0        2.115387    4.830263   -4.494660
     66          1           0        2.437549    5.660976   -2.974733
     67          8           0        4.716884    4.493905   -4.005849
     68          8           0        0.611461    4.647458   -3.143071
     69          1           0        0.458814    4.835179   -2.197255
     70          7           0        4.937614    2.440405   -3.037731
     71          1           0        4.446615    1.727602   -2.493474
     72          6           0        6.380966    2.351570   -3.208694
     73          1           0        6.836385    3.305172   -2.914719
     74          1           0        6.761200    1.560250   -2.562992
     75          6           0        6.817628    2.017328   -4.641353
     76          8           0        7.471209    1.014697   -4.920774
     77          7           0        6.436074    2.931502   -5.572390
     78          1           0        5.922001    3.758165   -5.260196
     79          6           0        6.837582    2.750333   -6.949837
     80          1           0        7.897929    2.453151   -6.944796
     81          6           0        6.753934    4.055624   -7.728989
     82          6           0        6.039949    1.628265   -7.642618
     83          1           0        5.930911    0.825650   -6.908398
     84          1           0        5.040242    1.997638   -7.899111
     85          8           0        6.527859    4.127324   -8.919645
     86          6           0        6.743219    1.083171   -8.887732
     87          1           0        6.872885    1.890655   -9.614141
     88          1           0        7.741276    0.722008   -8.604894
     89          6           0        5.951629   -0.068481   -9.522847
     90          1           0        4.951889    0.287957   -9.807511
     91          1           0        5.818317   -0.875086   -8.788462
     92          6           0        6.676232   -0.598866  -10.748114
     93          1           0        6.788469    0.158607  -11.527089
     94          1           0        7.658126   -1.012613  -10.507310
     95          7           0        5.884075   -1.745122  -11.386836
     96          1           0        6.348743   -2.127397  -12.219271
     97          1           0        4.948174   -1.427122  -11.666567
     98          1           0        5.754899   -2.513386  -10.717175
     99          8           0        6.986976    5.131438   -6.958045
    100          1           0        6.919395    5.916721   -7.534450
 ---------------------------------------------------------------------

 SCF Done:  E(RB3LYP) =  -2418.62929467     A.U. after    2 cycles

 Alpha  occ. eigenvalues --  -19.27539 -19.22020 -19.20047 -19.18400 -19.18109
 Alpha  occ. eigenvalues --  -19.18048 -19.18018 -19.17751 -19.17658 -19.17570
 Alpha  occ. eigenvalues --  -19.17100 -14.65011 -14.42286 -14.42238 -14.41631
 Alpha  occ. eigenvalues --  -14.41448 -14.41229 -14.41170 -14.40542 -14.36526
 Alpha  occ. eigenvalues --  -10.41705 -10.40203 -10.35410 -10.34851 -10.34693
 Alpha  occ. eigenvalues --  -10.34551 -10.34542 -10.34300 -10.33958 -10.33642
 Alpha  occ. eigenvalues --  -10.31635 -10.29665 -10.29551 -10.28926 -10.28815
 Alpha  occ. eigenvalues --  -10.28719 -10.28473 -10.28149 -10.27855 -10.27628
 Alpha  occ. eigenvalues --  -10.27593 -10.25647 -10.23826 -10.22731 -10.22395
 Alpha  occ. eigenvalues --  -10.21733 -10.21473 -10.21260  -1.18894  -1.18664
 Alpha  occ. eigenvalues --   -1.10449  -1.10016  -1.09820  -1.09550  -1.09531
 Alpha  occ. eigenvalues --   -1.09226  -1.09003  -1.08387  -1.07500  -1.05380
 Alpha  occ. eigenvalues --   -0.98956  -0.98729  -0.98645  -0.98108  -0.97509
 Alpha  occ. eigenvalues --   -0.96947  -0.96697  -0.95213  -0.94308  -0.88132
 Alpha  occ. eigenvalues --   -0.85979  -0.84526  -0.83400  -0.82105  -0.81617
 Alpha  occ. eigenvalues --   -0.81328  -0.79056  -0.78302  -0.77552  -0.77492
 Alpha  occ. eigenvalues --   -0.75875  -0.75484  -0.75016  -0.71095  -0.70930
 Alpha  occ. eigenvalues --   -0.69848  -0.69273  -0.68120  -0.67782  -0.67181
 Alpha  occ. eigenvalues --   -0.65820  -0.65183  -0.64609  -0.64265  -0.63659
 Alpha  occ. eigenvalues --   -0.63272  -0.63196  -0.62649  -0.62242  -0.61054
 Alpha  occ. eigenvalues --   -0.60620  -0.59997  -0.59328  -0.58811  -0.58418
 Alpha  occ. eigenvalues --   -0.57510  -0.56625  -0.56574  -0.56390  -0.55979
 Alpha  occ. eigenvalues --   -0.55725  -0.55266  -0.54489  -0.54355  -0.53685
 Alpha  occ. eigenvalues --   -0.53318  -0.53139  -0.52687  -0.52470  -0.52054
 Alpha  occ. eigenvalues --   -0.51939  -0.51850  -0.50079  -0.50062  -0.49661
 Alpha  occ. eigenvalues --   -0.49426  -0.48972  -0.48579  -0.48473  -0.48063
 Alpha  occ. eigenvalues --   -0.47756  -0.47728  -0.47334  -0.47096  -0.46953
 Alpha  occ. eigenvalues --   -0.46734  -0.46491  -0.46268  -0.45894  -0.45700
 Alpha  occ. eigenvalues --   -0.45358  -0.44804  -0.44793  -0.44528  -0.44404
 Alpha  occ. eigenvalues --   -0.44175  -0.43892  -0.43485  -0.43379  -0.43090
 Alpha  occ. eigenvalues --   -0.42838  -0.42502  -0.42499  -0.42060  -0.41972
 Alpha  occ. eigenvalues --   -0.41906  -0.41727  -0.41600  -0.41044  -0.40164
 Alpha  occ. eigenvalues --   -0.39817  -0.39634  -0.38172  -0.37472  -0.37003
 Alpha  occ. eigenvalues --   -0.36930  -0.36574  -0.35635  -0.34237  -0.34108
 Alpha  occ. eigenvalues --   -0.33867  -0.33573  -0.33299  -0.32935  -0.32526
 Alpha  occ. eigenvalues --   -0.32219  -0.31661  -0.31544  -0.31333  -0.30567
 Alpha  occ. eigenvalues --   -0.29877  -0.29800  -0.29551  -0.29121  -0.28409
 Alpha virt. eigenvalues --   -0.15409  -0.08730  -0.08666  -0.07262  -0.06136
 Alpha virt. eigenvalues --   -0.05258  -0.04732  -0.04630  -0.04432  -0.03702
 Alpha virt. eigenvalues --   -0.03313  -0.02605  -0.02412  -0.01244   0.00187

 Mulliken charges:
               1
     1  N   -0.710291
     2  H    0.301417
     3  H    0.327650
     4  C   -0.044041
     5  H    0.139856
     6  C    0.629214
     7  C   -0.372478
     8  H    0.154634
     9  H    0.189327
    10  O   -0.551142
    11  C    0.559312
    12  N   -0.740968
    13  H    0.351050
    14  H    0.339744
    15  O   -0.483224
    16  N   -0.596715
    17  H    0.345296
    18  C   -0.054313
    19  H    0.181405
    20  C    0.647176
    21  C   -0.090787
    22  H    0.137139
    23  O   -0.564408
    24  C   -0.251559
    25  H    0.131987
    26  H    0.139012
    27  C   -0.494427
    28  H    0.144243
    29  H    0.147087
    30  H    0.187284
    31  C   -0.449697
    32  H    0.151878
    33  H    0.139869
    34  H    0.152864
    35  N   -0.611671
    36  H    0.378438
    37  C   -0.052470
    38  H    0.204856
    39  C    0.643457
    40  C   -0.487516
    41  H    0.172999
    42  H    0.176227
    43  H    0.164880
    44  O   -0.580457
    45  N   -0.616667
    46  H    0.403416
    47  C   -0.052322
    48  H    0.183286
    49  C    0.636204
    50  C    0.119029
    51  H    0.148055
    52  O   -0.558884
    53  C   -0.474770
    54  H    0.169327
    55  H    0.145667
    56  H    0.159373
    57  O   -0.624289
    58  H    0.401922
    59  N   -0.614434
    60  H    0.376870
    61  C   -0.078359
    62  H    0.180315
    63  C    0.630941
    64  C   -0.058689
    65  H    0.157840
    66  H    0.149450
    67  O   -0.556433
    68  O   -0.656316
    69  H    0.432222
    70  N   -0.607997
    71  H    0.385421
    72  C   -0.236958
    73  H    0.192660
    74  H    0.185696
    75  C    0.598814
    76  O   -0.532319
    77  N   -0.632892
    78  H    0.395599
    79  C   -0.015504
    80  H    0.193638
    81  C    0.575549
    82  C   -0.263396
    83  H    0.177507
    84  H    0.151008
    85  O   -0.472510
    86  C   -0.288471
    87  H    0.191133
    88  H    0.160086
    89  C   -0.293721
    90  H    0.169274
    91  H    0.170611
    92  C   -0.208102
    93  H    0.232688
    94  H    0.230736
    95  N   -0.731300
    96  H    0.430967
    97  H    0.427482
    98  H    0.427731
    99  O   -0.543682
   100  H    0.425356
 Sum of Mulliken charges =   1.00000

 Dipole moment (field-independent basis, Debye):
    X=             16.8660    Y=             -8.2353    Z=            -42.6335  Tot=             46.5822
 Quadrupole moment (field-independent basis, Debye-Ang):
   XX=            -82.8061   YY=           -270.9373   ZZ=            245.2354
   XY=            -28.7942   XZ=           -265.4258   YZ=             74.4721

 Normal termination of Gaussian 16 at Thu Jul 21 23:50:23 2022.
