 Gaussian 16, Revision C.01,
 Gaussian 16:  ES64L-G16RevC.01  3-Jul-2019

 ----------------------------------------------------------------------
 # B3LYP/6-31G* empiricaldispersion=gd3bj guess=read geom=check nosymm
 integral(ultrafinegrid)
 ----------------------------------------------------------------------

 ------------------------------------------------------
 Candidate Structure: Conf:746 Charge calc in gas phase
 ------------------------------------------------------
 Structure from the checkpoint file:  "conf-746.chk"
 Charge =  1 Multiplicity = 1

                          Input orientation:
 ---------------------------------------------------------------------
 Center     Atomic      Atomic             Coordinates (Angstroms)
 Number     Number       Type             X           Y           Z
 ---------------------------------------------------------------------
      1          7           0       -3.888210   -4.360348    3.168249
      2          1           0       -4.741524   -4.161121    2.643214
      3          1           0       -4.115355   -4.130083    4.136189
      4          6           0       -2.830870   -3.438642    2.734343
      5          1           0       -1.954479   -3.653413    3.362197
      6          6           0       -3.192833   -1.972798    3.083504
      7          6           0       -2.429110   -3.719798    1.275355
      8          1           0       -3.303507   -3.621555    0.616201
      9          1           0       -1.685849   -2.995755    0.935253
     10          8           0       -3.851071   -1.751820    4.095400
     11          6           0       -1.797783   -5.090614    1.027444
     12          7           0       -2.227715   -6.092600    1.796504
     13          1           0       -1.842290   -7.017481    1.657406
     14          1           0       -2.949267   -5.895021    2.502893
     15          8           0       -0.933181   -5.251782    0.142615
     16          7           0       -2.655646   -1.010380    2.298733
     17          1           0       -2.375315   -1.216608    1.347333
     18          6           0       -2.760033    0.421066    2.557075
     19          1           0       -3.819373    0.699942    2.656784
     20          6           0       -2.217727    1.068182    1.266152
     21          6           0       -2.041927    0.798793    3.883458
     22          1           0       -2.465014    0.090539    4.602803
     23          8           0       -2.135324    0.391660    0.227525
     24          6           0       -2.402547    2.205582    4.411450
     25          1           0       -3.409549    2.487232    4.075033
     26          1           0       -1.707833    2.961792    4.013776
     27          6           0       -0.528379    0.565034    3.818249
     28          1           0       -0.042192    1.228481    3.092889
     29          1           0       -0.069352    0.750222    4.793826
     30          1           0       -0.303640   -0.468109    3.537063
     31          6           0       -2.349660    2.286005    5.941001
     32          1           0       -2.577836    3.298062    6.289512
     33          1           0       -3.077296    1.600770    6.388709
     34          1           0       -1.357634    2.019409    6.321120
     35          7           0       -1.829075    2.353758    1.315262
     36          1           0       -1.852391    2.839235    2.201059
     37          6           0       -1.172368    3.037287    0.190382
     38          1           0       -1.704965    2.737859   -0.717429
     39          6           0        0.292635    2.549510    0.083687
     40          6           0       -1.240269    4.544633    0.384206
     41          1           0       -0.786214    5.050494   -0.470984
     42          1           0       -2.280176    4.870801    0.476008
     43          1           0       -0.679259    4.844972    1.274102
     44          8           0        1.251097    3.230884    0.441350
     45          7           0        0.423266    1.294252   -0.412687
     46          1           0       -0.412182    0.761863   -0.641401
     47          6           0        1.714643    0.632493   -0.440776
     48          1           0        2.293035    0.963211    0.427330
     49          6           0        2.479212    1.021193   -1.713275
     50          6           0        1.556992   -0.892824   -0.390352
     51          1           0        2.565385   -1.311220   -0.491012
     52          8           0        2.391388    0.322890   -2.749048
     53          6           0        0.899450   -1.391103    0.883896
     54          1           0        1.496820   -1.106596    1.755190
     55          1           0        0.818312   -2.483846    0.874508
     56          1           0       -0.099851   -0.967426    0.996111
     57          8           0        0.750916   -1.301643   -1.518050
     58          1           0        1.216070   -0.873952   -2.285572
     59          7           0        3.222667    2.122776   -1.621099
     60          1           0        3.058279    2.730442   -0.821081
     61          6           0        4.067711    2.619453   -2.711265
     62          1           0        3.507761    2.520253   -3.647517
     63          6           0        5.350981    1.758492   -2.760170
     64          6           0        4.411516    4.078786   -2.456004
     65          1           0        4.987335    4.455940   -3.311715
     66          1           0        5.055747    4.144227   -1.569741
     67          8           0        6.419153    2.157516   -2.321747
     68          8           0        3.182173    4.769240   -2.280992
     69          1           0        3.384116    5.670119   -1.987894
     70          7           0        5.158343    0.525385   -3.318208
     71          1           0        4.187264    0.256032   -3.457897
     72          6           0        6.105466   -0.533116   -3.077668
     73          1           0        6.271196   -1.120101   -3.988718
     74          1           0        7.055543   -0.063617   -2.801655
     75          6           0        5.661618   -1.443508   -1.920059
     76          8           0        4.907500   -1.056052   -1.029300
     77          7           0        6.189774   -2.692606   -1.977355
     78          1           0        6.794800   -2.950965   -2.749596
     79          6           0        6.099420   -3.690492   -0.923970
     80          1           0        6.623461   -3.336421   -0.025051
     81          6           0        6.855428   -4.913384   -1.429342
     82          6           0        4.655961   -4.037387   -0.499506
     83          1           0        4.707219   -4.838856    0.244043
     84          1           0        4.258276   -3.148153   -0.006298
     85          8           0        7.384891   -4.991386   -2.516871
     86          6           0        3.735377   -4.426572   -1.659467
     87          1           0        3.867023   -3.701456   -2.471666
     88          1           0        4.009835   -5.409356   -2.064263
     89          6           0        2.267919   -4.408467   -1.216276
     90          1           0        2.094545   -3.459341   -0.702315
     91          1           0        2.056915   -5.201047   -0.489433
     92          6           0        1.285989   -4.500116   -2.383644
     93          1           0        1.650319   -3.936407   -3.247030
     94          1           0        1.096123   -5.529848   -2.694398
     95          7           0       -0.026465   -3.881134   -1.989361
     96          1           0       -0.714249   -3.942921   -2.743873
     97          1           0        0.150352   -2.864502   -1.773467
     98          1           0       -0.433608   -4.350545   -1.130499
     99          8           0        6.868486   -5.902443   -0.519356
    100          1           0        7.386096   -6.636503   -0.902304
 ---------------------------------------------------------------------

 SCF Done:  E(RB3LYP) =  -2418.70092749     A.U. after    2 cycles

 Alpha  occ. eigenvalues --  -19.29111 -19.25768 -19.23661 -19.23476 -19.22922
 Alpha  occ. eigenvalues --  -19.22354 -19.21720 -19.20837 -19.20664 -19.20155
 Alpha  occ. eigenvalues --  -19.18599 -14.53140 -14.46846 -14.45517 -14.45274
 Alpha  occ. eigenvalues --  -14.44996 -14.44689 -14.44587 -14.42753 -14.42327
 Alpha  occ. eigenvalues --  -10.41576 -10.40652 -10.39656 -10.38475 -10.37838
 Alpha  occ. eigenvalues --  -10.37636 -10.37271 -10.35689 -10.35470 -10.34208
 Alpha  occ. eigenvalues --  -10.33365 -10.33251 -10.32999 -10.32921 -10.32642
 Alpha  occ. eigenvalues --  -10.31224 -10.30983 -10.30488 -10.30228 -10.29838
 Alpha  occ. eigenvalues --  -10.28537 -10.27945 -10.27890 -10.27874 -10.27184
 Alpha  occ. eigenvalues --  -10.26510 -10.25904 -10.24874  -1.20223  -1.14964
 Alpha  occ. eigenvalues --   -1.14564  -1.14519  -1.12653  -1.12407  -1.12122
 Alpha  occ. eigenvalues --   -1.11890  -1.11237  -1.10406  -1.09085  -1.08612
 Alpha  occ. eigenvalues --   -1.03285  -1.02072  -1.01840  -1.01692  -1.01380
 Alpha  occ. eigenvalues --   -1.01088  -0.99190  -0.99087  -0.91181  -0.90307
 Alpha  occ. eigenvalues --   -0.88312  -0.87256  -0.87149  -0.86122  -0.85108
 Alpha  occ. eigenvalues --   -0.82475  -0.81908  -0.80746  -0.79609  -0.79264
 Alpha  occ. eigenvalues --   -0.76002  -0.74788  -0.74151  -0.72392  -0.72169
 Alpha  occ. eigenvalues --   -0.71198  -0.70782  -0.70253  -0.69755  -0.69013
 Alpha  occ. eigenvalues --   -0.68858  -0.67885  -0.67587  -0.67055  -0.66612
 Alpha  occ. eigenvalues --   -0.65518  -0.64912  -0.64796  -0.64577  -0.63227
 Alpha  occ. eigenvalues --   -0.62249  -0.61969  -0.61464  -0.60823  -0.60531
 Alpha  occ. eigenvalues --   -0.60099  -0.59725  -0.58330  -0.58209  -0.58149
 Alpha  occ. eigenvalues --   -0.57967  -0.57534  -0.57216  -0.57021  -0.56780
 Alpha  occ. eigenvalues --   -0.56290  -0.55880  -0.55679  -0.55251  -0.55171
 Alpha  occ. eigenvalues --   -0.54417  -0.54062  -0.53802  -0.53590  -0.53327
 Alpha  occ. eigenvalues --   -0.52608  -0.52316  -0.51798  -0.51236  -0.51117
 Alpha  occ. eigenvalues --   -0.50760  -0.50652  -0.50408  -0.50294  -0.49689
 Alpha  occ. eigenvalues --   -0.49618  -0.49405  -0.49180  -0.48923  -0.48643
 Alpha  occ. eigenvalues --   -0.48417  -0.48242  -0.47973  -0.47829  -0.47274
 Alpha  occ. eigenvalues --   -0.47161  -0.47067  -0.46675  -0.46533  -0.46485
 Alpha  occ. eigenvalues --   -0.46271  -0.45933  -0.45823  -0.45262  -0.45028
 Alpha  occ. eigenvalues --   -0.44748  -0.44522  -0.44443  -0.43789  -0.43621
 Alpha  occ. eigenvalues --   -0.43486  -0.43040  -0.42030  -0.41342  -0.41250
 Alpha  occ. eigenvalues --   -0.40872  -0.40771  -0.38888  -0.38196  -0.38068
 Alpha  occ. eigenvalues --   -0.37767  -0.37375  -0.37207  -0.36770  -0.36409
 Alpha  occ. eigenvalues --   -0.36130  -0.34764  -0.34567  -0.34305  -0.34137
 Alpha  occ. eigenvalues --   -0.33828  -0.33755  -0.33464  -0.32280  -0.31441
 Alpha virt. eigenvalues --   -0.09378  -0.08822  -0.08602  -0.08226  -0.07270
 Alpha virt. eigenvalues --   -0.06405  -0.06173  -0.05789  -0.04502  -0.02634
 Alpha virt. eigenvalues --   -0.02275  -0.01214  -0.00766   0.00041   0.00319

 Mulliken charges:
               1
     1  N   -0.735670
     2  H    0.319661
     3  H    0.348487
     4  C   -0.087339
     5  H    0.187525
     6  C    0.610754
     7  C   -0.399476
     8  H    0.188172
     9  H    0.170848
    10  O   -0.517007
    11  C    0.616430
    12  N   -0.724338
    13  H    0.353628
    14  H    0.405310
    15  O   -0.580904
    16  N   -0.657496
    17  H    0.374430
    18  C   -0.030421
    19  H    0.193010
    20  C    0.615094
    21  C   -0.100955
    22  H    0.190633
    23  O   -0.570759
    24  C   -0.297148
    25  H    0.150446
    26  H    0.137722
    27  C   -0.474505
    28  H    0.145198
    29  H    0.168192
    30  H    0.150926
    31  C   -0.457014
    32  H    0.162134
    33  H    0.167369
    34  H    0.157042
    35  N   -0.605235
    36  H    0.362253
    37  C   -0.059225
    38  H    0.188986
    39  C    0.630977
    40  C   -0.471560
    41  H    0.187842
    42  H    0.165875
    43  H    0.176790
    44  O   -0.528869
    45  N   -0.616473
    46  H    0.383398
    47  C   -0.075760
    48  H    0.192007
    49  C    0.699626
    50  C    0.082100
    51  H    0.198072
    52  O   -0.611828
    53  C   -0.499694
    54  H    0.176695
    55  H    0.151750
    56  H    0.166877
    57  O   -0.704212
    58  H    0.441818
    59  N   -0.590831
    60  H    0.386527
    61  C   -0.076998
    62  H    0.190144
    63  C    0.622658
    64  C   -0.065354
    65  H    0.159589
    66  H    0.165236
    67  O   -0.506344
    68  O   -0.624249
    69  H    0.409357
    70  N   -0.590770
    71  H    0.368905
    72  C   -0.254481
    73  H    0.168242
    74  H    0.228967
    75  C    0.612072
    76  O   -0.529860
    77  N   -0.629679
    78  H    0.362642
    79  C   -0.015355
    80  H    0.200408
    81  C    0.582920
    82  C   -0.292862
    83  H    0.171459
    84  H    0.182508
    85  O   -0.460054
    86  C   -0.273727
    87  H    0.154120
    88  H    0.156364
    89  C   -0.302874
    90  H    0.170262
    91  H    0.178806
    92  C   -0.176185
    93  H    0.188817
    94  H    0.201032
    95  N   -0.810982
    96  H    0.383079
    97  H    0.437764
    98  H    0.439684
    99  O   -0.562538
   100  H    0.429392
 Sum of Mulliken charges =   1.00000

 Dipole moment (field-independent basis, Debye):
    X=              0.1438    Y=            -12.5456    Z=             -0.9508  Tot=             12.5824
 Quadrupole moment (field-independent basis, Debye-Ang):
   XX=           -238.2883   YY=           -164.3054   ZZ=           -253.2332
   XY=            -19.9002   XZ=            -16.5181   YZ=             13.0414

 Normal termination of Gaussian 16 at Thu Jul 21 23:50:29 2022.
