 Gaussian 16, Revision C.01,
 Gaussian 16:  ES64L-G16RevC.01  3-Jul-2019

 ----------------------------------------------------------------------
 # B3LYP/6-31G* empiricaldispersion=gd3bj guess=read geom=check nosymm
 integral(ultrafinegrid)
 ----------------------------------------------------------------------

 ------------------------------------------------------
 Candidate Structure: Conf:535 Charge calc in gas phase
 ------------------------------------------------------
 Structure from the checkpoint file:  "conf-535.chk"
 Charge =  1 Multiplicity = 1

                          Input orientation:
 ---------------------------------------------------------------------
 Center     Atomic      Atomic             Coordinates (Angstroms)
 Number     Number       Type             X           Y           Z
 ---------------------------------------------------------------------
      1          7           0       -7.386214    0.379268    2.695129
      2          1           0       -8.312242    0.171504    2.324051
      3          1           0       -7.510442    0.553863    3.692966
      4          6           0       -6.921603    1.603303    2.035681
      5          1           0       -7.084661    1.451665    0.961135
      6          6           0       -5.408970    1.772087    2.207155
      7          6           0       -7.655353    2.889027    2.431650
      8          1           0       -7.611040    3.029241    3.520841
      9          1           0       -7.147580    3.753050    1.989071
     10          8           0       -4.836849    2.847836    1.979424
     11          6           0       -9.115570    2.842339    1.986415
     12          7           0       -9.834680    3.966317    2.251865
     13          1           0      -10.796405    4.004932    1.943730
     14          1           0       -9.410816    4.805592    2.617648
     15          8           0       -9.610349    1.860322    1.441846
     16          7           0       -4.765749    0.647264    2.581143
     17          1           0       -5.355389   -0.175996    2.680592
     18          6           0       -3.328085    0.596102    2.825857
     19          1           0       -3.050205    1.563573    3.261993
     20          6           0       -2.625155    0.474846    1.460048
     21          6           0       -2.940274   -0.531990    3.794082
     22          1           0       -3.133020   -1.484550    3.282124
     23          8           0       -2.155958   -0.587388    1.032185
     24          6           0       -3.786117   -0.474188    5.080196
     25          1           0       -4.851044   -0.486641    4.821304
     26          1           0       -3.607143    0.488869    5.579605
     27          6           0       -1.437884   -0.445985    4.099988
     28          1           0       -1.211955    0.462066    4.673592
     29          1           0       -1.114366   -1.304221    4.695713
     30          1           0       -0.846464   -0.428804    3.181955
     31          6           0       -3.509310   -1.621785    6.055435
     32          1           0       -4.202079   -1.583811    6.902415
     33          1           0       -3.636401   -2.594343    5.564591
     34          1           0       -2.493602   -1.581556    6.460992
     35          7           0       -2.603931    1.629558    0.753037
     36          1           0       -3.170348    2.395586    1.128323
     37          6           0       -2.295810    1.649423   -0.677981
     38          1           0       -2.656801    0.705612   -1.107923
     39          6           0       -0.772635    1.675900   -0.897016
     40          6           0       -2.984340    2.832419   -1.347125
     41          1           0       -2.836366    2.800456   -2.429565
     42          1           0       -4.057543    2.797239   -1.140159
     43          1           0       -2.582030    3.778809   -0.975975
     44          8           0       -0.199598    2.627620   -1.464884
     45          7           0       -0.123910    0.584175   -0.457272
     46          1           0       -0.679940   -0.100346    0.072304
     47          6           0        1.330997    0.460062   -0.475154
     48          1           0        1.764972    1.428133   -0.197572
     49          6           0        1.741555    0.116798   -1.916321
     50          6           0        1.787480   -0.591245    0.538038
     51          1           0        1.348985   -1.557392    0.249680
     52          8           0        1.951929   -1.046761   -2.285218
     53          6           0        3.309168   -0.709545    0.590632
     54          1           0        3.717025   -1.047269   -0.366202
     55          1           0        3.601460   -1.437566    1.355122
     56          1           0        3.756399    0.254356    0.855837
     57          8           0        1.258338   -0.147327    1.783950
     58          1           0        1.398592   -0.846212    2.440876
     59          7           0        1.773315    1.194217   -2.736241
     60          1           0        1.322687    2.016392   -2.318679
     61          6           0        1.650713    1.046637   -4.182188
     62          1           0        1.150658    0.099822   -4.403230
     63          6           0        2.992468    1.015193   -4.905803
     64          6           0        0.765213    2.188712   -4.744127
     65          1           0        0.707257    2.059903   -5.828268
     66          1           0        1.256751    3.153703   -4.544646
     67          8           0        3.128199    0.379183   -5.954275
     68          8           0       -0.540919    2.136439   -4.231511
     69          1           0       -0.547523    2.537408   -3.340666
     70          7           0        3.984939    1.775069   -4.384013
     71          1           0        3.879856    2.108782   -3.435941
     72          6           0        5.283659    1.820704   -5.025410
     73          1           0        5.184795    2.260539   -6.022663
     74          1           0        5.936728    2.465314   -4.430747
     75          6           0        5.911069    0.419408   -5.110068
     76          8           0        5.744557   -0.393360   -4.193618
     77          7           0        6.611127    0.184569   -6.240395
     78          1           0        6.720394    0.927334   -6.923637
     79          6           0        7.307331   -1.050591   -6.590892
     80          1           0        7.750580   -1.471972   -5.683147
     81          6           0        8.412427   -0.666817   -7.563032
     82          6           0        6.376060   -2.130116   -7.231801
     83          1           0        6.057677   -1.803881   -8.229154
     84          1           0        6.954250   -3.052550   -7.346046
     85          8           0        8.480573    0.406659   -8.120719
     86          6           0        5.191294   -2.272045   -6.287622
     87          1           0        5.628314   -2.417166   -5.297067
     88          1           0        4.708239   -1.293500   -6.285206
     89          6           0        4.059816   -3.285396   -6.445967
     90          1           0        4.370908   -4.300771   -6.171841
     91          1           0        3.676575   -3.330464   -7.471397
     92          6           0        2.905361   -2.793732   -5.551035
     93          1           0        2.439877   -1.909929   -5.990444
     94          1           0        2.146804   -3.556488   -5.364287
     95          7           0        3.403027   -2.327929   -4.194838
     96          1           0        2.666964   -1.864469   -3.607370
     97          1           0        4.162680   -1.624751   -4.280104
     98          1           0        3.782600   -3.104618   -3.646161
     99          8           0        9.268363   -1.680691   -7.758833
    100          1           0        9.925078   -1.386639   -8.419595
 ---------------------------------------------------------------------

 SCF Done:  E(RB3LYP) =  -2418.68475168     A.U. after    2 cycles

 Alpha  occ. eigenvalues --  -19.29659 -19.24668 -19.24211 -19.23433 -19.22818
 Alpha  occ. eigenvalues --  -19.22599 -19.22164 -19.22162 -19.19903 -19.18680
 Alpha  occ. eigenvalues --  -19.17328 -14.54529 -14.47310 -14.47091 -14.46675
 Alpha  occ. eigenvalues --  -14.45021 -14.43066 -14.42710 -14.41571 -14.38369
 Alpha  occ. eigenvalues --  -10.42255 -10.40653 -10.40147 -10.39512 -10.38277
 Alpha  occ. eigenvalues --  -10.36254 -10.35320 -10.35277 -10.35047 -10.34524
 Alpha  occ. eigenvalues --  -10.33936 -10.33403 -10.33292 -10.33253 -10.32947
 Alpha  occ. eigenvalues --  -10.31527 -10.30186 -10.30083 -10.29423 -10.28964
 Alpha  occ. eigenvalues --  -10.28112 -10.26517 -10.25728 -10.25627 -10.25343
 Alpha  occ. eigenvalues --  -10.24153 -10.23298 -10.22909  -1.20767  -1.15964
 Alpha  occ. eigenvalues --   -1.15057  -1.13859  -1.13468  -1.11939  -1.11548
 Alpha  occ. eigenvalues --   -1.11051  -1.10172  -1.10105  -1.09557  -1.09096
 Alpha  occ. eigenvalues --   -1.04278  -1.03594  -1.02868  -1.01753  -1.00221
 Alpha  occ. eigenvalues --   -0.99511  -0.96297  -0.95396  -0.91693  -0.89152
 Alpha  occ. eigenvalues --   -0.88295  -0.87466  -0.86388  -0.84793  -0.83295
 Alpha  occ. eigenvalues --   -0.82215  -0.81497  -0.80219  -0.79916  -0.76778
 Alpha  occ. eigenvalues --   -0.75789  -0.74626  -0.73282  -0.72768  -0.72093
 Alpha  occ. eigenvalues --   -0.71390  -0.70576  -0.70181  -0.69027  -0.68926
 Alpha  occ. eigenvalues --   -0.68551  -0.67910  -0.66792  -0.66647  -0.65624
 Alpha  occ. eigenvalues --   -0.64713  -0.64244  -0.64053  -0.63282  -0.62431
 Alpha  occ. eigenvalues --   -0.62245  -0.61063  -0.60580  -0.60278  -0.60193
 Alpha  occ. eigenvalues --   -0.59817  -0.59480  -0.59274  -0.58496  -0.58337
 Alpha  occ. eigenvalues --   -0.57834  -0.57731  -0.57190  -0.56830  -0.56225
 Alpha  occ. eigenvalues --   -0.55835  -0.55454  -0.54751  -0.54486  -0.54163
 Alpha  occ. eigenvalues --   -0.53703  -0.53134  -0.52808  -0.52445  -0.52260
 Alpha  occ. eigenvalues --   -0.51976  -0.51818  -0.51662  -0.51356  -0.50891
 Alpha  occ. eigenvalues --   -0.50824  -0.50541  -0.50231  -0.49911  -0.49563
 Alpha  occ. eigenvalues --   -0.49185  -0.49029  -0.48733  -0.48377  -0.48242
 Alpha  occ. eigenvalues --   -0.47780  -0.47356  -0.47315  -0.46945  -0.46899
 Alpha  occ. eigenvalues --   -0.46712  -0.46201  -0.46037  -0.45831  -0.45673
 Alpha  occ. eigenvalues --   -0.45115  -0.44818  -0.44807  -0.44196  -0.44046
 Alpha  occ. eigenvalues --   -0.43691  -0.43144  -0.43093  -0.42879  -0.41861
 Alpha  occ. eigenvalues --   -0.41751  -0.41686  -0.41549  -0.41232  -0.39542
 Alpha  occ. eigenvalues --   -0.39275  -0.38931  -0.38615  -0.38387  -0.38226
 Alpha  occ. eigenvalues --   -0.37516  -0.37142  -0.36749  -0.36448  -0.36079
 Alpha  occ. eigenvalues --   -0.35773  -0.35228  -0.34861  -0.34323  -0.33759
 Alpha  occ. eigenvalues --   -0.32825  -0.32671  -0.31575  -0.31333  -0.30310
 Alpha virt. eigenvalues --   -0.10465  -0.09917  -0.09221  -0.08495  -0.07871
 Alpha virt. eigenvalues --   -0.06266  -0.05917  -0.04339  -0.02996  -0.01780
 Alpha virt. eigenvalues --   -0.01438  -0.01127   0.00009   0.00265   0.00413

 Mulliken charges:
               1
     1  N   -0.757648
     2  H    0.347837
     3  H    0.305246
     4  C   -0.063500
     5  H    0.191844
     6  C    0.618685
     7  C   -0.389272
     8  H    0.166497
     9  H    0.194972
    10  O   -0.572298
    11  C    0.611656
    12  N   -0.748906
    13  H    0.352089
    14  H    0.344593
    15  O   -0.512860
    16  N   -0.610150
    17  H    0.373503
    18  C   -0.038870
    19  H    0.174615
    20  C    0.637828
    21  C   -0.093329
    22  H    0.147337
    23  O   -0.562735
    24  C   -0.257216
    25  H    0.132746
    26  H    0.135477
    27  C   -0.491274
    28  H    0.145217
    29  H    0.152515
    30  H    0.171472
    31  C   -0.450437
    32  H    0.154151
    33  H    0.147243
    34  H    0.152625
    35  N   -0.616011
    36  H    0.392406
    37  C   -0.060315
    38  H    0.187472
    39  C    0.646174
    40  C   -0.481450
    41  H    0.176711
    42  H    0.172784
    43  H    0.179920
    44  O   -0.583367
    45  N   -0.615508
    46  H    0.412722
    47  C   -0.055105
    48  H    0.187501
    49  C    0.643452
    50  C    0.118618
    51  H    0.149358
    52  O   -0.569753
    53  C   -0.473946
    54  H    0.152862
    55  H    0.158965
    56  H    0.165505
    57  O   -0.619260
    58  H    0.409204
    59  N   -0.636497
    60  H    0.385414
    61  C   -0.065809
    62  H    0.175409
    63  C    0.610128
    64  C   -0.063113
    65  H    0.182280
    66  H    0.142964
    67  O   -0.542714
    68  O   -0.637116
    69  H    0.436310
    70  N   -0.568600
    71  H    0.355521
    72  C   -0.234256
    73  H    0.194122
    74  H    0.202164
    75  C    0.639808
    76  O   -0.557888
    77  N   -0.599344
    78  H    0.365300
    79  C   -0.045092
    80  H    0.204119
    81  C    0.589552
    82  C   -0.271729
    83  H    0.164044
    84  H    0.177395
    85  O   -0.455660
    86  C   -0.331457
    87  H    0.148957
    88  H    0.202921
    89  C   -0.274435
    90  H    0.160744
    91  H    0.182563
    92  C   -0.200386
    93  H    0.235716
    94  H    0.195096
    95  N   -0.811347
    96  H    0.443924
    97  H    0.446467
    98  H    0.389825
    99  O   -0.556955
   100  H    0.433063
 Sum of Mulliken charges =   1.00000

 Dipole moment (field-independent basis, Debye):
    X=             10.8606    Y=             -1.5480    Z=            -11.6163  Tot=             15.9777
 Quadrupole moment (field-independent basis, Debye-Ang):
   XX=           -118.9899   YY=           -234.9378   ZZ=           -161.0505
   XY=            -61.2838   XZ=           -132.0979   YZ=             37.4989

 Normal termination of Gaussian 16 at Thu Jul 21 23:50:18 2022.
