 Gaussian 16, Revision C.01,
 Gaussian 16:  ES64L-G16RevC.01  3-Jul-2019

 ----------------------------------------------------------------------
 # B3LYP/6-31G* empiricaldispersion=gd3bj guess=read geom=check nosymm
 integral(ultrafinegrid)
 ----------------------------------------------------------------------

 ------------------------------------------------------
 Candidate Structure: Conf:962 Charge calc in gas phase
 ------------------------------------------------------
 Structure from the checkpoint file:  "conf-962.chk"
 Charge =  1 Multiplicity = 1

                          Input orientation:
 ---------------------------------------------------------------------
 Center     Atomic      Atomic             Coordinates (Angstroms)
 Number     Number       Type             X           Y           Z
 ---------------------------------------------------------------------
      1          7           0       -7.263662    2.012503    1.566325
      2          1           0       -8.211131    2.024126    1.191498
      3          1           0       -7.350555    2.166404    2.571463
      4          6           0       -6.547432    3.136190    0.958504
      5          1           0       -6.683235    3.034077   -0.125791
      6          6           0       -5.035553    3.030697    1.203169
      7          6           0       -7.045849    4.531000    1.355273
      8          1           0       -7.039524    4.631562    2.450249
      9          1           0       -6.351400    5.287481    0.973728
     10          8           0       -4.272807    3.984577    1.037604
     11          6           0       -8.459572    4.788521    0.844202
     12          7           0       -8.911850    6.061303    1.023234
     13          1           0       -9.831392    6.297427    0.677379
     14          1           0       -8.316884    6.801845    1.362383
     15          8           0       -9.152898    3.918734    0.325573
     16          7           0       -4.619094    1.800855    1.580902
     17          1           0       -5.307690    1.056706    1.652962
     18          6           0       -3.218118    1.507692    1.777903
     19          1           0       -2.655271    2.054361    1.014675
     20          6           0       -3.030802    0.005730    1.590054
     21          6           0       -2.727763    1.993344    3.177546
     22          1           0       -3.047866    3.041848    3.211092
     23          8           0       -3.934453   -0.803289    1.777101
     24          6           0       -1.198209    1.977458    3.346888
     25          1           0       -0.826276    0.944224    3.367205
     26          1           0       -0.979761    2.386441    4.341361
     27          6           0       -3.417480    1.230649    4.312227
     28          1           0       -3.100210    0.181755    4.344169
     29          1           0       -3.175840    1.683881    5.279578
     30          1           0       -4.504861    1.243328    4.193022
     31          6           0       -0.422961    2.793019    2.305283
     32          1           0        0.632542    2.877100    2.584844
     33          1           0       -0.454569    2.344386    1.304092
     34          1           0       -0.835700    3.803691    2.213064
     35          7           0       -1.778608   -0.378946    1.209014
     36          1           0       -1.012530    0.282315    1.247080
     37          6           0       -1.393576   -1.775782    1.231880
     38          1           0       -1.800385   -2.244286    2.139214
     39          6           0        0.133054   -1.813346    1.310925
     40          6           0       -1.945724   -2.534602    0.013290
     41          1           0       -1.746189   -3.610240    0.071066
     42          1           0       -3.027928   -2.396017   -0.008238
     43          1           0       -1.515973   -2.141925   -0.914343
     44          8           0        0.799657   -0.773630    1.448987
     45          7           0        0.711537   -3.026685    1.213018
     46          1           0        0.175253   -3.854294    0.975868
     47          6           0        2.153604   -3.236208    1.287009
     48          1           0        2.558907   -2.587890    2.071004
     49          6           0        2.775570   -2.840393   -0.063205
     50          6           0        2.418078   -4.720487    1.605962
     51          1           0        3.497598   -4.893081    1.499161
     52          8           0        3.162383   -3.674948   -0.893783
     53          6           0        1.975520   -5.102317    3.009656
     54          1           0        2.533025   -4.533853    3.761019
     55          1           0        2.155817   -6.168051    3.170122
     56          1           0        0.907485   -4.911595    3.152885
     57          8           0        1.692754   -5.522115    0.678720
     58          1           0        2.118791   -5.370812   -0.185022
     59          7           0        2.832379   -1.506695   -0.278094
     60          1           0        2.354916   -0.932121    0.423965
     61          6           0        3.036963   -0.934345   -1.601146
     62          1           0        2.560750   -1.597590   -2.338971
     63          6           0        4.517355   -0.839560   -2.015793
     64          6           0        2.371686    0.450160   -1.634138
     65          1           0        2.747392    1.059979   -0.803474
     66          1           0        1.290642    0.347128   -1.513722
     67          8           0        5.002116    0.213704   -2.469114
     68          8           0        2.624016    1.118607   -2.867801
     69          1           0        3.612178    1.193746   -2.870588
     70          7           0        5.231770   -1.967252   -1.908410
     71          1           0        4.731563   -2.827090   -1.681259
     72          6           0        6.566820   -2.011897   -2.466960
     73          1           0        7.165925   -1.218775   -2.010902
     74          1           0        7.013205   -2.975806   -2.207398
     75          6           0        6.574556   -1.894760   -4.003640
     76          8           0        5.704725   -2.420310   -4.694812
     77          7           0        7.628437   -1.197797   -4.489642
     78          1           0        8.287422   -0.812212   -3.826609
     79          6           0        8.075062   -1.207581   -5.882571
     80          1           0        7.878613   -2.208050   -6.287261
     81          6           0        9.591679   -1.017670   -5.938697
     82          6           0        7.424520   -0.186884   -6.852637
     83          1           0        7.444780    0.806700   -6.388767
     84          1           0        8.084963   -0.151312   -7.723043
     85          8           0       10.217399   -0.997385   -6.969184
     86          6           0        6.008203   -0.552400   -7.338404
     87          1           0        5.914371   -0.264185   -8.392161
     88          1           0        5.903932   -1.640543   -7.294880
     89          6           0        4.827471    0.080962   -6.583000
     90          1           0        4.677936    1.112432   -6.933066
     91          1           0        5.013557    0.125078   -5.507038
     92          6           0        3.592461   -0.770723   -6.855317
     93          1           0        3.508388   -1.039888   -7.911673
     94          1           0        3.624577   -1.679636   -6.251255
     95          7           0        2.305019   -0.043847   -6.513690
     96          1           0        1.481517   -0.617944   -6.719551
     97          1           0        2.220982    0.817439   -7.063611
     98          1           0        2.250895    0.250861   -5.495705
     99          8           0       10.157141   -0.865503   -4.717781
    100          1           0       11.115474   -0.745119   -4.862105
 ---------------------------------------------------------------------

 SCF Done:  E(RB3LYP) =  -2418.63906061     A.U. after    1 cycles

 Alpha  occ. eigenvalues --  -19.30274 -19.23871 -19.23498 -19.23349 -19.23008
 Alpha  occ. eigenvalues --  -19.22384 -19.22331 -19.21969 -19.17582 -19.15589
 Alpha  occ. eigenvalues --  -19.14621 -14.63094 -14.46469 -14.46225 -14.46188
 Alpha  occ. eigenvalues --  -14.46137 -14.42086 -14.39943 -14.38909 -14.35572
 Alpha  occ. eigenvalues --  -10.42360 -10.39791 -10.39500 -10.39452 -10.39232
 Alpha  occ. eigenvalues --  -10.38898 -10.34724 -10.34452 -10.33968 -10.33318
 Alpha  occ. eigenvalues --  -10.33249 -10.33162 -10.32896 -10.32667 -10.32589
 Alpha  occ. eigenvalues --  -10.31686 -10.31553 -10.30411 -10.29619 -10.27635
 Alpha  occ. eigenvalues --  -10.26179 -10.25936 -10.25171 -10.23864 -10.23446
 Alpha  occ. eigenvalues --  -10.23247 -10.22845 -10.21602  -1.20972  -1.16725
 Alpha  occ. eigenvalues --   -1.15369  -1.14680  -1.13773  -1.13477  -1.11918
 Alpha  occ. eigenvalues --   -1.10311  -1.10129  -1.09670  -1.07353  -1.06478
 Alpha  occ. eigenvalues --   -1.03613  -1.03159  -1.02712  -1.02067  -0.99091
 Alpha  occ. eigenvalues --   -0.96276  -0.94598  -0.94166  -0.92720  -0.89554
 Alpha  occ. eigenvalues --   -0.88441  -0.86370  -0.85628  -0.84482  -0.83715
 Alpha  occ. eigenvalues --   -0.81935  -0.79862  -0.79487  -0.78619  -0.78366
 Alpha  occ. eigenvalues --   -0.75957  -0.75199  -0.74737  -0.74391  -0.73643
 Alpha  occ. eigenvalues --   -0.71776  -0.70846  -0.70183  -0.69615  -0.69108
 Alpha  occ. eigenvalues --   -0.68612  -0.68002  -0.67843  -0.67342  -0.65177
 Alpha  occ. eigenvalues --   -0.64711  -0.64195  -0.63870  -0.63507  -0.62729
 Alpha  occ. eigenvalues --   -0.61887  -0.61189  -0.60886  -0.60400  -0.59953
 Alpha  occ. eigenvalues --   -0.59172  -0.59041  -0.58357  -0.58187  -0.57933
 Alpha  occ. eigenvalues --   -0.57182  -0.56689  -0.56655  -0.56472  -0.56100
 Alpha  occ. eigenvalues --   -0.55185  -0.55064  -0.53827  -0.53531  -0.53319
 Alpha  occ. eigenvalues --   -0.52999  -0.52836  -0.52337  -0.52132  -0.52029
 Alpha  occ. eigenvalues --   -0.51624  -0.51563  -0.51345  -0.50700  -0.50238
 Alpha  occ. eigenvalues --   -0.50030  -0.49974  -0.49724  -0.49588  -0.49503
 Alpha  occ. eigenvalues --   -0.48752  -0.48220  -0.48042  -0.47698  -0.47557
 Alpha  occ. eigenvalues --   -0.47117  -0.46752  -0.46604  -0.46475  -0.46103
 Alpha  occ. eigenvalues --   -0.45860  -0.45812  -0.45372  -0.45212  -0.44912
 Alpha  occ. eigenvalues --   -0.44732  -0.44583  -0.44432  -0.44355  -0.44117
 Alpha  occ. eigenvalues --   -0.43364  -0.42551  -0.42273  -0.41858  -0.41591
 Alpha  occ. eigenvalues --   -0.41446  -0.40616  -0.40299  -0.39309  -0.38772
 Alpha  occ. eigenvalues --   -0.38268  -0.38244  -0.37989  -0.37576  -0.37106
 Alpha  occ. eigenvalues --   -0.36960  -0.36835  -0.36309  -0.36044  -0.35685
 Alpha  occ. eigenvalues --   -0.35068  -0.34565  -0.34235  -0.32134  -0.31278
 Alpha  occ. eigenvalues --   -0.31082  -0.30259  -0.29036  -0.28606  -0.27342
 Alpha virt. eigenvalues --   -0.13524  -0.09946  -0.09485  -0.08842  -0.07834
 Alpha virt. eigenvalues --   -0.07524  -0.07139  -0.06694  -0.03770  -0.03721
 Alpha virt. eigenvalues --   -0.02619  -0.01751  -0.00910  -0.00515  -0.00260

 Mulliken charges:
               1
     1  N   -0.747948
     2  H    0.340225
     3  H    0.296362
     4  C   -0.063692
     5  H    0.180870
     6  C    0.610250
     7  C   -0.386462
     8  H    0.162426
     9  H    0.189085
    10  O   -0.560897
    11  C    0.608758
    12  N   -0.749835
    13  H    0.346391
    14  H    0.341336
    15  O   -0.516041
    16  N   -0.619298
    17  H    0.375305
    18  C   -0.040767
    19  H    0.167503
    20  C    0.615903
    21  C   -0.079566
    22  H    0.163377
    23  O   -0.533784
    24  C   -0.273111
    25  H    0.129851
    26  H    0.145292
    27  C   -0.457184
    28  H    0.145710
    29  H    0.146909
    30  H    0.155289
    31  C   -0.456634
    32  H    0.146723
    33  H    0.126994
    34  H    0.170499
    35  N   -0.640052
    36  H    0.372342
    37  C   -0.030679
    38  H    0.198040
    39  C    0.627215
    40  C   -0.459323
    41  H    0.148409
    42  H    0.214844
    43  H    0.140884
    44  O   -0.569787
    45  N   -0.609314
    46  H    0.364957
    47  C   -0.074307
    48  H    0.190665
    49  C    0.633402
    50  C    0.103231
    51  H    0.146983
    52  O   -0.568566
    53  C   -0.450798
    54  H    0.155648
    55  H    0.182278
    56  H    0.157897
    57  O   -0.639861
    58  H    0.418762
    59  N   -0.622323
    60  H    0.399757
    61  C   -0.081113
    62  H    0.171729
    63  C    0.644180
    64  C   -0.067533
    65  H    0.163813
    66  H    0.166267
    67  O   -0.575347
    68  O   -0.670057
    69  H    0.431703
    70  N   -0.581855
    71  H    0.391170
    72  C   -0.244265
    73  H    0.188150
    74  H    0.200365
    75  C    0.633663
    76  O   -0.549823
    77  N   -0.611503
    78  H    0.366691
    79  C   -0.044369
    80  H    0.205778
    81  C    0.593648
    82  C   -0.279974
    83  H    0.159196
    84  H    0.199235
    85  O   -0.436965
    86  C   -0.284394
    87  H    0.158538
    88  H    0.176549
    89  C   -0.288422
    90  H    0.153240
    91  H    0.205151
    92  C   -0.217447
    93  H    0.213089
    94  H    0.254200
    95  N   -0.737550
    96  H    0.424088
    97  H    0.420475
    98  H    0.427593
    99  O   -0.583125
   100  H    0.435087
 Sum of Mulliken charges =   1.00000

 Dipole moment (field-independent basis, Debye):
    X=             17.8178    Y=             -1.3897    Z=            -21.0792  Tot=             27.6358
 Quadrupole moment (field-independent basis, Debye-Ang):
   XX=           -165.1305   YY=           -251.8338   ZZ=           -106.8086
   XY=            -47.0575   XZ=            -82.9757   YZ=              5.0852

 Normal termination of Gaussian 16 at Thu Jul 21 23:49:57 2022.
