 Gaussian 16, Revision C.01,
 Gaussian 16:  ES64L-G16RevC.01  3-Jul-2019

 ----------------------------------------------------------------------
 # B3LYP/6-31G* empiricaldispersion=gd3bj guess=read geom=check nosymm
 integral(ultrafinegrid)
 ----------------------------------------------------------------------

 ------------------------------------------------------
 Candidate Structure: Conf:496 Charge calc in gas phase
 ------------------------------------------------------
 Structure from the checkpoint file:  "conf-496.chk"
 Charge =  1 Multiplicity = 1

                          Input orientation:
 ---------------------------------------------------------------------
 Center     Atomic      Atomic             Coordinates (Angstroms)
 Number     Number       Type             X           Y           Z
 ---------------------------------------------------------------------
      1          7           0       -7.055459    2.501747    5.167160
      2          1           0       -7.233746    3.482022    4.938001
      3          1           0       -6.409763    2.530325    5.955380
      4          6           0       -6.373150    1.915999    4.009199
      5          1           0       -5.855893    1.006065    4.337582
      6          6           0       -5.347763    2.896415    3.414105
      7          6           0       -7.390285    1.535738    2.909041
      8          1           0       -7.998118    2.421708    2.681737
      9          1           0       -6.870072    1.251609    1.991547
     10          8           0       -5.435942    4.108180    3.603047
     11          6           0       -8.314037    0.362584    3.256883
     12          7           0       -8.898288    0.446734    4.480588
     13          1           0       -9.471626   -0.326607    4.786565
     14          1           0       -8.578429    1.164159    5.130447
     15          8           0       -8.512080   -0.547975    2.462145
     16          7           0       -4.379222    2.337881    2.647232
     17          1           0       -4.362675    1.343251    2.456263
     18          6           0       -3.430058    3.144164    1.903893
     19          1           0       -3.945833    4.057242    1.593172
     20          6           0       -3.012995    2.330850    0.687677
     21          6           0       -2.206640    3.547639    2.787515
     22          1           0       -2.674501    4.015675    3.662916
     23          8           0       -3.084460    1.093763    0.676887
     24          6           0       -1.284067    4.593676    2.136306
     25          1           0       -0.740561    4.139381    1.298176
     26          1           0       -0.514696    4.842508    2.877936
     27          6           0       -1.401858    2.326235    3.242900
     28          1           0       -0.848603    1.868567    2.417095
     29          1           0       -0.672151    2.623471    4.003867
     30          1           0       -2.046907    1.559586    3.683130
     31          6           0       -1.975130    5.893301    1.705981
     32          1           0       -1.238843    6.643410    1.399015
     33          1           0       -2.665352    5.759973    0.861599
     34          1           0       -2.566775    6.314845    2.526405
     35          7           0       -2.536412    3.020919   -0.371125
     36          1           0       -2.382528    4.014864   -0.269058
     37          6           0       -1.850194    2.333446   -1.459975
     38          1           0       -2.564705    1.648989   -1.929556
     39          6           0       -0.668073    1.541806   -0.864178
     40          6           0       -1.342934    3.354788   -2.474527
     41          1           0       -0.878553    2.845138   -3.323631
     42          1           0       -2.166853    3.969454   -2.850514
     43          1           0       -0.589559    3.998008   -2.008991
     44          8           0        0.200150    2.106409   -0.208084
     45          7           0       -0.673114    0.212199   -1.136723
     46          1           0       -1.463657   -0.193138   -1.620338
     47          6           0        0.229515   -0.719658   -0.490215
     48          1           0        1.023738   -0.124540   -0.032901
     49          6           0        0.758058   -1.683335   -1.540830
     50          6           0       -0.515636   -1.499306    0.639176
     51          1           0       -1.333871   -2.056857    0.153926
     52          8           0        0.027574   -2.170586   -2.399795
     53          6           0        0.401597   -2.478620    1.361999
     54          1           0        0.771054   -3.261780    0.692924
     55          1           0       -0.151916   -2.949722    2.178188
     56          1           0        1.257008   -1.948891    1.797035
     57          8           0       -1.011540   -0.604771    1.603771
     58          1           0       -1.747902   -0.084342    1.225737
     59          7           0        2.079650   -2.006358   -1.447751
     60          1           0        2.671246   -1.639076   -0.711590
     61          6           0        2.641373   -3.055362   -2.261936
     62          1           0        1.896283   -3.847361   -2.397428
     63          6           0        3.894921   -3.583101   -1.573324
     64          6           0        3.013347   -2.505300   -3.651097
     65          1           0        3.710409   -1.666955   -3.528171
     66          1           0        2.093739   -2.154919   -4.128777
     67          8           0        4.528482   -2.916420   -0.767024
     68          8           0        3.618303   -3.561119   -4.416861
     69          1           0        3.884360   -3.186267   -5.271651
     70          7           0        4.288491   -4.831588   -1.978185
     71          1           0        3.774620   -5.263617   -2.734715
     72          6           0        5.607380   -5.312150   -1.657797
     73          1           0        5.884884   -4.925679   -0.673210
     74          1           0        5.612022   -6.405469   -1.596900
     75          6           0        6.717455   -4.887524   -2.616797
     76          8           0        7.893108   -5.244833   -2.382725
     77          7           0        6.387195   -4.156697   -3.688421
     78          1           0        5.400456   -3.916431   -3.853457
     79          6           0        7.410250   -3.615743   -4.585977
     80          1           0        8.327864   -3.522840   -4.003275
     81          6           0        7.068959   -2.198030   -5.031709
     82          6           0        7.698537   -4.477991   -5.841566
     83          1           0        6.754043   -4.750539   -6.326821
     84          1           0        8.242874   -3.840395   -6.546875
     85          8           0        7.855743   -1.288412   -5.039958
     86          6           0        8.559188   -5.723868   -5.563416
     87          1           0        9.089406   -6.004462   -6.480234
     88          1           0        9.332655   -5.429999   -4.842642
     89          6           0        7.766579   -6.943665   -5.059516
     90          1           0        7.309289   -7.461188   -5.910346
     91          1           0        6.938141   -6.632468   -4.419592
     92          6           0        8.604772   -7.978844   -4.313011
     93          1           0        7.983397   -8.801211   -3.952583
     94          1           0        9.404535   -8.394672   -4.930703
     95          7           0        9.262074   -7.368566   -3.085739
     96          1           0       10.121357   -6.870471   -3.334104
     97          1           0        9.513370   -8.080515   -2.394339
     98          1           0        8.630097   -6.631078   -2.640942
     99          8           0        5.796014   -2.080491   -5.505306
    100          1           0        5.703328   -1.154353   -5.805150
 ---------------------------------------------------------------------

 SCF Done:  E(RB3LYP) =  -2418.64721527     A.U. after    2 cycles

 Alpha  occ. eigenvalues --  -19.32656 -19.27667 -19.26501 -19.26335 -19.23078
 Alpha  occ. eigenvalues --  -19.19316 -19.18809 -19.17957 -19.17267 -19.15584
 Alpha  occ. eigenvalues --  -19.12252 -14.59980 -14.50078 -14.47913 -14.44482
 Alpha  occ. eigenvalues --  -14.42894 -14.42248 -14.40091 -14.36435 -14.36004
 Alpha  occ. eigenvalues --  -10.44581 -10.43318 -10.40469 -10.39979 -10.37011
 Alpha  occ. eigenvalues --  -10.36348 -10.35592 -10.35380 -10.34536 -10.34313
 Alpha  occ. eigenvalues --  -10.34256 -10.33462 -10.33093 -10.32663 -10.32341
 Alpha  occ. eigenvalues --  -10.30193 -10.30001 -10.29508 -10.29076 -10.27986
 Alpha  occ. eigenvalues --  -10.26873 -10.24923 -10.23427 -10.23153 -10.22427
 Alpha  occ. eigenvalues --  -10.22175 -10.22114 -10.20391  -1.23134  -1.18092
 Alpha  occ. eigenvalues --   -1.15468  -1.14639  -1.14385  -1.13985  -1.11520
 Alpha  occ. eigenvalues --   -1.10863  -1.09102  -1.07459  -1.06807  -1.06126
 Alpha  occ. eigenvalues --   -1.04197  -1.04033  -1.01191  -0.99389  -0.98548
 Alpha  occ. eigenvalues --   -0.96857  -0.95452  -0.93758  -0.91812  -0.90834
 Alpha  occ. eigenvalues --   -0.88227  -0.86243  -0.85830  -0.84518  -0.83620
 Alpha  occ. eigenvalues --   -0.82189  -0.79916  -0.79394  -0.77700  -0.77390
 Alpha  occ. eigenvalues --   -0.75405  -0.75237  -0.74619  -0.74003  -0.73773
 Alpha  occ. eigenvalues --   -0.72831  -0.71540  -0.71243  -0.70284  -0.68894
 Alpha  occ. eigenvalues --   -0.67611  -0.67137  -0.67050  -0.66095  -0.65885
 Alpha  occ. eigenvalues --   -0.65142  -0.64657  -0.64259  -0.63760  -0.62910
 Alpha  occ. eigenvalues --   -0.61507  -0.61296  -0.60244  -0.60153  -0.60027
 Alpha  occ. eigenvalues --   -0.59772  -0.59248  -0.58994  -0.58257  -0.57947
 Alpha  occ. eigenvalues --   -0.57857  -0.57123  -0.56453  -0.56439  -0.56198
 Alpha  occ. eigenvalues --   -0.55799  -0.55497  -0.55049  -0.54666  -0.54546
 Alpha  occ. eigenvalues --   -0.54231  -0.53813  -0.52834  -0.52693  -0.52373
 Alpha  occ. eigenvalues --   -0.52098  -0.51904  -0.51622  -0.50618  -0.50410
 Alpha  occ. eigenvalues --   -0.49861  -0.49416  -0.48999  -0.48492  -0.48282
 Alpha  occ. eigenvalues --   -0.48212  -0.47999  -0.47870  -0.47764  -0.47443
 Alpha  occ. eigenvalues --   -0.47268  -0.47089  -0.46841  -0.46220  -0.45740
 Alpha  occ. eigenvalues --   -0.45365  -0.44967  -0.44722  -0.44648  -0.44319
 Alpha  occ. eigenvalues --   -0.44179  -0.44089  -0.43744  -0.43144  -0.42742
 Alpha  occ. eigenvalues --   -0.42436  -0.41916  -0.41601  -0.41572  -0.41321
 Alpha  occ. eigenvalues --   -0.40957  -0.40734  -0.40570  -0.39955  -0.39355
 Alpha  occ. eigenvalues --   -0.38555  -0.37982  -0.37528  -0.37356  -0.37264
 Alpha  occ. eigenvalues --   -0.36784  -0.36543  -0.36258  -0.34054  -0.33918
 Alpha  occ. eigenvalues --   -0.33542  -0.32865  -0.32496  -0.30749  -0.30658
 Alpha  occ. eigenvalues --   -0.29499  -0.29339  -0.28817  -0.27658  -0.25954
 Alpha virt. eigenvalues --   -0.13315  -0.11806  -0.10901  -0.09272  -0.06883
 Alpha virt. eigenvalues --   -0.05974  -0.05524  -0.05143  -0.04942  -0.03515
 Alpha virt. eigenvalues --   -0.03425  -0.01983  -0.01581  -0.01556  -0.01328

 Mulliken charges:
               1
     1  N   -0.722893
     2  H    0.328106
     3  H    0.313992
     4  C   -0.097448
     5  H    0.153343
     6  C    0.604138
     7  C   -0.348674
     8  H    0.173113
     9  H    0.167394
    10  O   -0.534971
    11  C    0.567528
    12  N   -0.748423
    13  H    0.329769
    14  H    0.375169
    15  O   -0.515226
    16  N   -0.611854
    17  H    0.352113
    18  C   -0.061280
    19  H    0.182115
    20  C    0.646537
    21  C   -0.073480
    22  H    0.159444
    23  O   -0.582467
    24  C   -0.290451
    25  H    0.159187
    26  H    0.147279
    27  C   -0.479935
    28  H    0.180838
    29  H    0.145392
    30  H    0.146252
    31  C   -0.467472
    32  H    0.154645
    33  H    0.126295
    34  H    0.171340
    35  N   -0.597495
    36  H    0.355932
    37  C   -0.025112
    38  H    0.162021
    39  C    0.624089
    40  C   -0.489271
    41  H    0.167066
    42  H    0.170283
    43  H    0.182744
    44  O   -0.526776
    45  N   -0.598012
    46  H    0.347877
    47  C   -0.079750
    48  H    0.185048
    49  C    0.630496
    50  C    0.142999
    51  H    0.129040
    52  O   -0.540968
    53  C   -0.462906
    54  H    0.133832
    55  H    0.176839
    56  H    0.154475
    57  O   -0.652346
    58  H    0.453759
    59  N   -0.623034
    60  H    0.362117
    61  C   -0.046333
    62  H    0.194667
    63  C    0.589264
    64  C   -0.053959
    65  H    0.150532
    66  H    0.197999
    67  O   -0.504005
    68  O   -0.651347
    69  H    0.427774
    70  N   -0.597847
    71  H    0.353017
    72  C   -0.235181
    73  H    0.246786
    74  H    0.180589
    75  C    0.624709
    76  O   -0.601727
    77  N   -0.631101
    78  H    0.420026
    79  C   -0.035675
    80  H    0.212253
    81  C    0.580125
    82  C   -0.287175
    83  H    0.168039
    84  H    0.189775
    85  O   -0.415082
    86  C   -0.278918
    87  H    0.178457
    88  H    0.133954
    89  C   -0.290358
    90  H    0.194833
    91  H    0.166613
    92  C   -0.196021
    93  H    0.213844
    94  H    0.215145
    95  N   -0.759766
    96  H    0.411049
    97  H    0.411183
    98  H    0.450245
    99  O   -0.594723
   100  H    0.435978
 Sum of Mulliken charges =   1.00000

 Dipole moment (field-independent basis, Debye):
    X=             38.6242    Y=            -28.4512    Z=            -20.5827  Tot=             52.2011
 Quadrupole moment (field-independent basis, Debye-Ang):
   XX=            -12.1044   YY=            -47.7437   ZZ=           -167.6959
   XY=           -282.4736   XZ=           -158.6821   YZ=            113.4430

 Normal termination of Gaussian 16 at Thu Jul 21 23:50:12 2022.
