 Gaussian 16, Revision C.01,
 Gaussian 16:  ES64L-G16RevC.01  3-Jul-2019

 ----------------------------------------------------------------------
 # B3LYP/6-31G* empiricaldispersion=gd3bj guess=read geom=check nosymm
 integral(ultrafinegrid)
 ----------------------------------------------------------------------

 ------------------------------------------------------
 Candidate Structure: Conf:112 Charge calc in gas phase
 ------------------------------------------------------
 Structure from the checkpoint file:  "conf-112.chk"
 Charge =  1 Multiplicity = 1

                          Input orientation:
 ---------------------------------------------------------------------
 Center     Atomic      Atomic             Coordinates (Angstroms)
 Number     Number       Type             X           Y           Z
 ---------------------------------------------------------------------
      1          7           0       -7.882583    1.033858    3.592762
      2          1           0       -8.692032    0.433189    3.456213
      3          1           0       -8.018225    1.882218    3.044504
      4          6           0       -6.668556    0.387092    3.135723
      5          1           0       -6.325562   -0.313606    3.909364
      6          6           0       -5.604871    1.470594    2.928425
      7          6           0       -6.815336   -0.398631    1.788909
      8          1           0       -7.495752   -1.243483    1.952480
      9          1           0       -7.249581    0.268348    1.041589
     10          8           0       -5.887620    2.548539    2.418874
     11          6           0       -5.471415   -0.867987    1.254165
     12          7           0       -4.881131   -1.888756    1.942670
     13          1           0       -3.889822   -2.038623    1.800589
     14          1           0       -5.315971   -2.307586    2.751546
     15          8           0       -4.915143   -0.313879    0.310260
     16          7           0       -4.339438    1.119078    3.300859
     17          1           0       -4.173137    0.158989    3.576078
     18          6           0       -3.172366    1.822278    2.784841
     19          1           0       -3.553683    2.728633    2.310240
     20          6           0       -2.546609    0.891152    1.744689
     21          6           0       -2.158055    2.191130    3.885687
     22          1           0       -1.768414    1.245346    4.287316
     23          8           0       -2.208293   -0.261584    2.057007
     24          6           0       -2.830451    2.950138    5.046133
     25          1           0       -2.056624    3.159496    5.796081
     26          1           0       -3.554328    2.282358    5.526227
     27          6           0       -0.982281    2.967442    3.276510
     28          1           0       -1.316165    3.904253    2.816291
     29          1           0       -0.249699    3.219534    4.050037
     30          1           0       -0.465851    2.385432    2.506099
     31          6           0       -3.538446    4.253486    4.658966
     32          1           0       -3.944304    4.740438    5.551716
     33          1           0       -2.855087    4.965810    4.182906
     34          1           0       -4.375260    4.073592    3.976118
     35          7           0       -2.396207    1.385934    0.499931
     36          1           0       -2.807955    2.287747    0.299844
     37          6           0       -2.111799    0.519561   -0.648728
     38          1           0       -2.597808   -0.437580   -0.435598
     39          6           0       -0.596045    0.296084   -0.768610
     40          6           0       -2.709429    1.122839   -1.910333
     41          1           0       -2.507583    0.477104   -2.768620
     42          1           0       -3.791664    1.211261   -1.784917
     43          1           0       -2.271833    2.102405   -2.126224
     44          8           0        0.072797    0.784562   -1.691974
     45          7           0       -0.067523   -0.480387    0.201223
     46          1           0       -0.688297   -0.815717    0.941209
     47          6           0        1.368173   -0.669453    0.373847
     48          1           0        1.870755    0.285588    0.174124
     49          6           0        1.881777   -1.692191   -0.654753
     50          6           0        1.678607   -1.138927    1.808829
     51          1           0        2.765882   -1.305806    1.852798
     52          8           0        2.236149   -2.842026   -0.355655
     53          6           0        1.282940   -0.115489    2.863492
     54          1           0        1.753670    0.853965    2.668995
     55          1           0        1.603308   -0.468869    3.847229
     56          1           0        0.197775    0.012780    2.889050
     57          8           0        0.977006   -2.339755    2.088707
     58          1           0        1.335510   -2.998033    1.465572
     59          7           0        1.905690   -1.238394   -1.930165
     60          1           0        1.441575   -0.337193   -2.109090
     61          6           0        2.157821   -2.178119   -3.008091
     62          1           0        1.693707   -3.135794   -2.745189
     63          6           0        3.670626   -2.397490   -3.162101
     64          6           0        1.547464   -1.710474   -4.331619
     65          1           0        0.515578   -1.388161   -4.168769
     66          1           0        1.538220   -2.567108   -5.021349
     67          8           0        4.354197   -1.685098   -3.927455
     68          8           0        2.264186   -0.610042   -4.922113
     69          1           0        3.186141   -0.694378   -4.543475
     70          7           0        4.210240   -3.379554   -2.439709
     71          1           0        3.641868   -3.799644   -1.710621
     72          6           0        5.604618   -3.718462   -2.618044
     73          1           0        6.247372   -2.877391   -2.335077
     74          1           0        5.838303   -4.564687   -1.966318
     75          6           0        5.871551   -4.129874   -4.078917
     76          8           0        5.007231   -4.645810   -4.779464
     77          7           0        7.136154   -3.879276   -4.493533
     78          1           0        7.825365   -3.528362   -3.835508
     79          6           0        7.706666   -4.462515   -5.696892
     80          1           0        7.252335   -5.446784   -5.861049
     81          6           0        9.192181   -4.663314   -5.408335
     82          6           0        7.524694   -3.626498   -6.985406
     83          1           0        7.905389   -2.612966   -6.807741
     84          1           0        8.168988   -4.078498   -7.744950
     85          8           0        9.759808   -4.223485   -4.431777
     86          6           0        6.080520   -3.587451   -7.519909
     87          1           0        6.111862   -3.590338   -8.616624
     88          1           0        5.560355   -4.499382   -7.210495
     89          6           0        5.261461   -2.366366   -7.069639
     90          1           0        5.674030   -1.462927   -7.543169
     91          1           0        5.310651   -2.227472   -5.987559
     92          6           0        3.811482   -2.561142   -7.498047
     93          1           0        3.748023   -2.889251   -8.539367
     94          1           0        3.317078   -3.300346   -6.863936
     95          7           0        2.999433   -1.282981   -7.403382
     96          1           0        2.121785   -1.362993   -7.925732
     97          1           0        3.518691   -0.498055   -7.809440
     98          1           0        2.730723   -1.009236   -6.393337
     99          8           0        9.797596   -5.369533   -6.375536
    100          1           0       10.741078   -5.444904   -6.134366
 ---------------------------------------------------------------------

 SCF Done:  E(RB3LYP) =  -2418.67476357     A.U. after    2 cycles

 Alpha  occ. eigenvalues --  -19.29549 -19.27704 -19.24467 -19.24140 -19.22428
 Alpha  occ. eigenvalues --  -19.21458 -19.20333 -19.20183 -19.19715 -19.17778
 Alpha  occ. eigenvalues --  -19.17583 -14.57611 -14.47458 -14.45793 -14.45470
 Alpha  occ. eigenvalues --  -14.44060 -14.43652 -14.42147 -14.42031 -14.36621
 Alpha  occ. eigenvalues --  -10.42083 -10.40591 -10.38949 -10.38563 -10.37372
 Alpha  occ. eigenvalues --  -10.36717 -10.36231 -10.36201 -10.35353 -10.34938
 Alpha  occ. eigenvalues --  -10.34517 -10.33887 -10.33566 -10.31426 -10.31052
 Alpha  occ. eigenvalues --  -10.30577 -10.30359 -10.29185 -10.29071 -10.29026
 Alpha  occ. eigenvalues --  -10.28974 -10.25611 -10.24949 -10.24723 -10.23699
 Alpha  occ. eigenvalues --  -10.23269 -10.22755 -10.21249  -1.20680  -1.16989
 Alpha  occ. eigenvalues --   -1.14309  -1.13967  -1.13243  -1.11965  -1.11920
 Alpha  occ. eigenvalues --   -1.11783  -1.11178  -1.09643  -1.09247  -1.08167
 Alpha  occ. eigenvalues --   -1.04032  -1.02637  -1.02524  -1.00669  -0.99906
 Alpha  occ. eigenvalues --   -0.98850  -0.96753  -0.94404  -0.92241  -0.89053
 Alpha  occ. eigenvalues --   -0.88298  -0.87039  -0.85351  -0.83888  -0.83447
 Alpha  occ. eigenvalues --   -0.81977  -0.81859  -0.79074  -0.78725  -0.76422
 Alpha  occ. eigenvalues --   -0.76224  -0.75961  -0.72891  -0.72325  -0.71746
 Alpha  occ. eigenvalues --   -0.71097  -0.70847  -0.69820  -0.69446  -0.68763
 Alpha  occ. eigenvalues --   -0.68445  -0.68020  -0.66775  -0.66252  -0.65538
 Alpha  occ. eigenvalues --   -0.65158  -0.64342  -0.63929  -0.63401  -0.62537
 Alpha  occ. eigenvalues --   -0.61850  -0.61299  -0.60808  -0.60149  -0.59901
 Alpha  occ. eigenvalues --   -0.59620  -0.59306  -0.58988  -0.58853  -0.58264
 Alpha  occ. eigenvalues --   -0.57992  -0.57008  -0.56548  -0.56324  -0.55891
 Alpha  occ. eigenvalues --   -0.55721  -0.55545  -0.55036  -0.54288  -0.54118
 Alpha  occ. eigenvalues --   -0.54071  -0.53332  -0.53027  -0.52256  -0.52139
 Alpha  occ. eigenvalues --   -0.51922  -0.51716  -0.51349  -0.50890  -0.50883
 Alpha  occ. eigenvalues --   -0.50509  -0.50179  -0.49988  -0.49684  -0.49176
 Alpha  occ. eigenvalues --   -0.48757  -0.48590  -0.47826  -0.47676  -0.47638
 Alpha  occ. eigenvalues --   -0.47017  -0.46536  -0.46342  -0.46241  -0.46199
 Alpha  occ. eigenvalues --   -0.45844  -0.45586  -0.45169  -0.45000  -0.44786
 Alpha  occ. eigenvalues --   -0.44540  -0.44470  -0.44393  -0.44180  -0.43951
 Alpha  occ. eigenvalues --   -0.43449  -0.43162  -0.42881  -0.42599  -0.42584
 Alpha  occ. eigenvalues --   -0.41886  -0.41612  -0.41497  -0.41104  -0.40062
 Alpha  occ. eigenvalues --   -0.38727  -0.38097  -0.37620  -0.37576  -0.37422
 Alpha  occ. eigenvalues --   -0.37369  -0.36785  -0.36078  -0.35564  -0.35273
 Alpha  occ. eigenvalues --   -0.35088  -0.34457  -0.33990  -0.33526  -0.32736
 Alpha  occ. eigenvalues --   -0.32453  -0.31929  -0.31404  -0.30597  -0.28546
 Alpha virt. eigenvalues --   -0.10243  -0.09929  -0.09110  -0.08145  -0.07521
 Alpha virt. eigenvalues --   -0.06443  -0.05895  -0.04372  -0.04181  -0.03510
 Alpha virt. eigenvalues --   -0.03259  -0.01748  -0.01421  -0.00228  -0.00147

 Mulliken charges:
               1
     1  N   -0.710965
     2  H    0.301902
     3  H    0.327323
     4  C   -0.049703
     5  H    0.131910
     6  C    0.625181
     7  C   -0.367768
     8  H    0.158257
     9  H    0.187286
    10  O   -0.527422
    11  C    0.579740
    12  N   -0.743033
    13  H    0.363857
    14  H    0.339372
    15  O   -0.520402
    16  N   -0.594939
    17  H    0.336165
    18  C   -0.053278
    19  H    0.180364
    20  C    0.660627
    21  C   -0.091867
    22  H    0.141449
    23  O   -0.587039
    24  C   -0.252537
    25  H    0.137502
    26  H    0.146365
    27  C   -0.471097
    28  H    0.149928
    29  H    0.158517
    30  H    0.146588
    31  C   -0.475641
    32  H    0.154339
    33  H    0.141164
    34  H    0.179485
    35  N   -0.587383
    36  H    0.352116
    37  C   -0.046898
    38  H    0.196587
    39  C    0.631693
    40  C   -0.480023
    41  H    0.155513
    42  H    0.192305
    43  H    0.165473
    44  O   -0.564704
    45  N   -0.619199
    46  H    0.397629
    47  C   -0.062245
    48  H    0.178290
    49  C    0.634464
    50  C    0.105877
    51  H    0.133199
    52  O   -0.567567
    53  C   -0.473031
    54  H    0.145080
    55  H    0.171822
    56  H    0.183743
    57  O   -0.637399
    58  H    0.415925
    59  N   -0.617376
    60  H    0.402666
    61  C   -0.100764
    62  H    0.193629
    63  C    0.667498
    64  C   -0.065764
    65  H    0.193653
    66  H    0.141353
    67  O   -0.587740
    68  O   -0.666553
    69  H    0.451466
    70  N   -0.564572
    71  H    0.384288
    72  C   -0.239713
    73  H    0.193535
    74  H    0.206066
    75  C    0.633975
    76  O   -0.535780
    77  N   -0.608412
    78  H    0.360426
    79  C   -0.038557
    80  H    0.200905
    81  C    0.583719
    82  C   -0.277408
    83  H    0.156380
    84  H    0.183372
    85  O   -0.457715
    86  C   -0.278363
    87  H    0.147940
    88  H    0.183876
    89  C   -0.303286
    90  H    0.141573
    91  H    0.225046
    92  C   -0.196335
    93  H    0.196432
    94  H    0.224382
    95  N   -0.777124
    96  H    0.401534
    97  H    0.399118
    98  H    0.443775
    99  O   -0.556256
   100  H    0.432215
 Sum of Mulliken charges =   1.00000

 Dipole moment (field-independent basis, Debye):
    X=             14.3016    Y=            -11.1317    Z=            -23.8811  Tot=             29.9793
 Quadrupole moment (field-independent basis, Debye-Ang):
   XX=           -143.9126   YY=           -249.8148   ZZ=            -79.0932
   XY=            -41.2989   XZ=           -121.4879   YZ=             52.2684

 Normal termination of Gaussian 16 at Thu Jul 21 23:50:12 2022.
