 Gaussian 16, Revision C.01,
 Gaussian 16:  ES64L-G16RevC.01  3-Jul-2019

 ----------------------------------------------------------------------
 # B3LYP/6-31G* empiricaldispersion=gd3bj guess=read geom=check nosymm
 integral(ultrafinegrid)
 ----------------------------------------------------------------------

 ------------------------------------------------------
 Candidate Structure: Conf:234 Charge calc in gas phase
 ------------------------------------------------------
 Structure from the checkpoint file:  "conf-234.chk"
 Charge =  1 Multiplicity = 1

                          Input orientation:
 ---------------------------------------------------------------------
 Center     Atomic      Atomic             Coordinates (Angstroms)
 Number     Number       Type             X           Y           Z
 ---------------------------------------------------------------------
      1          7           0       -8.147684    1.006476    2.398701
      2          1           0       -8.369615    1.986019    2.212954
      3          1           0       -8.216546    0.901288    3.410370
      4          6           0       -6.769479    0.790819    1.984152
      5          1           0       -6.429744   -0.164263    2.404690
      6          6           0       -5.817334    1.915125    2.429833
      7          6           0       -6.731325    0.705694    0.433465
      8          1           0       -7.307659   -0.173127    0.127025
      9          1           0       -7.210216    1.597843    0.024188
     10          8           0       -6.183360    3.082802    2.453515
     11          6           0       -5.308962    0.674145   -0.102856
     12          7           0       -4.623844   -0.491259    0.096810
     13          1           0       -3.614625   -0.454771    0.023258
     14          1           0       -5.042458   -1.276462    0.573453
     15          8           0       -4.783833    1.652556   -0.625386
     16          7           0       -4.548560    1.512403    2.762066
     17          1           0       -4.288240    0.562666    2.526985
     18          6           0       -3.445642    2.466915    2.766999
     19          1           0       -3.921529    3.448370    2.741631
     20          6           0       -2.662555    2.230544    1.473937
     21          6           0       -2.570128    2.372458    4.037653
     22          1           0       -3.257813    2.596890    4.864902
     23          8           0       -2.209825    1.108615    1.190645
     24          6           0       -1.455348    3.435610    4.037532
     25          1           0       -0.750323    3.228254    3.222921
     26          1           0       -0.884555    3.310191    4.966755
     27          6           0       -1.988630    0.972419    4.269833
     28          1           0       -1.299757    0.694629    3.467769
     29          1           0       -1.449714    0.948889    5.223605
     30          1           0       -2.775059    0.211854    4.321903
     31          6           0       -1.944767    4.884955    3.955592
     32          1           0       -1.115038    5.582869    4.107798
     33          1           0       -2.385142    5.122998    2.980710
     34          1           0       -2.702701    5.094508    4.719502
     35          7           0       -2.513873    3.293727    0.657768
     36          1           0       -3.007052    4.143868    0.895682
     37          6           0       -2.092390    3.145784   -0.739869
     38          1           0       -2.455696    2.164134   -1.060805
     39          6           0       -0.559134    3.158371   -0.833835
     40          6           0       -2.736557    4.229867   -1.590267
     41          1           0       -2.422810    4.128588   -2.631814
     42          1           0       -3.823053    4.124682   -1.536511
     43          1           0       -2.437484    5.228017   -1.254937
     44          8           0        0.055972    4.039487   -1.453002
     45          7           0        0.049440    2.124118   -0.209815
     46          1           0       -0.547419    1.519150    0.362017
     47          6           0        1.488549    2.110389    0.048312
     48          1           0        1.805259    3.138782    0.265634
     49          6           0        2.227452    1.633265   -1.214885
     50          6           0        1.801225    1.228417    1.260621
     51          1           0        1.563610    0.187564    0.999408
     52          8           0        2.769289    0.527529   -1.315424
     53          6           0        3.263502    1.331087    1.683778
     54          1           0        3.926634    0.962219    0.897846
     55          1           0        3.437281    0.724282    2.579586
     56          1           0        3.518892    2.369046    1.922719
     57          8           0        0.928275    1.696532    2.288993
     58          1           0        1.043890    1.133296    3.069206
     59          7           0        2.215809    2.544569   -2.218427
     60          1           0        1.603830    3.357890   -2.059376
     61          6           0        2.543645    2.189002   -3.588410
     62          1           0        2.199082    1.159581   -3.773854
     63          6           0        4.057837    2.173706   -3.879478
     64          6           0        1.810162    3.162230   -4.524260
     65          1           0        2.028059    4.195382   -4.230694
     66          1           0        0.730744    3.012408   -4.454896
     67          8           0        4.544266    2.752644   -4.871446
     68          8           0        2.203340    2.975707   -5.889894
     69          1           0        3.188389    3.116685   -5.841718
     70          7           0        4.806493    1.445708   -3.044004
     71          1           0        4.314827    0.873582   -2.353606
     72          6           0        6.182893    1.171088   -3.396413
     73          1           0        6.730068    2.110282   -3.515479
     74          1           0        6.641097    0.606141   -2.579921
     75          6           0        6.253177    0.324312   -4.678211
     76          8           0        5.406093   -0.532992   -4.923213
     77          7           0        7.311289    0.594714   -5.472784
     78          1           0        7.995194    1.289365   -5.189330
     79          6           0        7.740230   -0.251319   -6.574380
     80          1           0        7.583117   -1.300874   -6.297784
     81          6           0        9.242459   -0.019808   -6.719719
     82          6           0        7.029896   -0.000251   -7.927861
     83          1           0        7.077615    1.070302   -8.161401
     84          1           0        7.618549   -0.518955   -8.689818
     85          8           0        9.855030    0.851685   -6.141758
     86          6           0        5.581405   -0.519125   -7.983645
     87          1           0        5.379661   -0.910448   -8.987902
     88          1           0        5.485688   -1.360561   -7.290681
     89          6           0        4.500352    0.526998   -7.651728
     90          1           0        4.309689    1.148288   -8.538684
     91          1           0        4.825229    1.193519   -6.849097
     92          6           0        3.230063   -0.198291   -7.222302
     93          1           0        3.007448   -1.044777   -7.878016
     94          1           0        3.335822   -0.557424   -6.196554
     95          7           0        2.014466    0.704269   -7.265957
     96          1           0        1.165304    0.195961   -7.001737
     97          1           0        1.867314    1.064851   -8.214028
     98          1           0        2.097689    1.566006   -6.623748
     99          8           0        9.799996   -0.888542   -7.577415
    100          1           0       10.751050   -0.673198   -7.632623
 ---------------------------------------------------------------------

 SCF Done:  E(RB3LYP) =  -2418.67481030     A.U. after    1 cycles

 Alpha  occ. eigenvalues --  -19.29425 -19.27810 -19.24016 -19.23756 -19.22859
 Alpha  occ. eigenvalues --  -19.22212 -19.21347 -19.20782 -19.19929 -19.18068
 Alpha  occ. eigenvalues --  -19.17694 -14.57309 -14.46111 -14.45728 -14.45382
 Alpha  occ. eigenvalues --  -14.44226 -14.43782 -14.42295 -14.42266 -14.37080
 Alpha  occ. eigenvalues --  -10.41969 -10.39889 -10.38696 -10.38675 -10.37015
 Alpha  occ. eigenvalues --  -10.36682 -10.36507 -10.35558 -10.35310 -10.34761
 Alpha  occ. eigenvalues --  -10.34316 -10.33839 -10.32838 -10.32351 -10.32010
 Alpha  occ. eigenvalues --  -10.30544 -10.30443 -10.29363 -10.29163 -10.28897
 Alpha  occ. eigenvalues --  -10.28838 -10.25528 -10.25339 -10.25282 -10.24741
 Alpha  occ. eigenvalues --  -10.23640 -10.23158 -10.23149  -1.20561  -1.16390
 Alpha  occ. eigenvalues --   -1.14129  -1.13821  -1.13043  -1.12305  -1.11751
 Alpha  occ. eigenvalues --   -1.11660  -1.11453  -1.10319  -1.09831  -1.09395
 Alpha  occ. eigenvalues --   -1.03352  -1.02503  -1.02287  -1.00917  -1.00059
 Alpha  occ. eigenvalues --   -0.98882  -0.97018  -0.94756  -0.91964  -0.88684
 Alpha  occ. eigenvalues --   -0.88085  -0.87311  -0.85919  -0.84073  -0.83423
 Alpha  occ. eigenvalues --   -0.82326  -0.81511  -0.79330  -0.78997  -0.77103
 Alpha  occ. eigenvalues --   -0.75960  -0.75874  -0.72613  -0.72129  -0.71517
 Alpha  occ. eigenvalues --   -0.71130  -0.70693  -0.70465  -0.68770  -0.68551
 Alpha  occ. eigenvalues --   -0.68337  -0.67843  -0.67469  -0.67000  -0.65436
 Alpha  occ. eigenvalues --   -0.65170  -0.64229  -0.63941  -0.63122  -0.62753
 Alpha  occ. eigenvalues --   -0.62259  -0.61692  -0.61382  -0.60835  -0.60410
 Alpha  occ. eigenvalues --   -0.60124  -0.59573  -0.59306  -0.58617  -0.57685
 Alpha  occ. eigenvalues --   -0.57277  -0.57050  -0.56614  -0.56264  -0.55749
 Alpha  occ. eigenvalues --   -0.55571  -0.55386  -0.54654  -0.54526  -0.54032
 Alpha  occ. eigenvalues --   -0.53877  -0.52982  -0.52512  -0.52186  -0.52089
 Alpha  occ. eigenvalues --   -0.51866  -0.51249  -0.51033  -0.50891  -0.50625
 Alpha  occ. eigenvalues --   -0.50385  -0.50160  -0.49872  -0.49602  -0.49202
 Alpha  occ. eigenvalues --   -0.48765  -0.48623  -0.48544  -0.47715  -0.47659
 Alpha  occ. eigenvalues --   -0.47560  -0.47433  -0.46999  -0.46673  -0.46405
 Alpha  occ. eigenvalues --   -0.46195  -0.46138  -0.45908  -0.45803  -0.45505
 Alpha  occ. eigenvalues --   -0.45392  -0.44876  -0.44738  -0.44324  -0.44155
 Alpha  occ. eigenvalues --   -0.44058  -0.43704  -0.43081  -0.42723  -0.42576
 Alpha  occ. eigenvalues --   -0.41488  -0.41468  -0.41243  -0.40831  -0.40623
 Alpha  occ. eigenvalues --   -0.38794  -0.38677  -0.38548  -0.38109  -0.37892
 Alpha  occ. eigenvalues --   -0.37267  -0.37017  -0.36292  -0.35571  -0.35387
 Alpha  occ. eigenvalues --   -0.35001  -0.34755  -0.34330  -0.33800  -0.33216
 Alpha  occ. eigenvalues --   -0.32910  -0.32385  -0.31565  -0.30837  -0.29291
 Alpha virt. eigenvalues --   -0.10174  -0.09545  -0.09025  -0.08281  -0.07276
 Alpha virt. eigenvalues --   -0.06818  -0.06205  -0.04416  -0.04014  -0.03604
 Alpha virt. eigenvalues --   -0.01815  -0.01334  -0.01110  -0.00832  -0.00413

 Mulliken charges:
               1
     1  N   -0.694185
     2  H    0.320847
     3  H    0.308665
     4  C   -0.084140
     5  H    0.129534
     6  C    0.588996
     7  C   -0.335151
     8  H    0.176014
     9  H    0.188251
    10  O   -0.515291
    11  C    0.574391
    12  N   -0.745353
    13  H    0.361695
    14  H    0.338431
    15  O   -0.517504
    16  N   -0.598361
    17  H    0.334383
    18  C   -0.066683
    19  H    0.184238
    20  C    0.670622
    21  C   -0.070755
    22  H    0.145050
    23  O   -0.594440
    24  C   -0.287672
    25  H    0.170034
    26  H    0.138408
    27  C   -0.474888
    28  H    0.160708
    29  H    0.145796
    30  H    0.139912
    31  C   -0.452145
    32  H    0.155520
    33  H    0.125522
    34  H    0.157693
    35  N   -0.591769
    36  H    0.356875
    37  C   -0.053520
    38  H    0.199435
    39  C    0.629927
    40  C   -0.478377
    41  H    0.158125
    42  H    0.193547
    43  H    0.165095
    44  O   -0.562505
    45  N   -0.629149
    46  H    0.404518
    47  C   -0.058418
    48  H    0.187742
    49  C    0.639501
    50  C    0.122303
    51  H    0.149844
    52  O   -0.552835
    53  C   -0.477116
    54  H    0.167819
    55  H    0.154243
    56  H    0.162772
    57  O   -0.626056
    58  H    0.407529
    59  N   -0.633022
    60  H    0.404177
    61  C   -0.083615
    62  H    0.172421
    63  C    0.645048
    64  C   -0.083082
    65  H    0.191040
    66  H    0.182492
    67  O   -0.579520
    68  O   -0.665754
    69  H    0.451229
    70  N   -0.576412
    71  H    0.396966
    72  C   -0.244926
    73  H    0.194205
    74  H    0.202537
    75  C    0.632823
    76  O   -0.545845
    77  N   -0.606129
    78  H    0.363652
    79  C   -0.033010
    80  H    0.198784
    81  C    0.582531
    82  C   -0.280045
    83  H    0.160638
    84  H    0.183492
    85  O   -0.456382
    86  C   -0.278344
    87  H    0.151788
    88  H    0.179706
    89  C   -0.292246
    90  H    0.144073
    91  H    0.203353
    92  C   -0.209006
    93  H    0.195773
    94  H    0.241020
    95  N   -0.771719
    96  H    0.399093
    97  H    0.399129
    98  H    0.440100
    99  O   -0.556938
   100  H    0.432255
 Sum of Mulliken charges =   1.00000

 Dipole moment (field-independent basis, Debye):
    X=             12.6970    Y=              0.9414    Z=            -21.6860  Tot=             25.1473
 Quadrupole moment (field-independent basis, Debye-Ang):
   XX=           -180.6235   YY=           -281.4085   ZZ=            -67.5310
   XY=              8.9794   XZ=           -103.1729   YZ=             -2.9194

 Normal termination of Gaussian 16 at Thu Jul 21 23:50:01 2022.
