 Gaussian 16, Revision C.01,
 Gaussian 16:  ES64L-G16RevC.01  3-Jul-2019

 ----------------------------------------------------------------------
 # B3LYP/6-31G* empiricaldispersion=gd3 guess=read geom=check nosymm in
 tegral(ultrafinegrid)
 ----------------------------------------------------------------------

 ------------------------------------------------------
 Candidate Structure: Conf:948 Charge calc in gas phase
 ------------------------------------------------------
 Structure from the checkpoint file:  "conf-948.chk"
 Charge =  1 Multiplicity = 1

                          Input orientation:
 ---------------------------------------------------------------------
 Center     Atomic      Atomic             Coordinates (Angstroms)
 Number     Number       Type             X           Y           Z
 ---------------------------------------------------------------------
      1          7           0       -1.269360   -3.448491    1.201721
      2          1           0       -2.115552   -2.944995    0.941713
      3          1           0       -0.913655   -3.889745    0.354181
      4          6           0       -0.251333   -2.545546    1.756707
      5          1           0       -0.678286   -2.074526    2.651977
      6          6           0        0.128762   -1.452870    0.752083
      7          6           0        0.985104   -3.368087    2.153495
      8          1           0        0.635780   -4.154582    2.832258
      9          1           0        1.358353   -3.863175    1.249870
     10          8           0        1.049075   -1.556744   -0.054629
     11          6           0        2.105339   -2.589747    2.779689
     12          6           0        3.331893   -2.353000    2.213570
     13          1           0        3.693400   -2.631076    1.233492
     14          6           0        2.147144   -2.006772    4.100498
     15          6           0        3.445924   -1.455334    4.277739
     16          6           0        1.220290   -1.902807    5.152229
     17          1           0        0.222705   -2.322055    5.049379
     18          7           0        4.137128   -1.648953    3.096763
     19          1           0        5.126020   -1.491415    2.976509
     20          6           0        2.899709   -0.747327    6.489767
     21          1           0        3.175094   -0.283909    7.432921
     22          6           0        3.843533   -0.839854    5.470785
     23          1           0        4.859747   -0.475181    5.604416
     24          6           0        1.598575   -1.268166    6.328332
     25          1           0        0.888933   -1.182288    7.145763
     26          7           0       -0.659897   -0.328022    0.764203
     27          1           0       -1.485027   -0.299425    1.346730
     28          6           0       -0.449824    0.728859   -0.224544
     29          1           0       -1.040626    1.580904    0.137132
     30          6           0        1.034960    1.167773   -0.130012
     31          6           0       -0.891790    0.412589   -1.685192
     32          1           0        0.006745    0.140806   -2.247766
     33          8           0        1.721992    1.446923   -1.127935
     34          6           0       -1.540973    1.652076   -2.342439
     35          1           0       -1.854570    1.371153   -3.355604
     36          1           0       -2.467566    1.887494   -1.797577
     37          6           0       -1.872229   -0.767227   -1.748554
     38          1           0       -2.775169   -0.575032   -1.155132
     39          1           0       -2.189274   -0.931230   -2.783698
     40          1           0       -1.415498   -1.693923   -1.392633
     41          6           0       -0.680971    2.917813   -2.433933
     42          1           0       -1.237433    3.720997   -2.928708
     43          1           0        0.232659    2.735556   -3.008672
     44          1           0       -0.383764    3.291643   -1.446460
     45          7           0        1.467165    1.323144    1.133036
     46          1           0        0.827334    1.038421    1.870069
     47          6           0        2.847347    1.392018    1.601396
     48          1           0        3.333887    0.422931    1.419814
     49          6           0        2.745413    1.513894    3.123975
     50          6           0        3.710687    2.487186    0.946370
     51          1           0        4.679546    2.493438    1.453504
     52          1           0        3.889858    2.164929   -0.081441
     53          8           0        1.705211    1.423765    3.737636
     54          6           0        3.081045    3.895636    0.963443
     55          1           0        3.428631    4.470321    1.828022
     56          1           0        1.990550    3.820507    1.063824
     57          6           0        3.392081    4.691990   -0.312462
     58          1           0        2.962310    5.698002   -0.253476
     59          1           0        4.475078    4.788186   -0.455071
     60          7           0        2.822469    3.968009   -1.463596
     61          1           0        2.155040    3.227206   -1.227486
     62          7           0        4.314666    4.639679   -3.120484
     63          1           0        4.863778    4.429155   -3.941016
     64          1           0        4.373071    5.575324   -2.746393
     65          7           0        3.114835    2.654400   -3.331448
     66          1           0        2.561215    1.930436   -2.874546
     67          1           0        3.273200    2.595152   -4.326724
     68          6           0        3.414847    3.763321   -2.638438
     69          8           0        3.947192    1.684704    3.694912
     70          1           0        3.815885    1.557013    4.656973
 ---------------------------------------------------------------------

 SCF Done:  E(RB3LYP) =  -1582.25117985     A.U. after    3 cycles

 Alpha  occ. eigenvalues --  -19.29439 -19.24116 -19.23872 -19.20807 -14.52213
 Alpha  occ. eigenvalues --  -14.50839 -14.50292 -14.46580 -14.45882 -14.45188
 Alpha  occ. eigenvalues --  -14.40130 -10.47652 -10.42151 -10.40701 -10.37217
 Alpha  occ. eigenvalues --  -10.35836 -10.34669 -10.33732 -10.30866 -10.30472
 Alpha  occ. eigenvalues --  -10.30122 -10.28916 -10.28746 -10.28028 -10.27080
 Alpha  occ. eigenvalues --  -10.26798 -10.26047 -10.25939 -10.25810 -10.25496
 Alpha  occ. eigenvalues --  -10.25372 -10.25275 -10.25145 -10.24701  -1.20670
 Alpha  occ. eigenvalues --   -1.16331  -1.15172  -1.12666  -1.11872  -1.05477
 Alpha  occ. eigenvalues --   -1.04909  -1.04461  -1.04055  -1.01613  -0.97119
 Alpha  occ. eigenvalues --   -0.91870  -0.90664  -0.89848  -0.87500  -0.87010
 Alpha  occ. eigenvalues --   -0.83126  -0.81422  -0.81121  -0.80230  -0.79687
 Alpha  occ. eigenvalues --   -0.78128  -0.78077  -0.74062  -0.73237  -0.72820
 Alpha  occ. eigenvalues --   -0.72516  -0.70751  -0.69968  -0.69135  -0.68288
 Alpha  occ. eigenvalues --   -0.67251  -0.66122  -0.65346  -0.64887  -0.64764
 Alpha  occ. eigenvalues --   -0.63502  -0.61996  -0.61559  -0.61064  -0.60460
 Alpha  occ. eigenvalues --   -0.60083  -0.58485  -0.58273  -0.57932  -0.56766
 Alpha  occ. eigenvalues --   -0.56444  -0.55827  -0.55020  -0.54866  -0.54282
 Alpha  occ. eigenvalues --   -0.53710  -0.53449  -0.53149  -0.52634  -0.52133
 Alpha  occ. eigenvalues --   -0.51369  -0.50676  -0.50447  -0.50093  -0.49750
 Alpha  occ. eigenvalues --   -0.49525  -0.49090  -0.48915  -0.48646  -0.47722
 Alpha  occ. eigenvalues --   -0.46972  -0.46555  -0.46028  -0.45924  -0.45397
 Alpha  occ. eigenvalues --   -0.45004  -0.44610  -0.44073  -0.43586  -0.42862
 Alpha  occ. eigenvalues --   -0.42516  -0.41901  -0.41705  -0.41607  -0.40880
 Alpha  occ. eigenvalues --   -0.40406  -0.40121  -0.39958  -0.38293  -0.37799
 Alpha  occ. eigenvalues --   -0.36803  -0.36197  -0.34740  -0.34158  -0.31089
 Alpha  occ. eigenvalues --   -0.29123  -0.27295
 Alpha virt. eigenvalues --   -0.12129  -0.10278  -0.09289  -0.07973  -0.07425
 Alpha virt. eigenvalues --   -0.07030  -0.04607  -0.03976  -0.03136  -0.02067
 Alpha virt. eigenvalues --   -0.01705  -0.01224  -0.00637  -0.00308   0.00838

 Mulliken charges:
               1
     1  N   -0.698165
     2  H    0.303206
     3  H    0.316055
     4  C   -0.086951
     5  H    0.148096
     6  C    0.638785
     7  C   -0.335445
     8  H    0.176922
     9  H    0.156596
    10  O   -0.534182
    11  C    0.069074
    12  C   -0.011522
    13  H    0.165232
    14  C    0.082732
    15  C    0.310896
    16  C   -0.205776
    17  H    0.135501
    18  N   -0.690984
    19  H    0.333078
    20  C   -0.146771
    21  H    0.139218
    22  C   -0.226634
    23  H    0.133665
    24  C   -0.130877
    25  H    0.137932
    26  N   -0.645794
    27  H    0.339182
    28  C   -0.034712
    29  H    0.170078
    30  C    0.652445
    31  C   -0.071073
    32  H    0.158232
    33  O   -0.605479
    34  C   -0.265945
    35  H    0.151205
    36  H    0.139325
    37  C   -0.462491
    38  H    0.135498
    39  H    0.161853
    40  H    0.157941
    41  C   -0.449641
    42  H    0.161365
    43  H    0.127388
    44  H    0.127266
    45  N   -0.605426
    46  H    0.370869
    47  C   -0.038386
    48  H    0.216825
    49  C    0.619300
    50  C   -0.293716
    51  H    0.185063
    52  H    0.165078
    53  O   -0.459296
    54  C   -0.316143
    55  H    0.184277
    56  H    0.173306
    57  C   -0.157796
    58  H    0.187059
    59  H    0.174409
    60  N   -0.611463
    61  H    0.412945
    62  N   -0.752566
    63  H    0.380189
    64  H    0.385669
    65  N   -0.780545
    66  H    0.428017
    67  H    0.370004
    68  C    0.787795
    69  O   -0.581391
    70  H    0.429599
 Sum of Mulliken charges =   1.00000

 Dipole moment (field-independent basis, Debye):
    X=             13.6798    Y=             14.0049    Z=             -5.3931  Tot=             20.3066
 Quadrupole moment (field-independent basis, Debye-Ang):
   XX=           -118.1051   YY=           -136.7798   ZZ=           -146.0922
   XY=             55.2185   XZ=            -18.6241   YZ=            -28.5345

 Normal termination of Gaussian 16 at Fri Jun  3 04:42:49 2022.
