 Gaussian 16, Revision C.01,
 Gaussian 16:  ES64L-G16RevC.01  3-Jul-2019

 ----------------------------------------------------------------------
 # B3LYP/6-31G* empiricaldispersion=gd3 guess=read geom=check nosymm in
 tegral(ultrafinegrid)
 ----------------------------------------------------------------------

 ------------------------------------------------------
 Candidate Structure: Conf:841 Charge calc in gas phase
 ------------------------------------------------------
 Structure from the checkpoint file:  "conf-841.chk"
 Charge =  1 Multiplicity = 1

                          Input orientation:
 ---------------------------------------------------------------------
 Center     Atomic      Atomic             Coordinates (Angstroms)
 Number     Number       Type             X           Y           Z
 ---------------------------------------------------------------------
      1          7           0        0.527159    0.749035    4.143613
      2          1           0        0.120154    1.678476    4.044424
      3          1           0        0.421781    0.484920    5.122250
      4          6           0       -0.249817   -0.166619    3.317912
      5          1           0        0.250775   -1.143997    3.328495
      6          6           0       -0.244592    0.363367    1.887637
      7          6           0       -1.729800   -0.391152    3.786032
      8          1           0       -2.215545   -1.103617    3.106029
      9          1           0       -1.679583   -0.881495    4.766768
     10          8           0       -0.164720    1.572770    1.649058
     11          6           0       -2.539533    0.865876    3.886508
     12          6           0       -2.713396    1.639235    5.009174
     13          1           0       -2.355534    1.477803    6.017265
     14          6           0       -3.253027    1.530942    2.823565
     15          6           0       -3.840438    2.701233    3.374176
     16          6           0       -3.457598    1.245318    1.464082
     17          1           0       -3.013967    0.358488    1.025532
     18          7           0       -3.485022    2.745988    4.707613
     19          1           0       -3.810786    3.427414    5.375051
     20          6           0       -4.803205    3.266580    1.267270
     21          1           0       -5.405985    3.923780    0.646697
     22          6           0       -4.618011    3.577787    2.609507
     23          1           0       -5.063798    4.466293    3.048762
     24          6           0       -4.228103    2.109922    0.698865
     25          1           0       -4.396604    1.893800   -0.353033
     26          7           0       -0.431699   -0.565685    0.905816
     27          1           0       -0.223057   -1.530068    1.128881
     28          6           0       -0.468069   -0.203336   -0.518135
     29          1           0       -0.981977    0.763361   -0.559029
     30          6           0        1.006768   -0.024248   -0.951277
     31          6           0       -1.204490   -1.232838   -1.401816
     32          1           0       -0.475304   -2.011936   -1.657198
     33          8           0        1.647729   -0.872327   -1.553532
     34          6           0       -1.685417   -0.571629   -2.714129
     35          1           0       -2.160956   -1.351889   -3.321754
     36          1           0       -2.481274    0.146809   -2.466012
     37          6           0       -2.404592   -1.891594   -0.704747
     38          1           0       -3.173239   -1.155714   -0.443756
     39          1           0       -2.864644   -2.622792   -1.378115
     40          1           0       -2.128426   -2.422122    0.211656
     41          6           0       -0.616560    0.129531   -3.561642
     42          1           0       -1.049312    0.470966   -4.508632
     43          1           0        0.218792   -0.541764   -3.781886
     44          1           0       -0.205859    1.011694   -3.054852
     45          7           0        1.557030    1.167633   -0.525567
     46          1           0        1.011916    1.628804    0.210896
     47          6           0        2.993015    1.236200   -0.376977
     48          1           0        3.447147    0.791418   -1.269980
     49          6           0        3.460107    0.373546    0.807540
     50          6           0        3.453179    2.696054   -0.232461
     51          1           0        2.994817    3.127717    0.668901
     52          1           0        4.537799    2.702316   -0.079923
     53          8           0        2.747409   -0.310742    1.498921
     54          6           0        3.068788    3.534442   -1.456202
     55          1           0        1.985581    3.485449   -1.609991
     56          1           0        3.524180    3.092776   -2.355178
     57          6           0        3.459795    5.009070   -1.323356
     58          1           0        3.129540    5.600809   -2.183430
     59          1           0        2.991137    5.450059   -0.439254
     60          7           0        4.914780    5.224256   -1.162634
     61          1           0        5.285303    5.178623   -0.221911
     62          7           0        5.444075    5.054071   -3.421563
     63          1           0        6.023770    5.341876   -4.197394
     64          1           0        4.591021    4.558553   -3.636812
     65          7           0        7.064963    5.687664   -1.897226
     66          1           0        7.317605    6.115698   -1.017515
     67          1           0        7.806513    5.531192   -2.565444
     68          6           0        5.799845    5.312530   -2.155243
     69          8           0        4.803661    0.461544    0.972747
     70          1           0        5.032085   -0.128214    1.716839
 ---------------------------------------------------------------------

 SCF Done:  E(RB3LYP) =  -1582.22244844     A.U. after    1 cycles

 Alpha  occ. eigenvalues --  -19.28078 -19.22323 -19.18804 -19.18684 -14.55059
 Alpha  occ. eigenvalues --  -14.55012 -14.54935 -14.43087 -14.42818 -14.42149
 Alpha  occ. eigenvalues --  -14.36590 -10.51425 -10.40152 -10.37929 -10.35385
 Alpha  occ. eigenvalues --  -10.35278 -10.32627 -10.31855 -10.30548 -10.29613
 Alpha  occ. eigenvalues --  -10.28125 -10.26877 -10.26490 -10.25113 -10.24868
 Alpha  occ. eigenvalues --  -10.23961 -10.23492 -10.23261 -10.23129 -10.23016
 Alpha  occ. eigenvalues --  -10.22973 -10.22942 -10.22872 -10.22634  -1.19756
 Alpha  occ. eigenvalues --   -1.18789  -1.11157  -1.10117  -1.09786  -1.08914
 Alpha  occ. eigenvalues --   -1.07920  -1.02622  -1.00127  -0.99196  -0.94263
 Alpha  occ. eigenvalues --   -0.92871  -0.88352  -0.87472  -0.86675  -0.84674
 Alpha  occ. eigenvalues --   -0.82878  -0.80528  -0.79445  -0.78576  -0.78024
 Alpha  occ. eigenvalues --   -0.77381  -0.77131  -0.75652  -0.74482  -0.71621
 Alpha  occ. eigenvalues --   -0.70924  -0.69762  -0.68639  -0.68076  -0.67814
 Alpha  occ. eigenvalues --   -0.66901  -0.65613  -0.64628  -0.64000  -0.63027
 Alpha  occ. eigenvalues --   -0.62474  -0.61448  -0.60800  -0.59916  -0.58761
 Alpha  occ. eigenvalues --   -0.58623  -0.57595  -0.57258  -0.56416  -0.55710
 Alpha  occ. eigenvalues --   -0.55317  -0.53995  -0.53321  -0.52902  -0.52070
 Alpha  occ. eigenvalues --   -0.51911  -0.50815  -0.50277  -0.49753  -0.49441
 Alpha  occ. eigenvalues --   -0.48770  -0.48712  -0.48239  -0.47998  -0.47718
 Alpha  occ. eigenvalues --   -0.47345  -0.47023  -0.46704  -0.46350  -0.46155
 Alpha  occ. eigenvalues --   -0.46020  -0.45956  -0.45338  -0.44613  -0.44158
 Alpha  occ. eigenvalues --   -0.43626  -0.43330  -0.42532  -0.42419  -0.41445
 Alpha  occ. eigenvalues --   -0.40799  -0.40071  -0.39800  -0.39026  -0.38412
 Alpha  occ. eigenvalues --   -0.38064  -0.37823  -0.37533  -0.36192  -0.34604
 Alpha  occ. eigenvalues --   -0.33415  -0.32440  -0.31911  -0.30664  -0.28974
 Alpha  occ. eigenvalues --   -0.26792  -0.24954
 Alpha virt. eigenvalues --   -0.15369  -0.11044  -0.07620  -0.07459  -0.06691
 Alpha virt. eigenvalues --   -0.05907  -0.05677  -0.05660  -0.04099  -0.01971
 Alpha virt. eigenvalues --   -0.01900  -0.00806  -0.00071   0.00159   0.00694

 Mulliken charges:
               1
     1  N   -0.709646
     2  H    0.315954
     3  H    0.293066
     4  C   -0.064265
     5  H    0.147122
     6  C    0.676060
     7  C   -0.376883
     8  H    0.151549
     9  H    0.149980
    10  O   -0.564301
    11  C    0.078840
    12  C   -0.011618
    13  H    0.147871
    14  C    0.089730
    15  C    0.311816
    16  C   -0.201340
    17  H    0.135333
    18  N   -0.689920
    19  H    0.331103
    20  C   -0.151524
    21  H    0.127183
    22  C   -0.162033
    23  H    0.126535
    24  C   -0.159216
    25  H    0.117422
    26  N   -0.611312
    27  H    0.343930
    28  C   -0.059782
    29  H    0.178934
    30  C    0.630859
    31  C   -0.111622
    32  H    0.162384
    33  O   -0.520364
    34  C   -0.254509
    35  H    0.146443
    36  H    0.134126
    37  C   -0.457968
    38  H    0.162076
    39  H    0.157801
    40  H    0.135729
    41  C   -0.462993
    42  H    0.145502
    43  H    0.170824
    44  H    0.128863
    45  N   -0.628212
    46  H    0.378352
    47  C   -0.053251
    48  H    0.198112
    49  C    0.605653
    50  C   -0.300557
    51  H    0.169069
    52  H    0.154462
    53  O   -0.442677
    54  C   -0.273770
    55  H    0.206585
    56  H    0.139432
    57  C   -0.195860
    58  H    0.191589
    59  H    0.208090
    60  N   -0.581350
    61  H    0.372891
    62  N   -0.752647
    63  H    0.390034
    64  H    0.398247
    65  N   -0.759570
    66  H    0.389526
    67  H    0.389710
    68  C    0.826682
    69  O   -0.581873
    70  H    0.423597
 Sum of Mulliken charges =   1.00000

 Dipole moment (field-independent basis, Debye):
    X=             23.4487    Y=             23.6120    Z=             -4.8615  Tot=             33.6304
 Quadrupole moment (field-independent basis, Debye-Ang):
   XX=            -30.1707   YY=            -64.9153   ZZ=           -134.9037
   XY=            132.6779   XZ=            -59.8845   YZ=            -42.3358

 Normal termination of Gaussian 16 at Fri Jun  3 04:42:21 2022.
