 Gaussian 16, Revision C.01,
 Gaussian 16:  ES64L-G16RevC.01  3-Jul-2019

 ----------------------------------------------------------------------
 # B3LYP/6-31G* empiricaldispersion=gd3 guess=read geom=check nosymm in
 tegral(ultrafinegrid)
 ----------------------------------------------------------------------

 ------------------------------------------------------
 Candidate Structure: Conf:197 Charge calc in gas phase
 ------------------------------------------------------
 Structure from the checkpoint file:  "conf-197.chk"
 Charge =  1 Multiplicity = 1

                          Input orientation:
 ---------------------------------------------------------------------
 Center     Atomic      Atomic             Coordinates (Angstroms)
 Number     Number       Type             X           Y           Z
 ---------------------------------------------------------------------
      1          7           0       -3.156638   -0.360363    4.232489
      2          1           0       -3.140157   -0.989955    5.028893
      3          1           0       -3.094379    0.598904    4.564196
      4          6           0       -2.037697   -0.650050    3.348566
      5          1           0       -1.098882   -0.896755    3.883111
      6          6           0       -1.724219    0.606824    2.524783
      7          6           0       -2.399965   -1.875104    2.465100
      8          1           0       -3.310459   -1.622199    1.911463
      9          1           0       -1.607940   -2.064767    1.727972
     10          8           0       -2.212142    1.703492    2.778244
     11          6           0       -2.602750   -3.108924    3.288902
     12          6           0       -3.789352   -3.606497    3.767583
     13          1           0       -4.794489   -3.236629    3.620581
     14          6           0       -1.563064   -3.965812    3.801716
     15          6           0       -2.193799   -4.975882    4.579749
     16          6           0       -0.163061   -3.976690    3.679516
     17          1           0        0.344280   -3.212767    3.094272
     18          7           0       -3.551135   -4.728901    4.539542
     19          1           0       -4.259311   -5.284360    4.993358
     20          6           0       -0.085033   -5.967841    5.083076
     21          1           0        0.508038   -6.734812    5.573099
     22          6           0       -1.468552   -5.983565    5.223225
     23          1           0       -1.966113   -6.748420    5.813448
     24          6           0        0.562535   -4.974299    4.319004
     25          1           0        1.645776   -4.991784    4.235086
     26          7           0       -0.836037    0.425438    1.498746
     27          1           0       -0.322940   -0.443256    1.421689
     28          6           0       -0.301041    1.532872    0.734806
     29          1           0       -0.448994    2.445464    1.320281
     30          6           0        1.192314    1.284773    0.519998
     31          6           0       -1.004219    1.706777   -0.650368
     32          1           0       -0.440648    2.482839   -1.191167
     33          8           0        1.673143    0.150284    0.522560
     34          6           0       -2.457079    2.196809   -0.499544
     35          1           0       -2.917091    2.176391   -1.497142
     36          1           0       -3.013187    1.477586    0.113841
     37          6           0       -0.956335    0.403614   -1.464467
     38          1           0       -1.567412   -0.366813   -0.982060
     39          1           0       -1.355442    0.567798   -2.471761
     40          1           0        0.062580    0.003685   -1.546022
     41          6           0       -2.600186    3.599439    0.099249
     42          1           0       -3.641594    3.932985    0.042747
     43          1           0       -1.988262    4.331397   -0.444628
     44          1           0       -2.316535    3.608729    1.154938
     45          7           0        1.931286    2.390792    0.218200
     46          1           0        1.557832    3.314505    0.409713
     47          6           0        3.368836    2.313412    0.030008
     48          1           0        3.747637    1.462689    0.607392
     49          6           0        3.988757    3.595268    0.574937
     50          6           0        3.778233    2.120085   -1.453231
     51          1           0        3.525026    3.027555   -2.017638
     52          1           0        4.867022    2.001613   -1.492483
     53          8           0        3.356838    4.568054    0.919452
     54          6           0        3.071358    0.911605   -2.072393
     55          1           0        1.992321    1.102900   -2.066745
     56          1           0        3.237410    0.022024   -1.457151
     57          6           0        3.506345    0.635281   -3.509738
     58          1           0        3.360482    1.524078   -4.138335
     59          1           0        4.562891    0.346237   -3.551038
     60          7           0        2.696419   -0.481498   -4.038082
     61          1           0        1.838398   -0.688682   -3.539169
     62          7           0        3.939418   -0.815807   -5.967825
     63          1           0        4.304425   -1.443958   -6.669802
     64          1           0        4.346170    0.106731   -5.913869
     65          7           0        2.285056   -2.327108   -5.381987
     66          1           0        1.695980   -2.755025   -4.681172
     67          1           0        2.297150   -2.753644   -6.297785
     68          6           0        2.969932   -1.199590   -5.124612
     69          8           0        5.331959    3.517338    0.589203
     70          1           0        5.670808    4.366172    0.934145
 ---------------------------------------------------------------------

 SCF Done:  E(RB3LYP) =  -1582.22051436     A.U. after    1 cycles

 Alpha  occ. eigenvalues --  -19.29794 -19.24304 -19.21425 -19.17576 -14.55218
 Alpha  occ. eigenvalues --  -14.54980 -14.54934 -14.45785 -14.42505 -14.42210
 Alpha  occ. eigenvalues --  -14.35237 -10.51441 -10.42329 -10.38268 -10.38196
 Alpha  occ. eigenvalues --  -10.34510 -10.34406 -10.31766 -10.31075 -10.30862
 Alpha  occ. eigenvalues --  -10.27528 -10.27453 -10.26369 -10.26342 -10.26153
 Alpha  occ. eigenvalues --  -10.24412 -10.24403 -10.23353 -10.23210 -10.22854
 Alpha  occ. eigenvalues --  -10.22827 -10.22677 -10.22586 -10.22528  -1.20790
 Alpha  occ. eigenvalues --   -1.19827  -1.13376  -1.11967  -1.09486  -1.08999
 Alpha  occ. eigenvalues --   -1.08012  -1.02531  -1.02327  -0.99078  -0.93508
 Alpha  occ. eigenvalues --   -0.93194  -0.88995  -0.88229  -0.87640  -0.84391
 Alpha  occ. eigenvalues --   -0.83145  -0.81097  -0.80213  -0.79317  -0.78194
 Alpha  occ. eigenvalues --   -0.77710  -0.77401  -0.75631  -0.74122  -0.72478
 Alpha  occ. eigenvalues --   -0.71773  -0.70664  -0.68757  -0.68652  -0.68175
 Alpha  occ. eigenvalues --   -0.67691  -0.66636  -0.64906  -0.64018  -0.63726
 Alpha  occ. eigenvalues --   -0.63671  -0.62344  -0.61413  -0.60226  -0.59970
 Alpha  occ. eigenvalues --   -0.58359  -0.58198  -0.57492  -0.57227  -0.56376
 Alpha  occ. eigenvalues --   -0.55576  -0.54895  -0.54285  -0.53500  -0.52995
 Alpha  occ. eigenvalues --   -0.52477  -0.51834  -0.51580  -0.51349  -0.50308
 Alpha  occ. eigenvalues --   -0.49617  -0.49059  -0.48849  -0.48134  -0.47913
 Alpha  occ. eigenvalues --   -0.47682  -0.47489  -0.47023  -0.46614  -0.46457
 Alpha  occ. eigenvalues --   -0.46243  -0.46162  -0.45754  -0.45573  -0.44141
 Alpha  occ. eigenvalues --   -0.43760  -0.43380  -0.43158  -0.42659  -0.41914
 Alpha  occ. eigenvalues --   -0.41810  -0.41264  -0.39921  -0.39620  -0.39468
 Alpha  occ. eigenvalues --   -0.39113  -0.38017  -0.37815  -0.37681  -0.35680
 Alpha  occ. eigenvalues --   -0.35061  -0.32419  -0.31704  -0.30857  -0.27824
 Alpha  occ. eigenvalues --   -0.26666  -0.24686
 Alpha virt. eigenvalues --   -0.15185  -0.11024  -0.09256  -0.07569  -0.07388
 Alpha virt. eigenvalues --   -0.06736  -0.05649  -0.05539  -0.03693  -0.03122
 Alpha virt. eigenvalues --   -0.01872  -0.01803  -0.01370  -0.00466   0.00069

 Mulliken charges:
               1
     1  N   -0.729831
     2  H    0.307830
     3  H    0.323184
     4  C   -0.067322
     5  H    0.143801
     6  C    0.619763
     7  C   -0.330613
     8  H    0.157620
     9  H    0.118456
    10  O   -0.522783
    11  C    0.048984
    12  C    0.006172
    13  H    0.164299
    14  C    0.085173
    15  C    0.313325
    16  C   -0.213547
    17  H    0.108378
    18  N   -0.690916
    19  H    0.332851
    20  C   -0.152113
    21  H    0.130005
    22  C   -0.160943
    23  H    0.130334
    24  C   -0.140331
    25  H    0.119430
    26  N   -0.615481
    27  H    0.346704
    28  C   -0.055160
    29  H    0.186161
    30  C    0.613297
    31  C   -0.069280
    32  H    0.115334
    33  O   -0.545935
    34  C   -0.250518
    35  H    0.130506
    36  H    0.163528
    37  C   -0.480440
    38  H    0.173289
    39  H    0.141662
    40  H    0.118384
    41  C   -0.469361
    42  H    0.158543
    43  H    0.125524
    44  H    0.190640
    45  N   -0.616179
    46  H    0.362826
    47  C   -0.038189
    48  H    0.210258
    49  C    0.585220
    50  C   -0.276021
    51  H    0.157688
    52  H    0.175329
    53  O   -0.447961
    54  C   -0.324464
    55  H    0.177991
    56  H    0.199237
    57  C   -0.143458
    58  H    0.184229
    59  H    0.188756
    60  N   -0.610424
    61  H    0.377470
    62  N   -0.755297
    63  H    0.390353
    64  H    0.396352
    65  N   -0.761090
    66  H    0.391769
    67  H    0.389329
    68  C    0.837873
    69  O   -0.562236
    70  H    0.432036
 Sum of Mulliken charges =   1.00000

 Dipole moment (field-independent basis, Debye):
    X=             14.9187    Y=             -4.5853    Z=            -21.0604  Tot=             26.2133
 Quadrupole moment (field-independent basis, Debye-Ang):
   XX=           -124.1535   YY=           -166.4903   ZZ=            -59.9179
   XY=             22.6576   XZ=            -79.6117   YZ=             11.5523

 Normal termination of Gaussian 16 at Fri Jun  3 04:09:33 2022.
