 Gaussian 16, Revision C.01,
 Gaussian 16:  ES64L-G16RevC.01  3-Jul-2019

 ----------------------------------------------------------------------
 # B3LYP/6-31G* empiricaldispersion=gd3 guess=read geom=check nosymm in
 tegral(ultrafinegrid)
 ----------------------------------------------------------------------

 ------------------------------------------------------
 Candidate Structure: Conf:234 Charge calc in gas phase
 ------------------------------------------------------
 Structure from the checkpoint file:  "conf-234.chk"
 Charge =  1 Multiplicity = 1

                          Input orientation:
 ---------------------------------------------------------------------
 Center     Atomic      Atomic             Coordinates (Angstroms)
 Number     Number       Type             X           Y           Z
 ---------------------------------------------------------------------
      1          7           0       -0.199349    0.209070    4.531499
      2          1           0        0.782643    0.159496    4.259589
      3          1           0       -0.387964    1.205819    4.645467
      4          6           0       -1.018020   -0.269158    3.422351
      5          1           0       -0.700281   -1.292487    3.195360
      6          6           0       -0.822471    0.580980    2.157692
      7          6           0       -2.504464   -0.298489    3.852590
      8          1           0       -2.548302   -0.921419    4.754397
      9          1           0       -2.790060    0.716604    4.157381
     10          8           0       -0.570593    1.793447    2.231650
     11          6           0       -3.456604   -0.790170    2.801610
     12          6           0       -4.562236   -0.121743    2.338168
     13          1           0       -4.949274    0.844342    2.632195
     14          6           0       -3.401856   -2.035625    2.070899
     15          6           0       -4.511501   -2.048997    1.177260
     16          6           0       -2.517994   -3.132707    2.057886
     17          1           0       -1.685973   -3.183031    2.754686
     18          7           0       -5.205250   -0.872965    1.372175
     19          1           0       -6.045743   -0.603117    0.885812
     20          6           0       -3.837330   -4.152179    0.277485
     21          1           0       -3.984687   -4.979059   -0.410940
     22          6           0       -4.739829   -3.094704    0.278107
     23          1           0       -5.589613   -3.078855   -0.398844
     24          6           0       -2.738972   -4.172976    1.161592
     25          1           0       -2.062179   -5.022441    1.148396
     26          7           0       -0.870949   -0.067012    0.968812
     27          1           0       -1.122219   -1.047708    0.957410
     28          6           0       -0.678002    0.613493   -0.313028
     29          1           0       -1.028718    1.640998   -0.164441
     30          6           0        0.832372    0.730897   -0.622820
     31          6           0       -1.482838   -0.042934   -1.449333
     32          1           0       -1.179707    0.488254   -2.361334
     33          8           0        1.369705    0.304750   -1.640054
     34          6           0       -2.999063    0.144294   -1.247181
     35          1           0       -3.502884   -0.307585   -2.111545
     36          1           0       -3.312757   -0.438032   -0.376297
     37          6           0       -1.153984   -1.534127   -1.643851
     38          1           0       -1.519847   -2.149229   -0.811225
     39          1           0       -1.654361   -1.907593   -2.543687
     40          1           0       -0.079957   -1.692602   -1.763052
     41          6           0       -3.474556    1.591473   -1.081923
     42          1           0       -4.569068    1.640800   -1.098118
     43          1           0       -3.103436    2.233797   -1.891163
     44          1           0       -3.148643    2.022015   -0.128096
     45          7           0        1.536883    1.392869    0.351700
     46          1           0        1.028741    1.687783    1.188705
     47          6           0        2.974190    1.287628    0.417012
     48          1           0        3.276329    0.450823   -0.226579
     49          6           0        3.392358    0.929077    1.842409
     50          6           0        3.688609    2.556862   -0.101307
     51          1           0        3.398085    3.399197    0.542705
     52          1           0        4.772743    2.406316   -0.002094
     53          8           0        2.636169    0.654426    2.744760
     54          6           0        3.324650    2.852570   -1.559714
     55          1           0        2.238431    2.955550   -1.653074
     56          1           0        3.595887    2.000794   -2.192886
     57          6           0        4.006200    4.099335   -2.126900
     58          1           0        5.096292    4.048378   -2.041801
     59          1           0        3.779020    4.210194   -3.191298
     60          7           0        3.562034    5.353316   -1.477816
     61          1           0        2.639036    5.684525   -1.732164
     62          7           0        5.269760    5.541446    0.096791
     63          1           0        5.905740    6.137069    0.607970
     64          1           0        5.429027    4.544316    0.130701
     65          7           0        3.817490    7.305595   -0.256601
     66          1           0        3.200998    7.819840   -0.870206
     67          1           0        4.084554    7.750289    0.610553
     68          6           0        4.211202    6.052693   -0.548380
     69          8           0        4.738605    0.940253    1.978499
     70          1           0        4.933527    0.651288    2.890909
 ---------------------------------------------------------------------

 SCF Done:  E(RB3LYP) =  -1582.23679625     A.U. after    1 cycles

 Alpha  occ. eigenvalues --  -19.29872 -19.24281 -19.19842 -19.18536 -14.54864
 Alpha  occ. eigenvalues --  -14.54733 -14.54680 -14.43677 -14.43326 -14.43063
 Alpha  occ. eigenvalues --  -14.36439 -10.51193 -10.42255 -10.37621 -10.36504
 Alpha  occ. eigenvalues --  -10.34967 -10.33880 -10.31313 -10.31018 -10.30090
 Alpha  occ. eigenvalues --  -10.28029 -10.27596 -10.27564 -10.25564 -10.24698
 Alpha  occ. eigenvalues --  -10.24581 -10.24383 -10.24216 -10.24021 -10.23904
 Alpha  occ. eigenvalues --  -10.23765 -10.23660 -10.23542 -10.22757  -1.20735
 Alpha  occ. eigenvalues --   -1.19479  -1.12038  -1.11525  -1.10132  -1.08678
 Alpha  occ. eigenvalues --   -1.07618  -1.03585  -1.00979  -0.99303  -0.94179
 Alpha  occ. eigenvalues --   -0.92796  -0.89471  -0.87939  -0.87008  -0.85538
 Alpha  occ. eigenvalues --   -0.82931  -0.80777  -0.79885  -0.79371  -0.78957
 Alpha  occ. eigenvalues --   -0.77472  -0.77048  -0.76317  -0.74327  -0.71984
 Alpha  occ. eigenvalues --   -0.71399  -0.70105  -0.68713  -0.68390  -0.67893
 Alpha  occ. eigenvalues --   -0.67849  -0.66674  -0.65233  -0.64894  -0.63192
 Alpha  occ. eigenvalues --   -0.62632  -0.61755  -0.61068  -0.60364  -0.59612
 Alpha  occ. eigenvalues --   -0.59168  -0.58758  -0.57264  -0.57027  -0.56169
 Alpha  occ. eigenvalues --   -0.55188  -0.54834  -0.54213  -0.53458  -0.52990
 Alpha  occ. eigenvalues --   -0.52677  -0.52058  -0.51359  -0.50459  -0.50062
 Alpha  occ. eigenvalues --   -0.49622  -0.49282  -0.49092  -0.48529  -0.48212
 Alpha  occ. eigenvalues --   -0.47646  -0.47289  -0.47260  -0.47063  -0.46869
 Alpha  occ. eigenvalues --   -0.46307  -0.46260  -0.45598  -0.44591  -0.44229
 Alpha  occ. eigenvalues --   -0.43546  -0.43247  -0.43100  -0.42523  -0.42038
 Alpha  occ. eigenvalues --   -0.41614  -0.41213  -0.40198  -0.39075  -0.38873
 Alpha  occ. eigenvalues --   -0.38720  -0.38379  -0.38093  -0.37616  -0.35088
 Alpha  occ. eigenvalues --   -0.34004  -0.33115  -0.32662  -0.31243  -0.29322
 Alpha  occ. eigenvalues --   -0.27950  -0.25941
 Alpha virt. eigenvalues --   -0.15265  -0.10735  -0.09224  -0.07089  -0.06898
 Alpha virt. eigenvalues --   -0.06511  -0.06206  -0.05361  -0.04099  -0.03330
 Alpha virt. eigenvalues --   -0.01950  -0.01773   0.00271   0.00439   0.00864

 Mulliken charges:
               1
     1  N   -0.707001
     2  H    0.321492
     3  H    0.304423
     4  C   -0.090713
     5  H    0.145173
     6  C    0.619144
     7  C   -0.330826
     8  H    0.178580
     9  H    0.146980
    10  O   -0.578626
    11  C    0.072688
    12  C   -0.007558
    13  H    0.157974
    14  C    0.067388
    15  C    0.298446
    16  C   -0.248250
    17  H    0.141101
    18  N   -0.673610
    19  H    0.334372
    20  C   -0.150647
    21  H    0.138179
    22  C   -0.165574
    23  H    0.134302
    24  C   -0.136636
    25  H    0.134294
    26  N   -0.606409
    27  H    0.361352
    28  C   -0.069896
    29  H    0.181518
    30  C    0.611955
    31  C   -0.092900
    32  H    0.138871
    33  O   -0.526504
    34  C   -0.266431
    35  H    0.137736
    36  H    0.169692
    37  C   -0.487748
    38  H    0.155012
    39  H    0.155179
    40  H    0.173781
    41  C   -0.460511
    42  H    0.142800
    43  H    0.135618
    44  H    0.155736
    45  N   -0.629710
    46  H    0.388332
    47  C   -0.047005
    48  H    0.213731
    49  C    0.583306
    50  C   -0.297469
    51  H    0.134883
    52  H    0.156654
    53  O   -0.447017
    54  C   -0.255887
    55  H    0.177043
    56  H    0.199502
    57  C   -0.195360
    58  H    0.183282
    59  H    0.207632
    60  N   -0.580229
    61  H    0.370920
    62  N   -0.753836
    63  H    0.387653
    64  H    0.397842
    65  N   -0.758414
    66  H    0.388272
    67  H    0.388641
    68  C    0.818352
    69  O   -0.572470
    70  H    0.427403
 Sum of Mulliken charges =   1.00000

 Dipole moment (field-independent basis, Debye):
    X=             15.4585    Y=             24.9221    Z=             -2.5153  Tot=             29.4347
 Quadrupole moment (field-independent basis, Debye-Ang):
   XX=            -74.8915   YY=            -27.1941   ZZ=           -200.3707
   XY=            107.5568   XZ=              7.1285   YZ=             -9.9247

 Normal termination of Gaussian 16 at Fri Jun  3 04:09:32 2022.
