 Gaussian 16, Revision C.01,
 Gaussian 16:  ES64L-G16RevC.01  3-Jul-2019

 ----------------------------------------------------------------------
 # B3LYP/6-31G* empiricaldispersion=gd3 guess=read geom=check nosymm in
 tegral(ultrafinegrid)
 ----------------------------------------------------------------------

 ------------------------------------------------------
 Candidate Structure: Conf:883 Charge calc in gas phase
 ------------------------------------------------------
 Structure from the checkpoint file:  "conf-883.chk"
 Charge =  1 Multiplicity = 1

                          Input orientation:
 ---------------------------------------------------------------------
 Center     Atomic      Atomic             Coordinates (Angstroms)
 Number     Number       Type             X           Y           Z
 ---------------------------------------------------------------------
      1          7           0        0.521933   -3.517576    1.127542
      2          1           0       -0.159762   -3.817675    0.431953
      3          1           0        1.426537   -3.497789    0.656969
      4          6           0        0.215824   -2.166914    1.593703
      5          1           0       -0.822105   -2.155525    1.947041
      6          6           0        0.426656   -1.118553    0.498817
      7          6           0        1.140466   -1.772523    2.772246
      8          1           0        2.176398   -1.885688    2.416417
      9          1           0        1.008799   -0.701202    2.970030
     10          8           0        1.473094   -1.109743   -0.164742
     11          6           0        0.893917   -2.529224    4.044199
     12          6           0        0.679544   -3.878740    4.203054
     13          1           0        0.630777   -4.650929    3.450512
     14          6           0        0.854030   -1.946549    5.363974
     15          6           0        0.607053   -3.005044    6.281004
     16          6           0        1.000362   -0.638947    5.861718
     17          1           0        1.188498    0.193491    5.189250
     18          7           0        0.506822   -4.165871    5.541858
     19          1           0        0.318407   -5.081829    5.918527
     20          6           0        0.649878   -1.491364    8.121259
     21          1           0        0.573133   -1.291287    9.186130
     22          6           0        0.502205   -2.793896    7.659491
     23          1           0        0.312124   -3.616830    8.343216
     24          6           0        0.895655   -0.425181    7.230600
     25          1           0        1.001362    0.581239    7.626874
     26          7           0       -0.526135   -0.163602    0.353280
     27          1           0       -1.405466   -0.287545    0.836375
     28          6           0       -0.428630    0.922235   -0.635241
     29          1           0       -1.151218    1.678512   -0.303396
     30          6           0        0.984021    1.533321   -0.485565
     31          6           0       -0.759305    0.523596   -2.099338
     32          1           0        0.184825    0.255935   -2.584685
     33          8           0        1.768472    1.630691   -1.435329
     34          6           0       -1.389223    1.712054   -2.860470
     35          1           0       -1.589136    1.377761   -3.885984
     36          1           0       -2.373834    1.923970   -2.416423
     37          6           0       -1.700969   -0.687471   -2.161084
     38          1           0       -2.643254   -0.496542   -1.631390
     39          1           0       -1.951699   -0.909161   -3.203259
     40          1           0       -1.244499   -1.585180   -1.733286
     41          6           0       -0.568089    3.005567   -2.915932
     42          1           0       -1.081353    3.751194   -3.531997
     43          1           0        0.424127    2.828233   -3.340510
     44          1           0       -0.425744    3.451173   -1.923594
     45          7           0        1.295076    1.932091    0.767648
     46          1           0        0.640796    1.735171    1.518930
     47          6           0        2.674153    2.104167    1.197116
     48          1           0        3.259994    1.255840    0.823851
     49          6           0        2.678935    1.970563    2.716819
     50          6           0        3.326469    3.431067    0.712965
     51          1           0        2.805495    3.736363   -0.200024
     52          1           0        3.136098    4.214458    1.453095
     53          8           0        1.685132    1.780793    3.385301
     54          6           0        4.842389    3.313150    0.445463
     55          1           0        5.300868    2.633113    1.171712
     56          1           0        5.316676    4.289792    0.594716
     57          6           0        5.185739    2.864582   -0.986234
     58          1           0        4.863406    3.623394   -1.705730
     59          1           0        6.268485    2.765600   -1.102486
     60          7           0        4.513424    1.619354   -1.382448
     61          1           0        3.493679    1.699932   -1.514590
     62          7           0        6.275367    0.125146   -1.046904
     63          1           0        6.599064   -0.815105   -0.873069
     64          1           0        6.957551    0.774413   -1.409542
     65          7           0        4.081580   -0.633840   -1.125441
     66          1           0        3.076086   -0.498669   -0.989529
     67          1           0        4.395200   -1.592052   -1.177609
     68          6           0        4.955300    0.377322   -1.191988
     69          8           0        3.917622    2.074276    3.220242
     70          1           0        3.854560    1.974227    4.190630
 ---------------------------------------------------------------------

 SCF Done:  E(RB3LYP) =  -1582.25766123     A.U. after    2 cycles

 Alpha  occ. eigenvalues --  -19.31960 -19.26619 -19.24543 -19.23524 -14.51396
 Alpha  occ. eigenvalues --  -14.49964 -14.49496 -14.47974 -14.47781 -14.43533
 Alpha  occ. eigenvalues --  -14.40941 -10.47053 -10.44538 -10.41327 -10.39637
 Alpha  occ. eigenvalues --  -10.36295 -10.35485 -10.34651 -10.31886 -10.30927
 Alpha  occ. eigenvalues --  -10.30651 -10.28309 -10.27446 -10.27267 -10.27215
 Alpha  occ. eigenvalues --  -10.26578 -10.26350 -10.25201 -10.24159 -10.24152
 Alpha  occ. eigenvalues --  -10.23887 -10.23791 -10.23615 -10.23345  -1.23056
 Alpha  occ. eigenvalues --   -1.16554  -1.15348  -1.14791  -1.14220  -1.05322
 Alpha  occ. eigenvalues --   -1.04760  -1.03685  -1.03455  -1.03373  -0.98265
 Alpha  occ. eigenvalues --   -0.92232  -0.90394  -0.89105  -0.87776  -0.86480
 Alpha  occ. eigenvalues --   -0.83538  -0.81564  -0.81115  -0.80211  -0.78735
 Alpha  occ. eigenvalues --   -0.77826  -0.76993  -0.74562  -0.73662  -0.72865
 Alpha  occ. eigenvalues --   -0.72724  -0.70791  -0.70211  -0.69782  -0.68520
 Alpha  occ. eigenvalues --   -0.67492  -0.65801  -0.65015  -0.64708  -0.64388
 Alpha  occ. eigenvalues --   -0.63292  -0.62806  -0.61812  -0.61538  -0.60494
 Alpha  occ. eigenvalues --   -0.59899  -0.59319  -0.59146  -0.58536  -0.57891
 Alpha  occ. eigenvalues --   -0.56691  -0.56563  -0.55529  -0.54926  -0.54746
 Alpha  occ. eigenvalues --   -0.54391  -0.53319  -0.53068  -0.52765  -0.52251
 Alpha  occ. eigenvalues --   -0.51806  -0.51621  -0.50816  -0.50185  -0.49955
 Alpha  occ. eigenvalues --   -0.49730  -0.49416  -0.48539  -0.48169  -0.47549
 Alpha  occ. eigenvalues --   -0.47278  -0.47028  -0.46568  -0.46085  -0.45480
 Alpha  occ. eigenvalues --   -0.45347  -0.44592  -0.44215  -0.43959  -0.43199
 Alpha  occ. eigenvalues --   -0.42376  -0.42102  -0.41483  -0.40858  -0.40777
 Alpha  occ. eigenvalues --   -0.40348  -0.39451  -0.39053  -0.38671  -0.38597
 Alpha  occ. eigenvalues --   -0.37715  -0.37622  -0.36524  -0.33465  -0.32470
 Alpha  occ. eigenvalues --   -0.27576  -0.25717
 Alpha virt. eigenvalues --   -0.11646  -0.11429  -0.10598  -0.09334  -0.07421
 Alpha virt. eigenvalues --   -0.06387  -0.04343  -0.03772  -0.03449  -0.02627
 Alpha virt. eigenvalues --   -0.01587  -0.00520  -0.00072   0.00163   0.00533

 Mulliken charges:
               1
     1  N   -0.689344
     2  H    0.311130
     3  H    0.305440
     4  C   -0.077778
     5  H    0.150817
     6  C    0.628687
     7  C   -0.359101
     8  H    0.142094
     9  H    0.155850
    10  O   -0.583575
    11  C    0.058743
    12  C    0.011510
    13  H    0.176442
    14  C    0.064661
    15  C    0.314826
    16  C   -0.230897
    17  H    0.137092
    18  N   -0.691372
    19  H    0.333560
    20  C   -0.150976
    21  H    0.133298
    22  C   -0.160928
    23  H    0.131917
    24  C   -0.146778
    25  H    0.120689
    26  N   -0.623710
    27  H    0.351634
    28  C   -0.046721
    29  H    0.178370
    30  C    0.649780
    31  C   -0.078723
    32  H    0.162336
    33  O   -0.571077
    34  C   -0.264774
    35  H    0.153861
    36  H    0.136829
    37  C   -0.458868
    38  H    0.140957
    39  H    0.169020
    40  H    0.142324
    41  C   -0.453488
    42  H    0.161489
    43  H    0.161833
    44  H    0.130019
    45  N   -0.598394
    46  H    0.368061
    47  C   -0.035766
    48  H    0.180283
    49  C    0.592020
    50  C   -0.291601
    51  H    0.182714
    52  H    0.180491
    53  O   -0.446270
    54  C   -0.277327
    55  H    0.175131
    56  H    0.176283
    57  C   -0.172786
    58  H    0.196509
    59  H    0.162145
    60  N   -0.618239
    61  H    0.427366
    62  N   -0.757318
    63  H    0.373834
    64  H    0.380075
    65  N   -0.791628
    66  H    0.441064
    67  H    0.362357
    68  C    0.780415
    69  O   -0.556256
    70  H    0.439740
 Sum of Mulliken charges =   1.00000

 Dipole moment (field-independent basis, Debye):
    X=             16.0438    Y=              1.3038    Z=             -0.3107  Tot=             16.0997
 Quadrupole moment (field-independent basis, Debye-Ang):
   XX=            -87.0603   YY=           -156.2765   ZZ=           -175.9526
   XY=             16.7807   XZ=             -8.8832   YZ=             -7.7659

 Normal termination of Gaussian 16 at Fri Jun  3 04:42:32 2022.
