 Gaussian 16, Revision C.01,
 Gaussian 16:  ES64L-G16RevC.01  3-Jul-2019

 ----------------------------------------------------------------------
 # B3LYP/6-31G* empiricaldispersion=gd3 guess=read geom=check nosymm in
 tegral(ultrafinegrid)
 ----------------------------------------------------------------------

 ------------------------------------------------------
 Candidate Structure: Conf:474 Charge calc in gas phase
 ------------------------------------------------------
 Structure from the checkpoint file:  "conf-474.chk"
 Charge =  1 Multiplicity = 1

                          Input orientation:
 ---------------------------------------------------------------------
 Center     Atomic      Atomic             Coordinates (Angstroms)
 Number     Number       Type             X           Y           Z
 ---------------------------------------------------------------------
      1          7           0       -1.785451   -2.550321    2.106770
      2          1           0       -1.963092   -3.099305    2.946438
      3          1           0       -2.668725   -2.107928    1.860719
      4          6           0       -0.755592   -1.539454    2.393069
      5          1           0       -1.133940   -0.694079    2.998799
      6          6           0       -0.284679   -0.996460    1.037175
      7          6           0        0.437723   -2.160326    3.143104
      8          1           0        0.872984   -2.930089    2.498057
      9          1           0        1.200605   -1.380377    3.252091
     10          8           0        0.741516   -1.361728    0.476206
     11          6           0        0.070697   -2.733888    4.480061
     12          6           0        0.104433   -2.093592    5.695166
     13          1           0        0.419043   -1.086543    5.934870
     14          6           0       -0.415853   -4.069123    4.739433
     15          6           0       -0.656778   -4.167103    6.137307
     16          6           0       -0.663709   -5.190046    3.924683
     17          1           0       -0.496350   -5.135260    2.852486
     18          7           0       -0.334691   -2.944781    6.691521
     19          1           0       -0.368772   -2.724198    7.674487
     20          6           0       -1.366994   -6.429527    5.903718
     21          1           0       -1.735786   -7.356111    6.334218
     22          6           0       -1.131550   -5.339843    6.733857
     23          1           0       -1.309320   -5.397186    7.804340
     24          6           0       -1.135961   -6.355810    4.513519
     25          1           0       -1.331229   -7.228179    3.896450
     26          7           0       -1.090147   -0.023525    0.485416
     27          1           0       -1.999774    0.122937    0.903132
     28          6           0       -0.953554    0.347928   -0.930644
     29          1           0       -1.552289    1.259341   -1.050596
     30          6           0        0.518502    0.733870   -1.196611
     31          6           0       -1.451918   -0.730020   -1.931550
     32          1           0       -0.630324   -1.443511   -2.052341
     33          8           0        1.110052    0.446549   -2.227280
     34          6           0       -1.738169   -0.116421   -3.323086
     35          1           0       -0.842272    0.409672   -3.666126
     36          1           0       -1.889245   -0.949489   -4.021817
     37          6           0       -2.667508   -1.493735   -1.383351
     38          1           0       -3.473786   -0.818289   -1.068125
     39          1           0       -3.078278   -2.145368   -2.162204
     40          1           0       -2.395699   -2.128221   -0.534669
     41          6           0       -2.955278    0.815329   -3.403258
     42          1           0       -3.065668    1.210042   -4.419089
     43          1           0       -2.867642    1.679957   -2.732573
     44          1           0       -3.885918    0.295905   -3.151197
     45          7           0        1.113335    1.476522   -0.192645
     46          1           0        0.597670    1.460858    0.680098
     47          6           0        2.559559    1.326975   -0.036346
     48          1           0        2.804518    0.257660   -0.145422
     49          6           0        3.006808    1.701896    1.371994
     50          6           0        3.358775    2.109922   -1.087788
     51          1           0        4.421068    1.909387   -0.909592
     52          1           0        3.060289    1.681332   -2.051851
     53          8           0        4.068375    2.221466    1.636270
     54          6           0        3.093159    3.616650   -1.074498
     55          1           0        3.417573    4.042497   -0.117821
     56          1           0        2.016075    3.799577   -1.162261
     57          6           0        3.782510    4.357722   -2.221614
     58          1           0        3.451097    3.988371   -3.196992
     59          1           0        3.550991    5.426652   -2.192294
     60          7           0        5.257671    4.253091   -2.180848
     61          1           0        5.726758    4.803933   -1.471828
     62          7           0        5.490572    2.414715   -3.594904
     63          1           0        6.025271    1.938319   -4.307444
     64          1           0        4.585377    2.033460   -3.353768
     65          7           0        7.352056    3.623637   -2.943962
     66          1           0        7.765277    4.496912   -2.648482
     67          1           0        7.980937    2.882459   -3.219432
     68          6           0        6.021476    3.426651   -2.895397
     69          8           0        2.100820    1.349378    2.312263
     70          1           0        2.479732    1.586439    3.180283
 ---------------------------------------------------------------------

 SCF Done:  E(RB3LYP) =  -1582.21628853     A.U. after    1 cycles

 Alpha  occ. eigenvalues --  -19.30104 -19.24243 -19.20194 -19.19366 -14.53943
 Alpha  occ. eigenvalues --  -14.53888 -14.53602 -14.44128 -14.43750 -14.43117
 Alpha  occ. eigenvalues --  -14.38199 -10.50251 -10.42371 -10.37109 -10.36829
 Alpha  occ. eigenvalues --  -10.35897 -10.33507 -10.31071 -10.30351 -10.29605
 Alpha  occ. eigenvalues --  -10.29051 -10.27198 -10.26689 -10.25290 -10.24651
 Alpha  occ. eigenvalues --  -10.23667 -10.23514 -10.23466 -10.23388 -10.23364
 Alpha  occ. eigenvalues --  -10.23210 -10.23028 -10.22956 -10.22501  -1.20855
 Alpha  occ. eigenvalues --   -1.18545  -1.12355  -1.11877  -1.10964  -1.07770
 Alpha  occ. eigenvalues --   -1.06671  -1.02908  -1.01460  -0.99879  -0.95386
 Alpha  occ. eigenvalues --   -0.92036  -0.88401  -0.87396  -0.86653  -0.85000
 Alpha  occ. eigenvalues --   -0.82195  -0.80728  -0.79621  -0.78970  -0.78069
 Alpha  occ. eigenvalues --   -0.77238  -0.76131  -0.76048  -0.74466  -0.72051
 Alpha  occ. eigenvalues --   -0.71589  -0.69840  -0.68432  -0.67579  -0.67072
 Alpha  occ. eigenvalues --   -0.66933  -0.66256  -0.65111  -0.63905  -0.63297
 Alpha  occ. eigenvalues --   -0.61566  -0.60734  -0.60523  -0.60027  -0.58875
 Alpha  occ. eigenvalues --   -0.58676  -0.58463  -0.57350  -0.57173  -0.56206
 Alpha  occ. eigenvalues --   -0.55267  -0.55009  -0.54164  -0.53134  -0.52847
 Alpha  occ. eigenvalues --   -0.52496  -0.52153  -0.51625  -0.51355  -0.50701
 Alpha  occ. eigenvalues --   -0.49703  -0.48756  -0.48337  -0.48280  -0.47925
 Alpha  occ. eigenvalues --   -0.47735  -0.47248  -0.46975  -0.46402  -0.46017
 Alpha  occ. eigenvalues --   -0.45670  -0.44972  -0.44832  -0.44576  -0.44007
 Alpha  occ. eigenvalues --   -0.43738  -0.42970  -0.42751  -0.42203  -0.42114
 Alpha  occ. eigenvalues --   -0.42046  -0.41817  -0.39680  -0.39445  -0.38584
 Alpha  occ. eigenvalues --   -0.38087  -0.38004  -0.37910  -0.37766  -0.35038
 Alpha  occ. eigenvalues --   -0.34286  -0.33530  -0.32554  -0.31978  -0.29928
 Alpha  occ. eigenvalues --   -0.26973  -0.25137
 Alpha virt. eigenvalues --   -0.14413  -0.09784  -0.09423  -0.06753  -0.05842
 Alpha virt. eigenvalues --   -0.05740  -0.05675  -0.05348  -0.04413  -0.02748
 Alpha virt. eigenvalues --   -0.02183  -0.00941  -0.00873   0.00922   0.01161

 Mulliken charges:
               1
     1  N   -0.726980
     2  H    0.336174
     3  H    0.296883
     4  C   -0.078885
     5  H    0.116931
     6  C    0.658831
     7  C   -0.346533
     8  H    0.183541
     9  H    0.137477
    10  O   -0.518751
    11  C    0.052929
    12  C   -0.001163
    13  H    0.138172
    14  C    0.058274
    15  C    0.314570
    16  C   -0.217517
    17  H    0.147247
    18  N   -0.688859
    19  H    0.332202
    20  C   -0.150115
    21  H    0.134611
    22  C   -0.161385
    23  H    0.130586
    24  C   -0.140269
    25  H    0.131468
    26  N   -0.646617
    27  H    0.332716
    28  C   -0.053323
    29  H    0.163552
    30  C    0.625991
    31  C   -0.062298
    32  H    0.169331
    33  O   -0.520049
    34  C   -0.274464
    35  H    0.156149
    36  H    0.143302
    37  C   -0.492964
    38  H    0.128103
    39  H    0.161410
    40  H    0.177679
    41  C   -0.458584
    42  H    0.154658
    43  H    0.131152
    44  H    0.156307
    45  N   -0.619058
    46  H    0.360298
    47  C   -0.038008
    48  H    0.221208
    49  C    0.587891
    50  C   -0.307787
    51  H    0.148623
    52  H    0.177486
    53  O   -0.466338
    54  C   -0.265938
    55  H    0.170304
    56  H    0.187492
    57  C   -0.193901
    58  H    0.189853
    59  H    0.200161
    60  N   -0.578602
    61  H    0.370013
    62  N   -0.753984
    63  H    0.385940
    64  H    0.403080
    65  N   -0.759816
    66  H    0.386202
    67  H    0.387205
    68  C    0.816467
    69  O   -0.567976
    70  H    0.427696
 Sum of Mulliken charges =   1.00000

 Dipole moment (field-independent basis, Debye):
    X=             20.1349    Y=             15.7043    Z=             -4.6238  Tot=             25.9503
 Quadrupole moment (field-independent basis, Debye-Ang):
   XX=            -34.5242   YY=           -140.4106   ZZ=           -116.4889
   XY=             90.1220   XZ=            -76.1501   YZ=            -40.7336

 Normal termination of Gaussian 16 at Fri Jun  3 04:24:18 2022.
