 Gaussian 16, Revision C.01,
 Gaussian 16:  ES64L-G16RevC.01  3-Jul-2019

 ----------------------------------------------------------------------
 # B3LYP/6-31G* empiricaldispersion=gd3 guess=read geom=check nosymm in
 tegral(ultrafinegrid)
 ----------------------------------------------------------------------

 ------------------------------------------------------
 Candidate Structure: Conf:472 Charge calc in gas phase
 ------------------------------------------------------
 Structure from the checkpoint file:  "conf-472.chk"
 Charge =  1 Multiplicity = 1

                          Input orientation:
 ---------------------------------------------------------------------
 Center     Atomic      Atomic             Coordinates (Angstroms)
 Number     Number       Type             X           Y           Z
 ---------------------------------------------------------------------
      1          7           0       -1.434012   -3.288116    1.261748
      2          1           0       -0.750332   -3.679159    0.613498
      3          1           0       -1.803874   -4.059824    1.815356
      4          6           0       -0.742910   -2.333927    2.132648
      5          1           0       -1.483118   -1.943853    2.843032
      6          6           0       -0.302401   -1.210590    1.194541
      7          6           0        0.435149   -2.912352    2.973108
      8          1           0        0.853705   -2.109655    3.594656
      9          1           0       -0.012449   -3.633519    3.669898
     10          8           0        0.508490   -1.389430    0.293875
     11          6           0        1.526843   -3.568827    2.183106
     12          6           0        1.513154   -4.833895    1.645331
     13          1           0        0.760973   -5.607694    1.719034
     14          6           0        2.790593   -2.986268    1.811336
     15          6           0        3.493607   -3.950621    1.039944
     16          6           0        3.404068   -1.752632    2.078514
     17          1           0        2.890423   -1.009831    2.682710
     18          7           0        2.684320   -5.063127    0.946008
     19          1           0        2.942735   -5.937956    0.516913
     20          6           0        5.353731   -2.478406    0.804876
     21          1           0        6.351486   -2.263483    0.432425
     22          6           0        4.772813   -3.709979    0.526911
     23          1           0        5.296451   -4.461056   -0.058357
     24          6           0        4.678869   -1.509521    1.578611
     25          1           0        5.175071   -0.567566    1.796689
     26          7           0       -0.882563    0.022823    1.393040
     27          1           0       -1.707117    0.055817    1.978251
     28          6           0       -0.820663    1.006125    0.304978
     29          1           0       -1.246837    1.928414    0.717562
     30          6           0        0.661413    1.307537    0.000527
     31          6           0       -1.613118    0.602853   -0.968375
     32          1           0       -0.967484   -0.081361   -1.528978
     33          8           0        1.093105    1.442180   -1.152078
     34          6           0       -1.899209    1.827532   -1.871986
     35          1           0       -0.955721    2.339468   -2.090188
     36          1           0       -2.273961    1.445897   -2.831861
     37          6           0       -2.904296   -0.151771   -0.612746
     38          1           0       -3.528197    0.411054    0.092927
     39          1           0       -3.502381   -0.311397   -1.516813
     40          1           0       -2.696646   -1.133777   -0.176765
     41          6           0       -2.912915    2.841434   -1.324203
     42          1           0       -3.032138    3.676881   -2.022405
     43          1           0       -2.598523    3.268912   -0.364116
     44          1           0       -3.900243    2.391952   -1.178797
     45          7           0        1.437266    1.510537    1.078621
     46          1           0        1.056387    1.286552    1.993162
     47          6           0        2.888980    1.629103    1.023243
     48          1           0        3.309873    0.691682    0.630369
     49          6           0        3.360041    1.685606    2.474947
     50          6           0        3.400580    2.816918    0.160201
     51          1           0        2.603715    3.568472    0.136479
     52          1           0        4.250370    3.281617    0.664765
     53          8           0        2.641648    1.512422    3.436133
     54          6           0        3.817293    2.408336   -1.274341
     55          1           0        3.503135    1.381666   -1.473979
     56          1           0        4.908851    2.437456   -1.377757
     57          6           0        3.179706    3.315001   -2.333076
     58          1           0        2.101280    3.374290   -2.175303
     59          1           0        3.575815    4.333793   -2.281985
     60          7           0        3.411105    2.840823   -3.708139
     61          1           0        4.326645    3.016018   -4.102150
     62          7           0        1.568308    1.409049   -3.831117
     63          1           0        0.898616    0.931635   -4.417551
     64          1           0        1.383092    1.395467   -2.815429
     65          7           0        2.941883    1.721410   -5.673223
     66          1           0        3.514437    2.355321   -6.211417
     67          1           0        2.470247    0.986850   -6.179909
     68          6           0        2.630451    1.986456   -4.383946
     69          8           0        4.686878    1.888194    2.563003
     70          1           0        4.923750    1.850864    3.509885
 ---------------------------------------------------------------------

 SCF Done:  E(RB3LYP) =  -1582.24615182     A.U. after    1 cycles

 Alpha  occ. eigenvalues --  -19.29974 -19.24414 -19.22551 -19.20172 -14.51662
 Alpha  occ. eigenvalues --  -14.51638 -14.50045 -14.45550 -14.44941 -14.44215
 Alpha  occ. eigenvalues --  -14.39279 -10.47728 -10.42407 -10.39409 -10.36803
 Alpha  occ. eigenvalues --  -10.34723 -10.34000 -10.32527 -10.30194 -10.29427
 Alpha  occ. eigenvalues --  -10.29392 -10.28239 -10.28052 -10.27131 -10.26309
 Alpha  occ. eigenvalues --  -10.26132 -10.25145 -10.25067 -10.24901 -10.24750
 Alpha  occ. eigenvalues --  -10.24612 -10.24598 -10.24478 -10.24439  -1.20988
 Alpha  occ. eigenvalues --   -1.16042  -1.14317  -1.12143  -1.12057  -1.05484
 Alpha  occ. eigenvalues --   -1.04070  -1.03911  -1.02865  -1.00842  -0.96512
 Alpha  occ. eigenvalues --   -0.91009  -0.90047  -0.88822  -0.86613  -0.86225
 Alpha  occ. eigenvalues --   -0.82432  -0.80993  -0.80345  -0.79678  -0.78769
 Alpha  occ. eigenvalues --   -0.77549  -0.77111  -0.73621  -0.72988  -0.72449
 Alpha  occ. eigenvalues --   -0.72304  -0.70363  -0.69928  -0.68527  -0.67567
 Alpha  occ. eigenvalues --   -0.66977  -0.65569  -0.65090  -0.64191  -0.64032
 Alpha  occ. eigenvalues --   -0.63079  -0.60888  -0.60488  -0.60226  -0.59457
 Alpha  occ. eigenvalues --   -0.59185  -0.58068  -0.58019  -0.57384  -0.56622
 Alpha  occ. eigenvalues --   -0.56131  -0.54949  -0.54616  -0.54116  -0.53582
 Alpha  occ. eigenvalues --   -0.52868  -0.52427  -0.52075  -0.51312  -0.50976
 Alpha  occ. eigenvalues --   -0.50644  -0.50375  -0.49906  -0.49595  -0.49263
 Alpha  occ. eigenvalues --   -0.48892  -0.48015  -0.47807  -0.47462  -0.47145
 Alpha  occ. eigenvalues --   -0.46336  -0.45780  -0.45693  -0.45422  -0.45005
 Alpha  occ. eigenvalues --   -0.44236  -0.44056  -0.43694  -0.43562  -0.42410
 Alpha  occ. eigenvalues --   -0.42258  -0.41198  -0.41152  -0.40523  -0.40171
 Alpha  occ. eigenvalues --   -0.40030  -0.39565  -0.39514  -0.37914  -0.36846
 Alpha  occ. eigenvalues --   -0.35769  -0.34638  -0.34263  -0.32956  -0.31149
 Alpha  occ. eigenvalues --   -0.28390  -0.26434
 Alpha virt. eigenvalues --   -0.11729  -0.09556  -0.08124  -0.07983  -0.07377
 Alpha virt. eigenvalues --   -0.06658  -0.04065  -0.03803  -0.03375  -0.02316
 Alpha virt. eigenvalues --   -0.01781  -0.00740   0.00032   0.01222   0.01397

 Mulliken charges:
               1
     1  N   -0.712188
     2  H    0.323095
     3  H    0.308295
     4  C   -0.072525
     5  H    0.136554
     6  C    0.642967
     7  C   -0.375373
     8  H    0.157348
     9  H    0.155840
    10  O   -0.513447
    11  C    0.096948
    12  C   -0.016281
    13  H    0.150928
    14  C    0.103010
    15  C    0.315157
    16  C   -0.221488
    17  H    0.126737
    18  N   -0.690906
    19  H    0.334296
    20  C   -0.155716
    21  H    0.126998
    22  C   -0.160262
    23  H    0.131066
    24  C   -0.170500
    25  H    0.118420
    26  N   -0.630747
    27  H    0.342818
    28  C   -0.061405
    29  H    0.171077
    30  C    0.667713
    31  C   -0.062431
    32  H    0.149721
    33  O   -0.589425
    34  C   -0.278022
    35  H    0.130060
    36  H    0.132673
    37  C   -0.491141
    38  H    0.138322
    39  H    0.155266
    40  H    0.186400
    41  C   -0.456926
    42  H    0.155030
    43  H    0.141766
    44  H    0.163983
    45  N   -0.614417
    46  H    0.369880
    47  C   -0.021558
    48  H    0.222825
    49  C    0.594837
    50  C   -0.294766
    51  H    0.166244
    52  H    0.188323
    53  O   -0.464001
    54  C   -0.256180
    55  H    0.175271
    56  H    0.151150
    57  C   -0.183454
    58  H    0.199884
    59  H    0.184842
    60  N   -0.597567
    61  H    0.359254
    62  N   -0.793901
    63  H    0.367625
    64  H    0.469179
    65  N   -0.769329
    66  H    0.377947
    67  H    0.378432
    68  C    0.813150
    69  O   -0.561438
    70  H    0.434067
 Sum of Mulliken charges =   1.00000

 Dipole moment (field-independent basis, Debye):
    X=             10.4765    Y=              4.9658    Z=            -11.6152  Tot=             16.4113
 Quadrupole moment (field-independent basis, Debye-Ang):
   XX=           -141.9729   YY=           -140.1900   ZZ=           -104.9706
   XY=             25.9844   XZ=            -42.9604   YZ=            -29.9897

 Normal termination of Gaussian 16 at Fri Jun  3 04:24:35 2022.
