 Gaussian 16, Revision C.01,
 Gaussian 16:  ES64L-G16RevC.01  3-Jul-2019

 ----------------------------------------------------------------------
 # B3LYP/6-31G* empiricaldispersion=gd3 guess=read geom=check nosymm in
 tegral(ultrafinegrid)
 ----------------------------------------------------------------------

 ------------------------------------------------------
 Candidate Structure: Conf:669 Charge calc in gas phase
 ------------------------------------------------------
 Structure from the checkpoint file:  "conf-669.chk"
 Charge =  1 Multiplicity = 1

                          Input orientation:
 ---------------------------------------------------------------------
 Center     Atomic      Atomic             Coordinates (Angstroms)
 Number     Number       Type             X           Y           Z
 ---------------------------------------------------------------------
      1          7           0       -0.746646   -2.931959    3.292052
      2          1           0       -1.632306   -3.343677    3.001345
      3          1           0       -0.033788   -3.511713    2.850094
      4          6           0       -0.643949   -1.588275    2.748371
      5          1           0       -1.490751   -1.004182    3.135057
      6          6           0       -0.720146   -1.552038    1.198376
      7          6           0        0.635980   -0.903025    3.284928
      8          1           0        0.669816    0.140553    2.938987
      9          1           0        0.530450   -0.871396    4.374485
     10          8           0       -0.601827   -2.575006    0.538510
     11          6           0        1.955598   -1.546711    2.948072
     12          6           0        2.343604   -2.185639    1.804006
     13          1           0        1.776467   -2.434902    0.919332
     14          6           0        3.137137   -1.437208    3.781801
     15          6           0        4.219682   -2.021598    3.073801
     16          6           0        3.377081   -0.886342    5.051285
     17          1           0        2.570384   -0.429106    5.616498
     18          7           0        3.733065   -2.406649    1.821889
     19          1           0        4.146231   -3.170264    1.298311
     20          6           0        5.719471   -1.555890    4.869369
     21          1           0        6.704391   -1.623289    5.322847
     22          6           0        5.510242   -2.095952    3.598285
     23          1           0        6.319760   -2.565752    3.046213
     24          6           0        4.662752   -0.953722    5.586111
     25          1           0        4.853062   -0.553312    6.577663
     26          7           0       -0.942159   -0.309619    0.655376
     27          1           0       -0.966190    0.464345    1.305870
     28          6           0       -0.752116    0.058794   -0.757202
     29          1           0       -1.193656    1.058850   -0.864140
     30          6           0        0.763965    0.127046   -0.990615
     31          6           0       -1.434860   -0.873725   -1.783138
     32          1           0       -0.909205   -1.831361   -1.740636
     33          8           0        1.474845   -0.871787   -0.961894
     34          6           0       -1.261425   -0.271703   -3.193726
     35          1           0       -1.817855    0.676293   -3.254391
     36          1           0       -0.203838   -0.019302   -3.354811
     37          6           0       -2.905816   -1.096781   -1.417069
     38          1           0       -3.461581   -0.149662   -1.406183
     39          1           0       -3.387729   -1.758251   -2.142102
     40          1           0       -3.000467   -1.564907   -0.434462
     41          6           0       -1.708663   -1.204999   -4.324085
     42          1           0       -1.491651   -0.761752   -5.301788
     43          1           0       -2.783683   -1.407098   -4.286849
     44          1           0       -1.183808   -2.165716   -4.266403
     45          7           0        1.334728    1.363898   -1.147596
     46          1           0        0.783493    2.202547   -1.028106
     47          6           0        2.787656    1.447658   -1.064717
     48          1           0        3.234918    0.941089   -1.924603
     49          6           0        3.221526    0.696831    0.199480
     50          6           0        3.247357    2.915383   -1.008315
     51          1           0        2.918447    3.403849   -1.931002
     52          1           0        2.706613    3.413523   -0.190825
     53          8           0        2.740789    0.964490    1.298116
     54          6           0        4.781932    3.080903   -0.832664
     55          1           0        5.186301    3.685316   -1.651357
     56          1           0        5.282753    2.107427   -0.893507
     57          6           0        5.198783    3.768269    0.479884
     58          1           0        6.285259    3.875301    0.506747
     59          1           0        4.771240    4.774453    0.540207
     60          7           0        4.760096    3.027479    1.673816
     61          1           0        3.768328    2.811086    1.707485
     62          7           0        6.834553    2.425218    2.566417
     63          1           0        7.392394    1.780287    3.108032
     64          1           0        7.221498    3.346627    2.422466
     65          7           0        4.921189    1.211260    3.082235
     66          1           0        4.007904    0.880557    2.765365
     67          1           0        5.379728    0.672441    3.810391
     68          6           0        5.507784    2.216410    2.441143
     69          8           0        4.197997   -0.177118    0.003352
     70          1           0        4.244444   -0.803427    0.769760
 ---------------------------------------------------------------------

 SCF Done:  E(RB3LYP) =  -1582.24791847     A.U. after    1 cycles

 Alpha  occ. eigenvalues --  -19.30750 -19.26476 -19.21684 -19.19411 -14.52259
 Alpha  occ. eigenvalues --  -14.51550 -14.50256 -14.48174 -14.47158 -14.44842
 Alpha  occ. eigenvalues --  -14.38061 -10.48021 -10.44414 -10.38577 -10.36844
 Alpha  occ. eigenvalues --  -10.36246 -10.35465 -10.32568 -10.32478 -10.32416
 Alpha  occ. eigenvalues --  -10.32096 -10.30636 -10.30275 -10.29681 -10.29189
 Alpha  occ. eigenvalues --  -10.28945 -10.28823 -10.28701 -10.28092 -10.28065
 Alpha  occ. eigenvalues --  -10.26019 -10.25181 -10.23617 -10.23471  -1.22463
 Alpha  occ. eigenvalues --   -1.16501  -1.14259  -1.13426  -1.11263  -1.07554
 Alpha  occ. eigenvalues --   -1.06063  -1.04390  -1.03321  -1.00919  -0.96057
 Alpha  occ. eigenvalues --   -0.94372  -0.92891  -0.89405  -0.88812  -0.87355
 Alpha  occ. eigenvalues --   -0.84016  -0.83386  -0.82106  -0.80991  -0.79805
 Alpha  occ. eigenvalues --   -0.79088  -0.77740  -0.75464  -0.73647  -0.73329
 Alpha  occ. eigenvalues --   -0.71956  -0.71433  -0.69890  -0.69792  -0.69140
 Alpha  occ. eigenvalues --   -0.68511  -0.66755  -0.65703  -0.64896  -0.64873
 Alpha  occ. eigenvalues --   -0.63887  -0.63382  -0.62901  -0.62032  -0.61328
 Alpha  occ. eigenvalues --   -0.59973  -0.59539  -0.58853  -0.58511  -0.57731
 Alpha  occ. eigenvalues --   -0.57066  -0.56544  -0.56379  -0.56019  -0.55515
 Alpha  occ. eigenvalues --   -0.54630  -0.54067  -0.53474  -0.52977  -0.52575
 Alpha  occ. eigenvalues --   -0.51766  -0.51527  -0.51227  -0.50270  -0.49965
 Alpha  occ. eigenvalues --   -0.49351  -0.49014  -0.48653  -0.48538  -0.48058
 Alpha  occ. eigenvalues --   -0.47450  -0.47003  -0.46805  -0.46516  -0.46038
 Alpha  occ. eigenvalues --   -0.45229  -0.44429  -0.44152  -0.43909  -0.43694
 Alpha  occ. eigenvalues --   -0.43578  -0.43067  -0.42278  -0.41533  -0.40510
 Alpha  occ. eigenvalues --   -0.40496  -0.40049  -0.39414  -0.39138  -0.37552
 Alpha  occ. eigenvalues --   -0.36919  -0.36616  -0.33404  -0.33170  -0.32555
 Alpha  occ. eigenvalues --   -0.31002  -0.30407
 Alpha virt. eigenvalues --   -0.12682  -0.12376  -0.11635  -0.08958  -0.08302
 Alpha virt. eigenvalues --   -0.07537  -0.05509  -0.04599  -0.03807  -0.03261
 Alpha virt. eigenvalues --   -0.02590  -0.01478  -0.00562  -0.00297  -0.00008

 Mulliken charges:
               1
     1  N   -0.685176
     2  H    0.313363
     3  H    0.313106
     4  C   -0.098563
     5  H    0.153517
     6  C    0.612889
     7  C   -0.342722
     8  H    0.145281
     9  H    0.176033
    10  O   -0.514807
    11  C    0.116367
    12  C   -0.060049
    13  H    0.237728
    14  C    0.064919
    15  C    0.261633
    16  C   -0.210690
    17  H    0.153298
    18  N   -0.727797
    19  H    0.357624
    20  C   -0.194228
    21  H    0.150927
    22  C   -0.178675
    23  H    0.149835
    24  C   -0.161759
    25  H    0.152511
    26  N   -0.609726
    27  H    0.327642
    28  C   -0.041113
    29  H    0.133077
    30  C    0.647795
    31  C   -0.082973
    32  H    0.190622
    33  O   -0.517807
    34  C   -0.270491
    35  H    0.126250
    36  H    0.135588
    37  C   -0.459079
    38  H    0.133221
    39  H    0.164787
    40  H    0.163098
    41  C   -0.450295
    42  H    0.152106
    43  H    0.158093
    44  H    0.156248
    45  N   -0.624928
    46  H    0.336077
    47  C    0.019930
    48  H    0.202868
    49  C    0.626337
    50  C   -0.336595
    51  H    0.192828
    52  H    0.148398
    53  O   -0.539074
    54  C   -0.286988
    55  H    0.185570
    56  H    0.183357
    57  C   -0.173737
    58  H    0.173623
    59  H    0.195743
    60  N   -0.601374
    61  H    0.377879
    62  N   -0.751402
    63  H    0.379819
    64  H    0.380772
    65  N   -0.793458
    66  H    0.420932
    67  H    0.375395
    68  C    0.788317
    69  O   -0.576216
    70  H    0.454319
 Sum of Mulliken charges =   1.00000

 Dipole moment (field-independent basis, Debye):
    X=             21.6790    Y=             10.7000    Z=              7.1087  Tot=             25.1993
 Quadrupole moment (field-independent basis, Debye-Ang):
   XX=            -50.4366   YY=           -161.2151   ZZ=           -167.3389
   XY=             41.4359   XZ=             52.2625   YZ=              8.4344

 Normal termination of Gaussian 16 at Fri Jun  3 04:24:22 2022.
