 Gaussian 16, Revision C.01,
 Gaussian 16:  ES64L-G16RevC.01  3-Jul-2019

 ----------------------------------------------------------------------
 # B3LYP/6-31G* empiricaldispersion=gd3 guess=read geom=check nosymm in
 tegral(ultrafinegrid)
 ----------------------------------------------------------------------

 ------------------------------------------------------
 Candidate Structure: Conf:684 Charge calc in gas phase
 ------------------------------------------------------
 Structure from the checkpoint file:  "conf-684.chk"
 Charge =  1 Multiplicity = 1

                          Input orientation:
 ---------------------------------------------------------------------
 Center     Atomic      Atomic             Coordinates (Angstroms)
 Number     Number       Type             X           Y           Z
 ---------------------------------------------------------------------
      1          7           0        2.538346   -3.815592   -1.752949
      2          1           0        3.520948   -3.563407   -1.856206
      3          1           0        2.500723   -4.828914   -1.654766
      4          6           0        2.036671   -3.179167   -0.537073
      5          1           0        0.981345   -3.453332   -0.425623
      6          6           0        2.163867   -1.668592   -0.710900
      7          6           0        2.806324   -3.557832    0.781353
      8          1           0        2.493230   -4.567649    1.076335
      9          1           0        3.870898   -3.611964    0.525506
     10          8           0        3.213342   -1.188645   -1.155782
     11          6           0        2.624788   -2.567028    1.896499
     12          6           0        3.578788   -1.687842    2.346714
     13          1           0        4.625717   -1.622175    2.083275
     14          6           0        1.393759   -2.199761    2.554568
     15          6           0        1.673558   -1.074848    3.380822
     16          6           0        0.071492   -2.675487    2.480472
     17          1           0       -0.168898   -3.545029    1.873037
     18          7           0        3.017948   -0.781178    3.232045
     19          1           0        3.523274   -0.052082    3.718026
     20          6           0       -0.617570   -0.913714    4.020662
     21          1           0       -1.412263   -0.433187    4.583351
     22          6           0        0.680709   -0.424227    4.120814
     23          1           0        0.913818    0.433764    4.744642
     24          6           0       -0.920024   -2.028586    3.209520
     25          1           0       -1.943270   -2.389383    3.164123
     26          7           0        1.093899   -0.937576   -0.308283
     27          1           0        0.354898   -1.474327    0.129203
     28          6           0        1.126093    0.449826    0.185810
     29          1           0        1.154266    0.376601    1.279004
     30          6           0        2.395600    1.170900   -0.296010
     31          6           0       -0.139044    1.240030   -0.204603
     32          1           0       -0.130289    1.333586   -1.297275
     33          8           0        2.448154    1.696069   -1.415069
     34          6           0       -0.096580    2.670154    0.386290
     35          1           0        0.699856    3.236420   -0.111297
     36          1           0       -1.035423    3.165398    0.109874
     37          6           0       -1.410513    0.485029    0.217534
     38          1           0       -1.394791    0.216496    1.280415
     39          1           0       -2.294420    1.106419    0.040644
     40          1           0       -1.547244   -0.435514   -0.360764
     41          6           0        0.092026    2.759547    1.909060
     42          1           0       -0.042958    3.792037    2.247705
     43          1           0        1.097910    2.449820    2.216929
     44          1           0       -0.626968    2.135946    2.451112
     45          7           0        3.354639    1.229055    0.651201
     46          1           0        3.146845    0.739827    1.514778
     47          6           0        4.741312    1.686852    0.576496
     48          1           0        5.386277    0.791168    0.542707
     49          6           0        5.057357    2.301674    1.948954
     50          6           0        5.085374    2.545281   -0.651973
     51          1           0        4.285487    3.272274   -0.811644
     52          1           0        5.995303    3.107333   -0.431579
     53          8           0        4.507221    1.950256    2.974147
     54          6           0        5.295470    1.658918   -1.900719
     55          1           0        4.756166    0.717733   -1.771438
     56          1           0        6.356858    1.402374   -2.006392
     57          6           0        4.801913    2.334689   -3.185768
     58          1           0        3.793058    2.726294   -3.037834
     59          1           0        5.441476    3.174424   -3.468834
     60          7           0        4.802656    1.413717   -4.340795
     61          1           0        5.428474    1.617782   -5.107399
     62          7           0        2.997709    0.093709   -3.654314
     63          1           0        2.769013   -0.868453   -3.428651
     64          1           0        2.754237    0.743254   -2.893612
     65          7           0        4.344532   -0.600115   -5.395676
     66          1           0        5.204264   -0.558919   -5.921883
     67          1           0        3.656759   -1.284228   -5.676166
     68          6           0        4.046476    0.312701   -4.445226
     69          8           0        6.053032    3.196258    1.914287
     70          1           0        6.226207    3.479746    2.833537
 ---------------------------------------------------------------------

 SCF Done:  E(RB3LYP) =  -1582.25912411     A.U. after    3 cycles

 Alpha  occ. eigenvalues --  -19.31098 -19.25481 -19.22184 -19.21764 -14.51000
 Alpha  occ. eigenvalues --  -14.50745 -14.48146 -14.46789 -14.46470 -14.45819
 Alpha  occ. eigenvalues --  -14.40714 -10.46488 -10.43653 -10.39898 -10.38440
 Alpha  occ. eigenvalues --  -10.35587 -10.34311 -10.32474 -10.31614 -10.30597
 Alpha  occ. eigenvalues --  -10.30460 -10.29588 -10.29309 -10.28158 -10.27502
 Alpha  occ. eigenvalues --  -10.27256 -10.27056 -10.27005 -10.26944 -10.26646
 Alpha  occ. eigenvalues --  -10.26427 -10.25788 -10.25313 -10.24837  -1.22139
 Alpha  occ. eigenvalues --   -1.15041  -1.14371  -1.13147  -1.12903  -1.06430
 Alpha  occ. eigenvalues --   -1.04605  -1.03757  -1.02529  -1.02285  -0.97891
 Alpha  occ. eigenvalues --   -0.92233  -0.91570  -0.89602  -0.88514  -0.86853
 Alpha  occ. eigenvalues --   -0.83220  -0.82010  -0.81530  -0.80800  -0.79671
 Alpha  occ. eigenvalues --   -0.78707  -0.76456  -0.74605  -0.73106  -0.72823
 Alpha  occ. eigenvalues --   -0.71656  -0.71114  -0.70579  -0.68766  -0.68116
 Alpha  occ. eigenvalues --   -0.67655  -0.66959  -0.64843  -0.64088  -0.63667
 Alpha  occ. eigenvalues --   -0.62880  -0.62617  -0.61727  -0.61458  -0.60751
 Alpha  occ. eigenvalues --   -0.59793  -0.59548  -0.58955  -0.57641  -0.56918
 Alpha  occ. eigenvalues --   -0.56812  -0.55670  -0.55444  -0.55339  -0.54692
 Alpha  occ. eigenvalues --   -0.54300  -0.53301  -0.52807  -0.52356  -0.51569
 Alpha  occ. eigenvalues --   -0.51382  -0.50921  -0.50738  -0.50478  -0.50150
 Alpha  occ. eigenvalues --   -0.49730  -0.49610  -0.49018  -0.48392  -0.48096
 Alpha  occ. eigenvalues --   -0.47775  -0.46960  -0.46424  -0.46081  -0.45970
 Alpha  occ. eigenvalues --   -0.45506  -0.45221  -0.44420  -0.43662  -0.43369
 Alpha  occ. eigenvalues --   -0.43024  -0.41888  -0.41508  -0.41316  -0.40791
 Alpha  occ. eigenvalues --   -0.40223  -0.40112  -0.39874  -0.38749  -0.36870
 Alpha  occ. eigenvalues --   -0.36431  -0.35988  -0.35459  -0.34586  -0.32961
 Alpha  occ. eigenvalues --   -0.30797  -0.28746
 Alpha virt. eigenvalues --   -0.11119  -0.10650  -0.09810  -0.09161  -0.07626
 Alpha virt. eigenvalues --   -0.07091  -0.06148  -0.03460  -0.02978  -0.02672
 Alpha virt. eigenvalues --   -0.01742  -0.00827  -0.00378   0.00415   0.00494

 Mulliken charges:
               1
     1  N   -0.719915
     2  H    0.306366
     3  H    0.314113
     4  C   -0.072491
     5  H    0.148680
     6  C    0.638487
     7  C   -0.356077
     8  H    0.164759
     9  H    0.149938
    10  O   -0.580021
    11  C    0.062498
    12  C   -0.020824
    13  H    0.157133
    14  C    0.086464
    15  C    0.288368
    16  C   -0.247567
    17  H    0.136981
    18  N   -0.699660
    19  H    0.363269
    20  C   -0.154884
    21  H    0.148961
    22  C   -0.165683
    23  H    0.149474
    24  C   -0.135676
    25  H    0.145629
    26  N   -0.611963
    27  H    0.357707
    28  C   -0.059550
    29  H    0.180958
    30  C    0.671210
    31  C   -0.070067
    32  H    0.148729
    33  O   -0.591928
    34  C   -0.279106
    35  H    0.149888
    36  H    0.150324
    37  C   -0.492191
    38  H    0.167196
    39  H    0.165650
    40  H    0.146558
    41  C   -0.463533
    42  H    0.159880
    43  H    0.135493
    44  H    0.159164
    45  N   -0.623246
    46  H    0.393132
    47  C   -0.060631
    48  H    0.197096
    49  C    0.611762
    50  C   -0.282011
    51  H    0.183058
    52  H    0.186174
    53  O   -0.480141
    54  C   -0.296731
    55  H    0.199799
    56  H    0.150848
    57  C   -0.174408
    58  H    0.215020
    59  H    0.178253
    60  N   -0.602784
    61  H    0.357233
    62  N   -0.767014
    63  H    0.376396
    64  H    0.443763
    65  N   -0.765967
    66  H    0.372271
    67  H    0.383178
    68  C    0.788571
    69  O   -0.549681
    70  H    0.433317
 Sum of Mulliken charges =   1.00000

 Dipole moment (field-independent basis, Debye):
    X=             19.3527    Y=              1.0362    Z=             -8.8112  Tot=             21.2894
 Quadrupole moment (field-independent basis, Debye-Ang):
   XX=            -87.2102   YY=           -167.9851   ZZ=           -116.1996
   XY=             17.9979   XZ=            -52.5039   YZ=              8.1875

 Normal termination of Gaussian 16 at Fri Jun  3 04:31:01 2022.
