 Gaussian 16, Revision C.01,
 Gaussian 16:  ES64L-G16RevC.01  3-Jul-2019

 ----------------------------------------------------------------------
 # B3LYP/6-31G* empiricaldispersion=gd3 guess=read geom=check nosymm in
 tegral(ultrafinegrid)
 ----------------------------------------------------------------------

 ------------------------------------------------------
 Candidate Structure: Conf:433 Charge calc in gas phase
 ------------------------------------------------------
 Structure from the checkpoint file:  "conf-433.chk"
 Charge =  1 Multiplicity = 1

                          Input orientation:
 ---------------------------------------------------------------------
 Center     Atomic      Atomic             Coordinates (Angstroms)
 Number     Number       Type             X           Y           Z
 ---------------------------------------------------------------------
      1          7           0        0.884619   -4.024396    2.068062
      2          1           0        0.543714   -4.546797    1.262666
      3          1           0        1.867720   -3.833656    1.871573
      4          6           0        0.189754   -2.749425    2.165589
      5          1           0       -0.888384   -2.936890    2.079670
      6          6           0        0.595673   -1.759107    1.066915
      7          6           0        0.445871   -2.119008    3.568572
      8          1           0        1.514479   -2.216834    3.788386
      9          1           0        0.244626   -1.041959    3.536766
     10          8           0        1.640289   -1.853577    0.427827
     11          6           0       -0.404660   -2.757110    4.617979
     12          6           0       -0.147803   -3.892141    5.344195
     13          1           0        0.728517   -4.524348    5.339008
     14          6           0       -1.736584   -2.336655    4.969782
     15          6           0       -2.231126   -3.260935    5.930997
     16          6           0       -2.559485   -1.272016    4.564918
     17          1           0       -2.199974   -0.542853    3.840244
     18          7           0       -1.237249   -4.195979    6.138649
     19          1           0       -1.292879   -4.974432    6.776591
     20          6           0       -4.298419   -2.080094    6.067665
     21          1           0       -5.295429   -1.961326    6.481989
     22          6           0       -3.506954   -3.143004    6.490324
     23          1           0       -3.868980   -3.855689    7.226415
     24          6           0       -3.830390   -1.152165    5.113853
     25          1           0       -4.475435   -0.331873    4.810998
     26          7           0       -0.253428   -0.689948    0.881737
     27          1           0       -1.173174   -0.741947    1.300956
     28          6           0       -0.091546    0.202509   -0.267631
     29          1           0       -0.731099    1.069625   -0.060521
     30          6           0        1.360740    0.721114   -0.282609
     31          6           0       -0.498228   -0.412545   -1.634704
     32          1           0        0.367733   -0.980002   -1.990849
     33          8           0        2.019017    0.836177   -1.324665
     34          6           0       -0.798522    0.691791   -2.678025
     35          1           0        0.044753    1.391249   -2.707234
     36          1           0       -0.837408    0.212571   -3.665496
     37          6           0       -1.677810   -1.384556   -1.489170
     38          1           0       -2.537516   -0.923047   -0.988781
     39          1           0       -2.013481   -1.718296   -2.476973
     40          1           0       -1.396089   -2.274657   -0.919415
     41          6           0       -2.099561    1.477497   -2.463174
     42          1           0       -2.202529    2.262169   -3.220490
     43          1           0       -2.133340    1.970201   -1.483571
     44          1           0       -2.980747    0.832977   -2.538560
     45          7           0        1.853849    1.102608    0.916718
     46          1           0        1.328056    0.811692    1.737187
     47          6           0        3.289377    1.207447    1.135162
     48          1           0        3.797083    0.600913    0.377030
     49          6           0        3.590042    0.571130    2.490051
     50          6           0        3.807722    2.662707    1.087719
     51          1           0        3.280082    3.237709    1.857165
     52          1           0        4.869791    2.662837    1.359104
     53          8           0        2.746279    0.197625    3.274852
     54          6           0        3.608086    3.354205   -0.269265
     55          1           0        3.829416    4.422759   -0.151978
     56          1           0        2.561321    3.275286   -0.580297
     57          6           0        4.509103    2.779134   -1.369265
     58          1           0        5.563730    2.852162   -1.083803
     59          1           0        4.289515    1.726041   -1.547855
     60          7           0        4.366470    3.496842   -2.647015
     61          1           0        4.773136    4.422771   -2.690939
     62          7           0        2.748708    2.119222   -3.613667
     63          1           0        2.348427    1.738481   -4.459432
     64          1           0        2.480409    1.661720   -2.728309
     65          7           0        3.700052    3.850014   -4.829616
     66          1           0        4.528308    4.389970   -5.035013
     67          1           0        3.048129    3.706660   -5.586989
     68          6           0        3.598641    3.138763   -3.684297
     69          8           0        4.913365    0.491860    2.707300
     70          1           0        5.044073    0.087380    3.586762
 ---------------------------------------------------------------------

 SCF Done:  E(RB3LYP) =  -1582.24670774     A.U. after    1 cycles

 Alpha  occ. eigenvalues --  -19.30069 -19.24664 -19.23532 -19.20680 -14.52394
 Alpha  occ. eigenvalues --  -14.52273 -14.50713 -14.46108 -14.45253 -14.42699
 Alpha  occ. eigenvalues --  -14.37925 -10.48413 -10.42624 -10.40263 -10.36744
 Alpha  occ. eigenvalues --  -10.35519 -10.34532 -10.33298 -10.30633 -10.30250
 Alpha  occ. eigenvalues --  -10.29282 -10.27868 -10.27033 -10.26563 -10.26553
 Alpha  occ. eigenvalues --  -10.25866 -10.25768 -10.25181 -10.23692 -10.23596
 Alpha  occ. eigenvalues --  -10.23110 -10.23065 -10.22930 -10.22833  -1.21126
 Alpha  occ. eigenvalues --   -1.16738  -1.15162  -1.12341  -1.12292  -1.06191
 Alpha  occ. eigenvalues --   -1.04588  -1.03577  -1.02528  -1.01297  -0.95530
 Alpha  occ. eigenvalues --   -0.92060  -0.89670  -0.88543  -0.87203  -0.85120
 Alpha  occ. eigenvalues --   -0.83005  -0.81491  -0.80103  -0.79005  -0.78128
 Alpha  occ. eigenvalues --   -0.77944  -0.76155  -0.74235  -0.73042  -0.72833
 Alpha  occ. eigenvalues --   -0.72404  -0.70653  -0.69989  -0.68638  -0.67294
 Alpha  occ. eigenvalues --   -0.66886  -0.65879  -0.64999  -0.64522  -0.63974
 Alpha  occ. eigenvalues --   -0.61561  -0.61305  -0.61204  -0.60503  -0.59374
 Alpha  occ. eigenvalues --   -0.58776  -0.58573  -0.57873  -0.57612  -0.56949
 Alpha  occ. eigenvalues --   -0.56388  -0.55035  -0.54776  -0.54561  -0.53387
 Alpha  occ. eigenvalues --   -0.53256  -0.52645  -0.51973  -0.51807  -0.51213
 Alpha  occ. eigenvalues --   -0.50597  -0.50350  -0.50313  -0.49385  -0.48729
 Alpha  occ. eigenvalues --   -0.48074  -0.47871  -0.47422  -0.47377  -0.46757
 Alpha  occ. eigenvalues --   -0.46427  -0.46351  -0.46233  -0.45638  -0.45256
 Alpha  occ. eigenvalues --   -0.44666  -0.43811  -0.42972  -0.42679  -0.42347
 Alpha  occ. eigenvalues --   -0.42029  -0.41427  -0.41377  -0.40876  -0.40608
 Alpha  occ. eigenvalues --   -0.40016  -0.38507  -0.38201  -0.37973  -0.37585
 Alpha  occ. eigenvalues --   -0.36785  -0.34951  -0.34030  -0.32135  -0.30508
 Alpha  occ. eigenvalues --   -0.26889  -0.24913
 Alpha virt. eigenvalues --   -0.12430  -0.09623  -0.09290  -0.08360  -0.06919
 Alpha virt. eigenvalues --   -0.05682  -0.04653  -0.03886  -0.02577  -0.02095
 Alpha virt. eigenvalues --   -0.01921  -0.01399   0.00245   0.00844   0.00974

 Mulliken charges:
               1
     1  N   -0.687981
     2  H    0.305711
     3  H    0.309298
     4  C   -0.089431
     5  H    0.158093
     6  C    0.587490
     7  C   -0.350798
     8  H    0.159905
     9  H    0.149977
    10  O   -0.525754
    11  C    0.067586
    12  C    0.023991
    13  H    0.160394
    14  C    0.086014
    15  C    0.314776
    16  C   -0.217826
    17  H    0.090988
    18  N   -0.692131
    19  H    0.333433
    20  C   -0.152658
    21  H    0.132560
    22  C   -0.158826
    23  H    0.132238
    24  C   -0.137270
    25  H    0.120855
    26  N   -0.633803
    27  H    0.347185
    28  C   -0.046294
    29  H    0.170665
    30  C    0.647115
    31  C   -0.064003
    32  H    0.162782
    33  O   -0.586280
    34  C   -0.277380
    35  H    0.117272
    36  H    0.140680
    37  C   -0.470840
    38  H    0.146311
    39  H    0.162986
    40  H    0.155549
    41  C   -0.457028
    42  H    0.152719
    43  H    0.142978
    44  H    0.167348
    45  N   -0.587938
    46  H    0.374268
    47  C   -0.051776
    48  H    0.205624
    49  C    0.596108
    50  C   -0.277465
    51  H    0.171050
    52  H    0.175166
    53  O   -0.453573
    54  C   -0.265484
    55  H    0.154019
    56  H    0.165264
    57  C   -0.173831
    58  H    0.185878
    59  H    0.205933
    60  N   -0.600906
    61  H    0.360094
    62  N   -0.797732
    63  H    0.369657
    64  H    0.468870
    65  N   -0.765876
    66  H    0.379464
    67  H    0.379520
    68  C    0.811820
    69  O   -0.559585
    70  H    0.432836
 Sum of Mulliken charges =   1.00000

 Dipole moment (field-independent basis, Debye):
    X=             13.6389    Y=             10.5405    Z=             -9.1086  Tot=             19.4959
 Quadrupole moment (field-independent basis, Debye-Ang):
   XX=           -123.1441   YY=           -133.7561   ZZ=           -110.4353
   XY=             56.4667   XZ=            -36.3675   YZ=            -64.4258

 Normal termination of Gaussian 16 at Fri Jun  3 04:14:51 2022.
