 Gaussian 16, Revision C.01,
 Gaussian 16:  ES64L-G16RevC.01  3-Jul-2019

 ----------------------------------------------------------------------
 # B3LYP/6-31G* empiricaldispersion=gd3 guess=read geom=check nosymm in
 tegral(ultrafinegrid)
 ----------------------------------------------------------------------

 ------------------------------------------------------
 Candidate Structure: Conf:962 Charge calc in gas phase
 ------------------------------------------------------
 Structure from the checkpoint file:  "conf-962.chk"
 Charge =  1 Multiplicity = 1

                          Input orientation:
 ---------------------------------------------------------------------
 Center     Atomic      Atomic             Coordinates (Angstroms)
 Number     Number       Type             X           Y           Z
 ---------------------------------------------------------------------
      1          7           0        2.616734   -4.646424    1.442244
      2          1           0        2.290414   -5.048259    0.564262
      3          1           0        3.436252   -4.094917    1.186097
      4          6           0        1.604833   -3.739392    1.964695
      5          1           0        0.662194   -4.293069    2.041433
      6          6           0        1.367983   -2.523682    1.049646
      7          6           0        2.022264   -3.289216    3.396204
      8          1           0        2.223013   -4.215620    3.946893
      9          1           0        2.977097   -2.752316    3.322485
     10          8           0        2.178121   -2.186986    0.185407
     11          6           0        1.022248   -2.434548    4.118333
     12          6           0        1.237491   -1.172413    4.615912
     13          1           0        2.147446   -0.590605    4.625520
     14          6           0       -0.369067   -2.740122    4.371161
     15          6           0       -0.937963   -1.605358    5.017736
     16          6           0       -1.195057   -3.852405    4.112391
     17          1           0       -0.789205   -4.748123    3.650914
     18          7           0        0.062509   -0.663226    5.142914
     19          1           0       -0.009088    0.187402    5.679685
     20          6           0       -3.069163   -2.668818    5.128254
     21          1           0       -4.116008   -2.665014    5.417529
     22          6           0       -2.281423   -1.556997    5.403582
     23          1           0       -2.692833   -0.684914    5.904688
     24          6           0       -2.531662   -3.805383    4.489138
     25          1           0       -3.172409   -4.661824    4.300926
     26          7           0        0.230801   -1.806394    1.286015
     27          1           0       -0.400182   -2.118553    2.013927
     28          6           0       -0.154736   -0.644595    0.495774
     29          1           0       -0.797922   -0.036657    1.147863
     30          6           0        1.094305    0.201957    0.180074
     31          6           0       -0.937063   -0.974649   -0.797982
     32          1           0       -0.197027   -1.310269   -1.533380
     33          8           0        1.329699    0.615909   -0.963574
     34          6           0       -1.636859    0.296406   -1.338274
     35          1           0       -2.622329    0.392257   -0.861980
     36          1           0       -1.069927    1.189458   -1.050741
     37          6           0       -1.951506   -2.101503   -0.565903
     38          1           0       -2.646451   -1.851040    0.246407
     39          1           0       -2.546950   -2.273176   -1.468774
     40          1           0       -1.458023   -3.043283   -0.310186
     41          6           0       -1.796196    0.287216   -2.861711
     42          1           0       -2.313004    1.187238   -3.220215
     43          1           0       -2.378741   -0.574212   -3.205111
     44          1           0       -0.814785    0.223025   -3.350723
     45          7           0        1.883590    0.536545    1.226422
     46          1           0        1.769308    0.032533    2.102676
     47          6           0        3.215906    1.049298    0.938321
     48          1           0        3.667385    0.400548    0.173347
     49          6           0        4.084084    0.880575    2.173489
     50          6           0        3.193503    2.512401    0.399586
     51          1           0        2.153123    2.848722    0.425146
     52          1           0        3.761142    3.177434    1.058969
     53          8           0        3.739381    0.346889    3.205188
     54          6           0        3.740600    2.597847   -1.028709
     55          1           0        3.329213    1.776371   -1.619613
     56          1           0        4.828109    2.452946   -1.020742
     57          6           0        3.481012    3.930661   -1.737015
     58          1           0        4.076399    4.724772   -1.278673
     59          1           0        3.782453    3.857863   -2.787660
     60          7           0        2.086819    4.443361   -1.689732
     61          1           0        1.965773    5.360717   -1.282041
     62          7           0        0.931681    2.676910   -2.679586
     63          1           0        0.176843    2.378480   -3.284909
     64          1           0        1.283860    1.941236   -2.045252
     65          7           0        0.038573    4.821510   -2.696282
     66          1           0        0.210253    5.812547   -2.791384
     67          1           0       -0.872795    4.481637   -2.969658
     68          6           0        1.023748    3.965618   -2.355513
     69          8           0        5.316358    1.377268    1.962468
     70          1           0        5.843522    1.209102    2.767098
 ---------------------------------------------------------------------

 SCF Done:  E(RB3LYP) =  -1582.24465182     A.U. after    1 cycles

 Alpha  occ. eigenvalues --  -19.30409 -19.25105 -19.22896 -19.19783 -14.52930
 Alpha  occ. eigenvalues --  -14.52543 -14.50633 -14.45929 -14.44885 -14.44322
 Alpha  occ. eigenvalues --  -14.37687 -10.48540 -10.43093 -10.39727 -10.36152
 Alpha  occ. eigenvalues --  -10.36126 -10.34528 -10.32844 -10.30189 -10.30127
 Alpha  occ. eigenvalues --  -10.29345 -10.28875 -10.28412 -10.27545 -10.27261
 Alpha  occ. eigenvalues --  -10.27043 -10.25926 -10.25677 -10.25437 -10.25364
 Alpha  occ. eigenvalues --  -10.25353 -10.25203 -10.25114 -10.24686  -1.21509
 Alpha  occ. eigenvalues --   -1.16886  -1.14705  -1.12657  -1.11480  -1.06259
 Alpha  occ. eigenvalues --   -1.04763  -1.04731  -1.03049  -1.00792  -0.95407
 Alpha  occ. eigenvalues --   -0.91909  -0.90568  -0.89719  -0.87296  -0.86763
 Alpha  occ. eigenvalues --   -0.83370  -0.81553  -0.80842  -0.80108  -0.79273
 Alpha  occ. eigenvalues --   -0.78148  -0.77661  -0.74326  -0.73337  -0.72788
 Alpha  occ. eigenvalues --   -0.72598  -0.70208  -0.69726  -0.68892  -0.68361
 Alpha  occ. eigenvalues --   -0.67349  -0.66051  -0.65760  -0.65206  -0.65023
 Alpha  occ. eigenvalues --   -0.63087  -0.61899  -0.61244  -0.60885  -0.60140
 Alpha  occ. eigenvalues --   -0.59613  -0.58771  -0.58129  -0.57372  -0.56280
 Alpha  occ. eigenvalues --   -0.55708  -0.55195  -0.55138  -0.54753  -0.54206
 Alpha  occ. eigenvalues --   -0.53816  -0.52871  -0.52775  -0.52260  -0.51536
 Alpha  occ. eigenvalues --   -0.51295  -0.50811  -0.50214  -0.49681  -0.49597
 Alpha  occ. eigenvalues --   -0.49187  -0.48596  -0.48231  -0.47794  -0.47164
 Alpha  occ. eigenvalues --   -0.46951  -0.46176  -0.45893  -0.45727  -0.45152
 Alpha  occ. eigenvalues --   -0.44778  -0.44691  -0.44297  -0.43615  -0.42893
 Alpha  occ. eigenvalues --   -0.42598  -0.42002  -0.41569  -0.41262  -0.41111
 Alpha  occ. eigenvalues --   -0.40932  -0.40103  -0.39594  -0.38633  -0.37165
 Alpha  occ. eigenvalues --   -0.36357  -0.34491  -0.33477  -0.33379  -0.30537
 Alpha  occ. eigenvalues --   -0.29142  -0.27094
 Alpha virt. eigenvalues --   -0.13884  -0.09934  -0.09221  -0.08611  -0.08079
 Alpha virt. eigenvalues --   -0.05792  -0.05497  -0.04427  -0.04063  -0.02464
 Alpha virt. eigenvalues --   -0.01477  -0.00934  -0.00033   0.00239   0.01106

 Mulliken charges:
               1
     1  N   -0.684407
     2  H    0.306920
     3  H    0.308063
     4  C   -0.105415
     5  H    0.155095
     6  C    0.585203
     7  C   -0.334120
     8  H    0.186312
     9  H    0.149144
    10  O   -0.535492
    11  C    0.056353
    12  C   -0.033932
    13  H    0.194202
    14  C    0.028474
    15  C    0.312356
    16  C   -0.226568
    17  H    0.145069
    18  N   -0.688177
    19  H    0.333404
    20  C   -0.151065
    21  H    0.140653
    22  C   -0.164620
    23  H    0.133421
    24  C   -0.138327
    25  H    0.138978
    26  N   -0.620915
    27  H    0.361465
    28  C   -0.049241
    29  H    0.166715
    30  C    0.648935
    31  C   -0.056419
    32  H    0.164515
    33  O   -0.582865
    34  C   -0.258639
    35  H    0.145032
    36  H    0.107461
    37  C   -0.466931
    38  H    0.145722
    39  H    0.159106
    40  H    0.159504
    41  C   -0.466838
    42  H    0.127050
    43  H    0.175948
    44  H    0.143173
    45  N   -0.617584
    46  H    0.375940
    47  C   -0.011297
    48  H    0.221852
    49  C    0.568989
    50  C   -0.272717
    51  H    0.156617
    52  H    0.167956
    53  O   -0.459509
    54  C   -0.306424
    55  H    0.187488
    56  H    0.181924
    57  C   -0.158018
    58  H    0.182264
    59  H    0.196553
    60  N   -0.596518
    61  H    0.362602
    62  N   -0.767562
    63  H    0.371286
    64  H    0.457205
    65  N   -0.753383
    66  H    0.379453
    67  H    0.380944
    68  C    0.764623
    69  O   -0.559857
    70  H    0.432872
 Sum of Mulliken charges =   1.00000

 Dipole moment (field-independent basis, Debye):
    X=              4.2726    Y=             16.5659    Z=             -3.2948  Tot=             17.4224
 Quadrupole moment (field-independent basis, Debye-Ang):
   XX=           -158.0230   YY=           -117.4458   ZZ=           -158.1869
   XY=             30.0382   XZ=              2.4608   YZ=            -26.6531

 Normal termination of Gaussian 16 at Fri Jun  3 04:42:20 2022.
