 Gaussian 16, Revision C.01,
 Gaussian 16:  ES64L-G16RevC.01  3-Jul-2019

 ----------------------------------------------------------------------
 # B3LYP/6-31G* empiricaldispersion=gd3 guess=read geom=check nosymm in
 tegral(ultrafinegrid)
 ----------------------------------------------------------------------

 ------------------------------------------------------
 Candidate Structure: Conf:448 Charge calc in gas phase
 ------------------------------------------------------
 Structure from the checkpoint file:  "conf-448.chk"
 Charge =  1 Multiplicity = 1

                          Input orientation:
 ---------------------------------------------------------------------
 Center     Atomic      Atomic             Coordinates (Angstroms)
 Number     Number       Type             X           Y           Z
 ---------------------------------------------------------------------
      1          7           0       -1.062593   -4.697211    2.064391
      2          1           0       -1.670812   -5.177289    1.402624
      3          1           0       -0.109043   -4.951692    1.802891
      4          6           0       -1.199185   -3.254488    1.913965
      5          1           0       -2.262091   -2.992037    1.985224
      6          6           0       -0.588244   -2.730795    0.605637
      7          6           0       -0.428471   -2.515976    3.037153
      8          1           0        0.625407   -2.824585    2.957827
      9          1           0       -0.445523   -1.445414    2.807446
     10          8           0        0.420747   -3.235866    0.122932
     11          6           0       -0.945273   -2.700243    4.430807
     12          6           0       -1.277647   -3.867260    5.076515
     13          1           0       -1.290343   -4.874501    4.688636
     14          6           0       -1.100774   -1.637628    5.392467
     15          6           0       -1.526541   -2.234329    6.612330
     16          6           0       -0.930102   -0.240902    5.348179
     17          1           0       -0.657465    0.256895    4.420026
     18          7           0       -1.629939   -3.590193    6.382354
     19          1           0       -1.922656   -4.275828    7.061157
     20          6           0       -1.572241   -0.109527    7.696299
     21          1           0       -1.746972    0.500033    8.577957
     22          6           0       -1.764885   -1.484993    7.768087
     23          1           0       -2.088560   -1.959858    8.690287
     24          6           0       -1.163609    0.507839    6.496403
     25          1           0       -1.039924    1.587015    6.470103
     26          7           0       -1.106860   -1.565461    0.094412
     27          1           0       -2.033354   -1.272286    0.372891
     28          6           0       -0.487709   -0.934964   -1.072055
     29          1           0       -0.949404    0.058361   -1.157711
     30          6           0        1.013496   -0.714848   -0.759652
     31          6           0       -0.671020   -1.683129   -2.415367
     32          1           0        0.065336   -2.492667   -2.425579
     33          8           0        1.909029   -0.954418   -1.579430
     34          6           0       -0.382737   -0.724624   -3.594737
     35          1           0       -1.290124   -0.146194   -3.817701
     36          1           0        0.379529    0.008339   -3.306538
     37          6           0       -2.073954   -2.291416   -2.530603
     38          1           0       -2.853041   -1.526781   -2.412245
     39          1           0       -2.212283   -2.751293   -3.514229
     40          1           0       -2.240502   -3.069092   -1.779770
     41          6           0        0.088085   -1.453604   -4.857339
     42          1           0        0.283784   -0.750179   -5.675991
     43          1           0       -0.658129   -2.169081   -5.218076
     44          1           0        1.003688   -2.026083   -4.654644
     45          7           0        1.286201   -0.199272    0.457524
     46          1           0        0.519158   -0.099068    1.110701
     47          6           0        2.638022   -0.206287    1.018718
     48          1           0        3.187224   -1.026911    0.552594
     49          6           0        2.589950   -0.527088    2.512391
     50          6           0        3.383874    1.132823    0.816122
     51          1           0        2.803283    1.923511    1.303775
     52          1           0        4.344149    1.069267    1.344666
     53          8           0        3.394073   -1.220531    3.080846
     54          6           0        3.620222    1.519312   -0.652134
     55          1           0        4.003695    2.547189   -0.681762
     56          1           0        2.670945    1.517736   -1.198020
     57          6           0        4.618192    0.598076   -1.366708
     58          1           0        5.576191    0.579514   -0.837459
     59          1           0        4.248467   -0.426852   -1.409957
     60          7           0        4.907932    1.040405   -2.741567
     61          1           0        5.518277    1.842450   -2.834615
     62          7           0        3.231559   -0.168965   -3.827792
     63          1           0        2.884199   -0.583567   -4.681439
     64          1           0        2.739227   -0.435695   -2.961181
     65          7           0        4.731531    1.117921   -5.043172
     66          1           0        5.683548    1.442064   -5.137568
     67          1           0        4.244943    0.898643   -5.900309
     68          6           0        4.278915    0.647568   -3.857628
     69          8           0        1.560236    0.110782    3.120542
     70          1           0        1.537439   -0.151980    4.063338
 ---------------------------------------------------------------------

 SCF Done:  E(RB3LYP) =  -1582.24712855     A.U. after    3 cycles

 Alpha  occ. eigenvalues --  -19.29604 -19.23795 -19.23686 -19.21128 -14.52288
 Alpha  occ. eigenvalues --  -14.52176 -14.50627 -14.47233 -14.46146 -14.43446
 Alpha  occ. eigenvalues --  -14.39053 -10.48337 -10.41956 -10.40704 -10.37385
 Alpha  occ. eigenvalues --  -10.35442 -10.34551 -10.34006 -10.30774 -10.30519
 Alpha  occ. eigenvalues --  -10.30374 -10.28100 -10.27612 -10.27351 -10.27210
 Alpha  occ. eigenvalues --  -10.27071 -10.26668 -10.26097 -10.24506 -10.24426
 Alpha  occ. eigenvalues --  -10.24164 -10.23873 -10.23848 -10.23799  -1.20250
 Alpha  occ. eigenvalues --   -1.16674  -1.15524  -1.13000  -1.11537  -1.06112
 Alpha  occ. eigenvalues --   -1.04634  -1.04096  -1.03312  -1.01921  -0.96619
 Alpha  occ. eigenvalues --   -0.92124  -0.90328  -0.89387  -0.87261  -0.86090
 Alpha  occ. eigenvalues --   -0.83888  -0.81702  -0.81137  -0.79597  -0.78956
 Alpha  occ. eigenvalues --   -0.77873  -0.76926  -0.74140  -0.73365  -0.73256
 Alpha  occ. eigenvalues --   -0.72349  -0.70931  -0.69969  -0.69331  -0.68473
 Alpha  occ. eigenvalues --   -0.67627  -0.65985  -0.65470  -0.64678  -0.64663
 Alpha  occ. eigenvalues --   -0.62980  -0.62106  -0.61571  -0.60805  -0.59663
 Alpha  occ. eigenvalues --   -0.59080  -0.58669  -0.58315  -0.57483  -0.57244
 Alpha  occ. eigenvalues --   -0.56137  -0.55354  -0.55075  -0.54894  -0.54205
 Alpha  occ. eigenvalues --   -0.53491  -0.53051  -0.52530  -0.52106  -0.51651
 Alpha  occ. eigenvalues --   -0.51553  -0.50539  -0.50105  -0.50057  -0.49715
 Alpha  occ. eigenvalues --   -0.48972  -0.48579  -0.48191  -0.47462  -0.47370
 Alpha  occ. eigenvalues --   -0.47133  -0.46768  -0.46259  -0.46114  -0.45946
 Alpha  occ. eigenvalues --   -0.45293  -0.44694  -0.43611  -0.43290  -0.42893
 Alpha  occ. eigenvalues --   -0.42491  -0.42007  -0.41603  -0.41545  -0.40827
 Alpha  occ. eigenvalues --   -0.40510  -0.39249  -0.38876  -0.38577  -0.38051
 Alpha  occ. eigenvalues --   -0.36085  -0.35462  -0.34703  -0.33055  -0.31443
 Alpha  occ. eigenvalues --   -0.27746  -0.25731
 Alpha virt. eigenvalues --   -0.12259  -0.10310  -0.08884  -0.08204  -0.07545
 Alpha virt. eigenvalues --   -0.06812  -0.04652  -0.04200  -0.03305  -0.03002
 Alpha virt. eigenvalues --   -0.01843  -0.01091   0.00307   0.00500   0.00874

 Mulliken charges:
               1
     1  N   -0.693352
     2  H    0.308746
     3  H    0.320164
     4  C   -0.071629
     5  H    0.144077
     6  C    0.592908
     7  C   -0.375317
     8  H    0.168076
     9  H    0.136328
    10  O   -0.517570
    11  C    0.067756
    12  C    0.018352
    13  H    0.183041
    14  C    0.073819
    15  C    0.318138
    16  C   -0.256861
    17  H    0.115480
    18  N   -0.691834
    19  H    0.335911
    20  C   -0.152452
    21  H    0.136286
    22  C   -0.156320
    23  H    0.136202
    24  C   -0.137313
    25  H    0.125539
    26  N   -0.634888
    27  H    0.342626
    28  C   -0.050676
    29  H    0.168141
    30  C    0.655095
    31  C   -0.059839
    32  H    0.174450
    33  O   -0.583642
    34  C   -0.266462
    35  H    0.146628
    36  H    0.117031
    37  C   -0.465966
    38  H    0.139947
    39  H    0.164476
    40  H    0.155380
    41  C   -0.466669
    42  H    0.140232
    43  H    0.174676
    44  H    0.136600
    45  N   -0.603151
    46  H    0.371613
    47  C   -0.037459
    48  H    0.207302
    49  C    0.587652
    50  C   -0.281857
    51  H    0.175865
    52  H    0.173228
    53  O   -0.433183
    54  C   -0.266089
    55  H    0.155379
    56  H    0.159507
    57  C   -0.177217
    58  H    0.187977
    59  H    0.211215
    60  N   -0.601310
    61  H    0.360296
    62  N   -0.805044
    63  H    0.371223
    64  H    0.469458
    65  N   -0.765070
    66  H    0.378851
    67  H    0.378496
    68  C    0.813531
    69  O   -0.585673
    70  H    0.439144
 Sum of Mulliken charges =   1.00000

 Dipole moment (field-independent basis, Debye):
    X=             11.1110    Y=              1.7731    Z=            -10.7150  Tot=             15.5373
 Quadrupole moment (field-independent basis, Debye-Ang):
   XX=           -118.6735   YY=           -178.7686   ZZ=            -99.1785
   XY=             37.9237   XZ=            -70.3734   YZ=            -22.6992

 Normal termination of Gaussian 16 at Fri Jun  3 04:25:04 2022.
