 Gaussian 16, Revision C.01,
 Gaussian 16:  ES64L-G16RevC.01  3-Jul-2019

 ----------------------------------------------------------------------
 # B3LYP/6-31G* empiricaldispersion=gd3 guess=read geom=check nosymm in
 tegral(ultrafinegrid)
 ----------------------------------------------------------------------

 ------------------------------------------------------
 Candidate Structure: Conf:862 Charge calc in gas phase
 ------------------------------------------------------
 Structure from the checkpoint file:  "conf-862.chk"
 Charge =  1 Multiplicity = 1

                          Input orientation:
 ---------------------------------------------------------------------
 Center     Atomic      Atomic             Coordinates (Angstroms)
 Number     Number       Type             X           Y           Z
 ---------------------------------------------------------------------
      1          7           0        0.407118   -2.212574   -2.640919
      2          1           0        0.226542   -2.951229   -3.318053
      3          1           0        0.109615   -1.335815   -3.063745
      4          6           0       -0.399504   -2.452395   -1.443748
      5          1           0       -1.459285   -2.673087   -1.676060
      6          6           0       -0.432989   -1.142135   -0.632901
      7          6           0        0.167280   -3.668619   -0.670819
      8          1           0       -0.573161   -4.014837    0.061869
      9          1           0        0.246472   -4.493591   -1.390613
     10          8           0       -0.215006   -0.059377   -1.186395
     11          6           0        1.482865   -3.425146    0.013829
     12          6           0        2.674815   -3.083893   -0.574055
     13          1           0        2.894945   -2.933019   -1.620257
     14          6           0        1.723203   -3.463765    1.435146
     15          6           0        3.093725   -3.142117    1.641213
     16          6           0        0.911665   -3.704628    2.556700
     17          1           0       -0.134500   -3.982161    2.438837
     18          7           0        3.642697   -2.891870    0.398705
     19          1           0        4.630524   -2.809253    0.212158
     20          6           0        2.833530   -3.323105    4.007458
     21          1           0        3.250739   -3.302129    5.010436
     22          6           0        3.665226   -3.086659    2.914518
     23          1           0        4.721807   -2.870002    3.050278
     24          6           0        1.466905   -3.622166    3.829894
     25          1           0        0.847738   -3.817338    4.700784
     26          7           0       -0.829480   -1.255340    0.662745
     27          1           0       -0.831099   -2.193180    1.037814
     28          6           0       -0.719803   -0.216939    1.688932
     29          1           0       -1.315025   -0.583395    2.534633
     30          6           0        0.763750   -0.153263    2.136884
     31          6           0       -1.328600    1.156761    1.270724
     32          1           0       -0.694741    1.569410    0.481313
     33          8           0        1.673361   -0.412473    1.342155
     34          6           0       -1.382915    2.167033    2.449594
     35          1           0       -2.313428    2.739326    2.361685
     36          1           0       -1.469409    1.644781    3.413061
     37          6           0       -2.733219    0.938334    0.686663
     38          1           0       -3.405318    0.493363    1.431391
     39          1           0       -3.160756    1.900375    0.385556
     40          1           0       -2.715608    0.291526   -0.192545
     41          6           0       -0.219963    3.163251    2.496817
     42          1           0       -0.329530    3.852338    3.339972
     43          1           0       -0.184740    3.754956    1.574085
     44          1           0        0.743271    2.662090    2.615481
     45          7           0        0.974841    0.178584    3.424262
     46          1           0        0.171160    0.438772    3.983788
     47          6           0        2.244482    0.323792    4.141152
     48          1           0        2.394906   -0.584634    4.745004
     49          6           0        2.040359    1.462007    5.145680
     50          6           0        3.512034    0.465918    3.277199
     51          1           0        4.351519    0.564882    3.971627
     52          1           0        3.631607   -0.484411    2.757179
     53          8           0        0.964767    1.958447    5.402256
     54          6           0        3.514119    1.621633    2.260070
     55          1           0        3.886295    2.547176    2.715840
     56          1           0        2.499421    1.827105    1.915633
     57          6           0        4.363185    1.250923    1.031772
     58          1           0        5.432793    1.300759    1.257052
     59          1           0        4.146880    0.223108    0.727853
     60          7           0        4.129553    2.113043   -0.135104
     61          1           0        4.557961    3.029254   -0.128157
     62          7           0        2.336945    0.878998   -0.964656
     63          1           0        1.593561    0.709614   -1.637208
     64          1           0        2.169704    0.363686   -0.087625
     65          7           0        3.051457    2.794560   -2.069122
     66          1           0        3.859853    3.324815   -2.362903
     67          1           0        2.344629    2.645186   -2.775312
     68          6           0        3.158948    1.909525   -1.046852
     69          8           0        3.189505    1.809134    5.750458
     70          1           0        2.972488    2.488316    6.418132
 ---------------------------------------------------------------------

 SCF Done:  E(RB3LYP) =  -1582.25761152     A.U. after    1 cycles

 Alpha  occ. eigenvalues --  -19.30385 -19.24842 -19.22800 -19.21755 -14.50789
 Alpha  occ. eigenvalues --  -14.50596 -14.47969 -14.47287 -14.46042 -14.45874
 Alpha  occ. eigenvalues --  -14.40245 -10.46435 -10.42845 -10.40022 -10.38704
 Alpha  occ. eigenvalues --  -10.35070 -10.34768 -10.33804 -10.31560 -10.29933
 Alpha  occ. eigenvalues --  -10.29747 -10.29501 -10.29367 -10.28371 -10.28158
 Alpha  occ. eigenvalues --  -10.27202 -10.26913 -10.26902 -10.26661 -10.26520
 Alpha  occ. eigenvalues --  -10.26361 -10.26073 -10.25670 -10.25334  -1.21407
 Alpha  occ. eigenvalues --   -1.15210  -1.14737  -1.13231  -1.12502  -1.05755
 Alpha  occ. eigenvalues --   -1.04588  -1.03790  -1.02694  -1.02223  -0.97619
 Alpha  occ. eigenvalues --   -0.92004  -0.91623  -0.89920  -0.87996  -0.86842
 Alpha  occ. eigenvalues --   -0.83795  -0.82129  -0.81425  -0.80855  -0.79762
 Alpha  occ. eigenvalues --   -0.78673  -0.76414  -0.74345  -0.73263  -0.72509
 Alpha  occ. eigenvalues --   -0.72080  -0.70964  -0.70155  -0.69113  -0.68474
 Alpha  occ. eigenvalues --   -0.67329  -0.67056  -0.65382  -0.64538  -0.63916
 Alpha  occ. eigenvalues --   -0.63067  -0.62085  -0.61919  -0.60432  -0.60195
 Alpha  occ. eigenvalues --   -0.59721  -0.58900  -0.58448  -0.57554  -0.57366
 Alpha  occ. eigenvalues --   -0.57082  -0.56484  -0.55664  -0.54998  -0.54584
 Alpha  occ. eigenvalues --   -0.54167  -0.53499  -0.52438  -0.52390  -0.51906
 Alpha  occ. eigenvalues --   -0.51454  -0.50998  -0.50905  -0.50714  -0.50079
 Alpha  occ. eigenvalues --   -0.49901  -0.49730  -0.49193  -0.48399  -0.48112
 Alpha  occ. eigenvalues --   -0.47934  -0.47303  -0.46525  -0.45777  -0.45496
 Alpha  occ. eigenvalues --   -0.45308  -0.45126  -0.44636  -0.44061  -0.43203
 Alpha  occ. eigenvalues --   -0.42503  -0.41820  -0.41535  -0.41478  -0.41357
 Alpha  occ. eigenvalues --   -0.41062  -0.40661  -0.39155  -0.38498  -0.37675
 Alpha  occ. eigenvalues --   -0.36660  -0.35813  -0.35500  -0.34548  -0.32579
 Alpha  occ. eigenvalues --   -0.30219  -0.28227
 Alpha virt. eigenvalues --   -0.10767  -0.10027  -0.09909  -0.09056  -0.07235
 Alpha virt. eigenvalues --   -0.06841  -0.05700  -0.03490  -0.03252  -0.02622
 Alpha virt. eigenvalues --   -0.01541  -0.01366  -0.01226  -0.00539   0.00059

 Mulliken charges:
               1
     1  N   -0.728446
     2  H    0.309855
     3  H    0.313434
     4  C   -0.066285
     5  H    0.157753
     6  C    0.655988
     7  C   -0.394266
     8  H    0.146402
     9  H    0.172838
    10  O   -0.578080
    11  C    0.086246
    12  C    0.013279
    13  H    0.173445
    14  C    0.095201
    15  C    0.337601
    16  C   -0.244619
    17  H    0.125285
    18  N   -0.697661
    19  H    0.331557
    20  C   -0.164874
    21  H    0.138613
    22  C   -0.185821
    23  H    0.132613
    24  C   -0.141889
    25  H    0.136928
    26  N   -0.591448
    27  H    0.347850
    28  C   -0.082640
    29  H    0.159221
    30  C    0.660928
    31  C   -0.069360
    32  H    0.157541
    33  O   -0.567808
    34  C   -0.287307
    35  H    0.162890
    36  H    0.133846
    37  C   -0.457157
    38  H    0.147160
    39  H    0.158999
    40  H    0.163720
    41  C   -0.457525
    42  H    0.169199
    43  H    0.142811
    44  H    0.140196
    45  N   -0.610541
    46  H    0.366664
    47  C   -0.037736
    48  H    0.209065
    49  C    0.599630
    50  C   -0.297778
    51  H    0.176901
    52  H    0.198483
    53  O   -0.460818
    54  C   -0.274577
    55  H    0.155915
    56  H    0.164931
    57  C   -0.179742
    58  H    0.182553
    59  H    0.197377
    60  N   -0.602844
    61  H    0.355806
    62  N   -0.802503
    63  H    0.390601
    64  H    0.462142
    65  N   -0.763435
    66  H    0.370445
    67  H    0.377135
    68  C    0.795917
    69  O   -0.561574
    70  H    0.431769
 Sum of Mulliken charges =   1.00000

 Dipole moment (field-independent basis, Debye):
    X=             12.3802    Y=              4.2141    Z=              1.9938  Tot=             13.2289
 Quadrupole moment (field-independent basis, Debye-Ang):
   XX=           -131.7806   YY=           -165.7384   ZZ=           -144.0514
   XY=             30.1352   XZ=              5.8573   YZ=             -0.1859

 Normal termination of Gaussian 16 at Fri Jun  3 04:42:25 2022.
