 Gaussian 16, Revision C.01,
 Gaussian 16:  ES64L-G16RevC.01  3-Jul-2019

 ----------------------------------------------------------------------
 # B3LYP/6-31G* empiricaldispersion=gd3 guess=read geom=check nosymm in
 tegral(ultrafinegrid)
 ----------------------------------------------------------------------

 ------------------------------------------------------
 Candidate Structure: Conf:879 Charge calc in gas phase
 ------------------------------------------------------
 Structure from the checkpoint file:  "conf-879.chk"
 Charge =  1 Multiplicity = 1

                          Input orientation:
 ---------------------------------------------------------------------
 Center     Atomic      Atomic             Coordinates (Angstroms)
 Number     Number       Type             X           Y           Z
 ---------------------------------------------------------------------
      1          7           0       -1.075952   -2.312811    3.078818
      2          1           0       -1.412816   -3.026500    2.432912
      3          1           0       -1.191623   -2.688062    4.016449
      4          6           0        0.335943   -2.014561    2.807721
      5          1           0        0.766817   -1.584578    3.722269
      6          6           0        0.452230   -0.910768    1.740497
      7          6           0        1.203604   -3.224663    2.371169
      8          1           0        2.232612   -2.874761    2.246605
      9          1           0        1.203302   -3.957426    3.186968
     10          8           0        1.537223   -0.632937    1.200340
     11          6           0        0.707367   -3.855601    1.101326
     12          6           0        1.073360   -3.517464   -0.180641
     13          1           0        1.785813   -2.774410   -0.508194
     14          6           0       -0.312782   -4.869864    0.978369
     15          6           0       -0.516890   -5.097017   -0.410911
     16          6           0       -1.068788   -5.613223    1.904921
     17          1           0       -0.922392   -5.474022    2.973274
     18          7           0        0.343600   -4.257680   -1.090051
     19          1           0        0.443524   -4.216962   -2.092262
     20          6           0       -2.184395   -6.735380    0.050759
     21          1           0       -2.916438   -7.463214   -0.286232
     22          6           0       -1.448245   -6.024318   -0.889183
     23          1           0       -1.590433   -6.183945   -1.954450
     24          6           0       -1.995392   -6.534102    1.434679
     25          1           0       -2.582524   -7.114625    2.140150
     26          7           0       -0.705781   -0.254152    1.481052
     27          1           0       -1.517758   -0.646278    1.955090
     28          6           0       -0.879365    0.628959    0.328217
     29          1           0       -1.719968    1.291154    0.576318
     30          6           0        0.384350    1.503596    0.250206
     31          6           0       -1.208245   -0.097084   -1.008031
     32          1           0       -0.255657   -0.292434   -1.514254
     33          8           0        1.047829    1.615800   -0.770794
     34          6           0       -2.086985    0.789029   -1.920301
     35          1           0       -2.281711    0.223529   -2.840355
     36          1           0       -3.066545    0.912495   -1.433972
     37          6           0       -1.919871   -1.437598   -0.765190
     38          1           0       -2.861917   -1.297428   -0.219256
     39          1           0       -2.167610   -1.905844   -1.723419
     40          1           0       -1.300671   -2.141632   -0.205157
     41          6           0       -1.534647    2.167909   -2.298919
     42          1           0       -2.220532    2.670443   -2.989121
     43          1           0       -0.555846    2.087209   -2.780192
     44          1           0       -1.415389    2.821785   -1.427060
     45          7           0        0.685387    2.155185    1.414445
     46          1           0        0.109919    1.901151    2.209245
     47          6           0        2.077138    2.467128    1.737565
     48          1           0        2.667220    1.880653    1.049298
     49          6           0        2.542586    1.932986    3.081149
     50          6           0        2.466687    3.963547    1.570171
     51          1           0        1.613157    4.568811    1.888840
     52          1           0        3.298650    4.198095    2.244740
     53          8           0        3.737930    1.891576    3.374154
     54          6           0        2.884916    4.304605    0.124129
     55          1           0        2.774738    5.379259   -0.059518
     56          1           0        2.216398    3.792170   -0.570881
     57          6           0        4.368641    3.960833   -0.187187
     58          1           0        4.548683    3.952250   -1.265283
     59          1           0        5.011157    4.728339    0.254379
     60          7           0        4.908369    2.685008    0.342907
     61          1           0        5.174663    2.672505    1.323718
     62          7           0        4.144309    1.256273   -1.334104
     63          1           0        4.291342    0.394942   -1.843175
     64          1           0        3.166486    1.578763   -1.306859
     65          7           0        5.748207    0.536832    0.176317
     66          1           0        6.475163    0.754548    0.843680
     67          1           0        5.531089   -0.438594    0.027190
     68          6           0        4.918497    1.493243   -0.273694
     69          8           0        1.554274    1.529036    3.900179
     70          1           0        1.963180    1.213909    4.729497
 ---------------------------------------------------------------------

 SCF Done:  E(RB3LYP) =  -1582.24780687     A.U. after    1 cycles

 Alpha  occ. eigenvalues --  -19.31956 -19.25544 -19.22523 -19.20700 -14.52495
 Alpha  occ. eigenvalues --  -14.52147 -14.51429 -14.45725 -14.45245 -14.44710
 Alpha  occ. eigenvalues --  -14.41003 -10.48292 -10.44087 -10.39239 -10.37462
 Alpha  occ. eigenvalues --  -10.35702 -10.34781 -10.32614 -10.31317 -10.30235
 Alpha  occ. eigenvalues --  -10.30118 -10.29125 -10.28809 -10.27080 -10.27055
 Alpha  occ. eigenvalues --  -10.25578 -10.25549 -10.25539 -10.25472 -10.25405
 Alpha  occ. eigenvalues --  -10.24955 -10.24774 -10.24660 -10.24201  -1.22144
 Alpha  occ. eigenvalues --   -1.16817  -1.14507  -1.12677  -1.11853  -1.05936
 Alpha  occ. eigenvalues --   -1.05047  -1.04937  -1.03266  -1.01511  -0.97746
 Alpha  occ. eigenvalues --   -0.91458  -0.90563  -0.88728  -0.87186  -0.86968
 Alpha  occ. eigenvalues --   -0.82606  -0.81734  -0.80786  -0.80209  -0.79190
 Alpha  occ. eigenvalues --   -0.78292  -0.78078  -0.74029  -0.73737  -0.73328
 Alpha  occ. eigenvalues --   -0.71556  -0.70168  -0.69822  -0.69139  -0.68779
 Alpha  occ. eigenvalues --   -0.67001  -0.65975  -0.65658  -0.65099  -0.64704
 Alpha  occ. eigenvalues --   -0.63609  -0.62441  -0.61210  -0.60487  -0.60372
 Alpha  occ. eigenvalues --   -0.59666  -0.58562  -0.58037  -0.57854  -0.57456
 Alpha  occ. eigenvalues --   -0.56161  -0.56075  -0.55180  -0.54927  -0.53940
 Alpha  occ. eigenvalues --   -0.53694  -0.52749  -0.52412  -0.51822  -0.51242
 Alpha  occ. eigenvalues --   -0.51088  -0.50742  -0.50336  -0.49726  -0.49522
 Alpha  occ. eigenvalues --   -0.49331  -0.48989  -0.48306  -0.48184  -0.47589
 Alpha  occ. eigenvalues --   -0.47326  -0.47138  -0.46544  -0.46068  -0.45101
 Alpha  occ. eigenvalues --   -0.44313  -0.44179  -0.43818  -0.43626  -0.42984
 Alpha  occ. eigenvalues --   -0.42607  -0.41897  -0.41004  -0.40891  -0.40330
 Alpha  occ. eigenvalues --   -0.40119  -0.40073  -0.39700  -0.39413  -0.36601
 Alpha  occ. eigenvalues --   -0.36021  -0.35698  -0.34510  -0.34081  -0.32596
 Alpha  occ. eigenvalues --   -0.29110  -0.27198
 Alpha virt. eigenvalues --   -0.13892  -0.11050  -0.08483  -0.08036  -0.07960
 Alpha virt. eigenvalues --   -0.07413  -0.04335  -0.04315  -0.03568  -0.03379
 Alpha virt. eigenvalues --   -0.01724  -0.01511  -0.00140   0.00032   0.00605

 Mulliken charges:
               1
     1  N   -0.766445
     2  H    0.340389
     3  H    0.322717
     4  C   -0.069101
     5  H    0.153430
     6  C    0.641266
     7  C   -0.344028
     8  H    0.156130
     9  H    0.153183
    10  O   -0.589115
    11  C    0.040518
    12  C    0.006836
    13  H    0.146225
    14  C    0.068374
    15  C    0.310695
    16  C   -0.220142
    17  H    0.121211
    18  N   -0.680829
    19  H    0.332140
    20  C   -0.150891
    21  H    0.142055
    22  C   -0.159878
    23  H    0.135642
    24  C   -0.136717
    25  H    0.137526
    26  N   -0.625263
    27  H    0.372166
    28  C   -0.046412
    29  H    0.171791
    30  C    0.645032
    31  C   -0.073822
    32  H    0.144408
    33  O   -0.550309
    34  C   -0.262397
    35  H    0.144863
    36  H    0.135546
    37  C   -0.474336
    38  H    0.140857
    39  H    0.152754
    40  H    0.170670
    41  C   -0.446464
    42  H    0.154272
    43  H    0.155853
    44  H    0.133199
    45  N   -0.594737
    46  H    0.358572
    47  C   -0.035002
    48  H    0.181591
    49  C    0.601895
    50  C   -0.281200
    51  H    0.182272
    52  H    0.159911
    53  O   -0.490631
    54  C   -0.300706
    55  H    0.177706
    56  H    0.190761
    57  C   -0.165059
    58  H    0.198158
    59  H    0.191713
    60  N   -0.588676
    61  H    0.375180
    62  N   -0.742850
    63  H    0.369413
    64  H    0.422673
    65  N   -0.741231
    66  H    0.384410
    67  H    0.382957
    68  C    0.759454
    69  O   -0.563906
    70  H    0.433735
 Sum of Mulliken charges =   1.00000

 Dipole moment (field-independent basis, Debye):
    X=             14.0798    Y=              3.0519    Z=              3.0476  Tot=             14.7255
 Quadrupole moment (field-independent basis, Debye-Ang):
   XX=           -109.6598   YY=           -157.5638   ZZ=           -162.4580
   XY=             29.6080   XZ=             -0.2694   YZ=              6.8778

 Normal termination of Gaussian 16 at Fri Jun  3 04:42:20 2022.
