 Gaussian 16, Revision C.01,
 Gaussian 16:  ES64L-G16RevC.01  3-Jul-2019

 ----------------------------------------------------------------------
 # B3LYP/6-31G* empiricaldispersion=gd3 guess=read geom=check nosymm in
 tegral(ultrafinegrid)
 ----------------------------------------------------------------------

 ------------------------------------------------------
 Candidate Structure: Conf:231 Charge calc in gas phase
 ------------------------------------------------------
 Structure from the checkpoint file:  "conf-231.chk"
 Charge =  1 Multiplicity = 1

                          Input orientation:
 ---------------------------------------------------------------------
 Center     Atomic      Atomic             Coordinates (Angstroms)
 Number     Number       Type             X           Y           Z
 ---------------------------------------------------------------------
      1          7           0       -1.638055   -5.086135    0.716445
      2          1           0       -2.026791   -5.072285   -0.226119
      3          1           0       -0.658795   -5.344553    0.602218
      4          6           0       -1.717703   -3.735604    1.261691
      5          1           0       -2.760865   -3.570386    1.570836
      6          6           0       -1.441938   -2.646303    0.182868
      7          6           0       -0.847194   -3.621697    2.528295
      8          1           0       -1.180905   -2.764149    3.132884
      9          1           0       -1.071052   -4.503195    3.142740
     10          8           0       -1.483979   -2.931984   -1.006291
     11          6           0        0.637069   -3.508153    2.300546
     12          6           0        1.340464   -3.544377    1.120330
     13          1           0        0.991618   -3.642283    0.103133
     14          6           0        1.606403   -3.266696    3.340443
     15          6           0        2.882288   -3.166989    2.715632
     16          6           0        1.511754   -3.078108    4.728669
     17          1           0        0.551289   -3.163399    5.230060
     18          7           0        2.690070   -3.362636    1.366579
     19          1           0        3.381130   -3.180273    0.654325
     20          6           0        3.909846   -2.648789    4.811428
     21          1           0        4.790272   -2.406260    5.399923
     22          6           0        4.041926   -2.847042    3.436004
     23          1           0        5.000992   -2.754377    2.936170
     24          6           0        2.659693   -2.769491    5.451398
     25          1           0        2.595709   -2.618209    6.525019
     26          7           0       -1.255501   -1.370825    0.658028
     27          1           0       -1.074830   -1.298958    1.649426
     28          6           0       -0.803065   -0.214833   -0.119063
     29          1           0       -1.018089    0.656724    0.512392
     30          6           0        0.714508   -0.306765   -0.351278
     31          6           0       -1.540661   -0.014079   -1.468541
     32          1           0       -1.279590   -0.871336   -2.092599
     33          8           0        1.249914   -1.258510   -0.899604
     34          6           0       -1.050855    1.257516   -2.199613
     35          1           0        0.017511    1.156253   -2.432030
     36          1           0       -1.564491    1.285814   -3.168721
     37          6           0       -3.060677   -0.019803   -1.261331
     38          1           0       -3.379280    0.718707   -0.515651
     39          1           0       -3.568998    0.214256   -2.203428
     40          1           0       -3.402730   -1.003944   -0.933613
     41          6           0       -1.285298    2.592140   -1.479381
     42          1           0       -0.979080    3.430490   -2.115161
     43          1           0       -0.708092    2.666418   -0.549440
     44          1           0       -2.340982    2.739101   -1.228510
     45          7           0        1.451648    0.789262    0.057010
     46          1           0        1.054696    1.388150    0.769293
     47          6           0        2.896368    0.702681   -0.014991
     48          1           0        3.143257    0.242101   -0.974279
     49          6           0        3.500607   -0.224078    1.046541
     50          6           0        3.539222    2.100072    0.070698
     51          1           0        3.019915    2.749665   -0.644259
     52          1           0        3.374237    2.519206    1.073162
     53          8           0        4.519534   -0.861974    0.858903
     54          6           0        5.040839    2.059850   -0.244733
     55          1           0        5.190382    1.668141   -1.258464
     56          1           0        5.543585    1.367480    0.440991
     57          6           0        5.685345    3.441764   -0.140616
     58          1           0        5.236976    4.131620   -0.864947
     59          1           0        5.545533    3.853414    0.867920
     60          7           0        7.128095    3.337019   -0.434805
     61          1           0        7.542057    2.416144   -0.349673
     62          7           0        7.520223    5.619694   -0.576488
     63          1           0        8.034235    6.392023   -0.976768
     64          1           0        6.677475    5.839477   -0.065585
     65          7           0        9.184800    4.122429   -1.167794
     66          1           0        9.467680    3.205361   -1.484337
     67          1           0        9.888901    4.847195   -1.167417
     68          6           0        7.939714    4.354523   -0.719032
     69          8           0        2.819194   -0.189803    2.196195
     70          1           0        3.196124   -0.870076    2.803628
 ---------------------------------------------------------------------

 SCF Done:  E(RB3LYP) =  -1582.21731338     A.U. after    1 cycles

 Alpha  occ. eigenvalues --  -19.27974 -19.22851 -19.19632 -19.16803 -14.55799
 Alpha  occ. eigenvalues --  -14.55657 -14.55516 -14.44836 -14.43251 -14.42010
 Alpha  occ. eigenvalues --  -14.35226 -10.52066 -10.40960 -10.38987 -10.36423
 Alpha  occ. eigenvalues --  -10.33660 -10.33417 -10.32848 -10.31720 -10.30396
 Alpha  occ. eigenvalues --  -10.27912 -10.27287 -10.27123 -10.25175 -10.25060
 Alpha  occ. eigenvalues --  -10.24860 -10.24720 -10.24586 -10.24276 -10.24213
 Alpha  occ. eigenvalues --  -10.24076 -10.24022 -10.23880 -10.22336  -1.20437
 Alpha  occ. eigenvalues --   -1.19166  -1.11801  -1.10315  -1.09637  -1.08652
 Alpha  occ. eigenvalues --   -1.08593  -1.03461  -1.01447  -0.98401  -0.94184
 Alpha  occ. eigenvalues --   -0.93139  -0.89850  -0.88343  -0.86840  -0.85380
 Alpha  occ. eigenvalues --   -0.83103  -0.81045  -0.80233  -0.79373  -0.78860
 Alpha  occ. eigenvalues --   -0.77997  -0.76898  -0.75854  -0.74674  -0.73543
 Alpha  occ. eigenvalues --   -0.70798  -0.70124  -0.69292  -0.69042  -0.68455
 Alpha  occ. eigenvalues --   -0.67988  -0.66968  -0.64910  -0.64662  -0.64368
 Alpha  occ. eigenvalues --   -0.63328  -0.61578  -0.61303  -0.60167  -0.59717
 Alpha  occ. eigenvalues --   -0.59472  -0.57542  -0.57382  -0.56778  -0.56170
 Alpha  occ. eigenvalues --   -0.55477  -0.55133  -0.53275  -0.52986  -0.52588
 Alpha  occ. eigenvalues --   -0.52172  -0.51592  -0.51319  -0.49929  -0.49741
 Alpha  occ. eigenvalues --   -0.49159  -0.49055  -0.48966  -0.48666  -0.48133
 Alpha  occ. eigenvalues --   -0.47723  -0.47211  -0.46992  -0.46755  -0.46587
 Alpha  occ. eigenvalues --   -0.46266  -0.45896  -0.45450  -0.44880  -0.44346
 Alpha  occ. eigenvalues --   -0.44294  -0.43845  -0.43494  -0.42252  -0.41761
 Alpha  occ. eigenvalues --   -0.41209  -0.40529  -0.40314  -0.39383  -0.38832
 Alpha  occ. eigenvalues --   -0.38286  -0.38087  -0.37934  -0.37678  -0.34644
 Alpha  occ. eigenvalues --   -0.33697  -0.33180  -0.30858  -0.30186  -0.28271
 Alpha  occ. eigenvalues --   -0.27875  -0.25974
 Alpha virt. eigenvalues --   -0.15805  -0.11511  -0.08829  -0.07830  -0.07407
 Alpha virt. eigenvalues --   -0.06923  -0.06252  -0.06192  -0.03743  -0.03582
 Alpha virt. eigenvalues --   -0.02895  -0.02378  -0.01851  -0.00591   0.00730

 Mulliken charges:
               1
     1  N   -0.703944
     2  H    0.319170
     3  H    0.302839
     4  C   -0.067763
     5  H    0.165699
     6  C    0.602153
     7  C   -0.381351
     8  H    0.134852
     9  H    0.189808
    10  O   -0.523787
    11  C    0.058775
    12  C   -0.007883
    13  H    0.198057
    14  C    0.079498
    15  C    0.282206
    16  C   -0.208237
    17  H    0.136438
    18  N   -0.684686
    19  H    0.345099
    20  C   -0.146966
    21  H    0.132496
    22  C   -0.238366
    23  H    0.145045
    24  C   -0.142637
    25  H    0.134404
    26  N   -0.603327
    27  H    0.335194
    28  C   -0.041608
    29  H    0.128231
    30  C    0.634890
    31  C   -0.088433
    32  H    0.196248
    33  O   -0.514428
    34  C   -0.273345
    35  H    0.134525
    36  H    0.150161
    37  C   -0.457841
    38  H    0.134247
    39  H    0.151735
    40  H    0.172379
    41  C   -0.449055
    42  H    0.145612
    43  H    0.113927
    44  H    0.162306
    45  N   -0.610290
    46  H    0.333617
    47  C   -0.019702
    48  H    0.203584
    49  C    0.608510
    50  C   -0.309131
    51  H    0.174905
    52  H    0.159866
    53  O   -0.495779
    54  C   -0.321061
    55  H    0.178362
    56  H    0.189075
    57  C   -0.142950
    58  H    0.189540
    59  H    0.187469
    60  N   -0.609752
    61  H    0.374480
    62  N   -0.754662
    63  H    0.391668
    64  H    0.396933
    65  N   -0.760374
    66  H    0.391560
    67  H    0.390774
    68  C    0.840121
    69  O   -0.583150
    70  H    0.444047
 Sum of Mulliken charges =   1.00000

 Dipole moment (field-independent basis, Debye):
    X=             34.8646    Y=             23.3793    Z=             -0.5028  Tot=             41.9807
 Quadrupole moment (field-independent basis, Debye-Ang):
   XX=             90.3948   YY=           -112.1470   ZZ=           -189.2409
   XY=            153.0160   XZ=            -29.5375   YZ=            -15.0894

 Normal termination of Gaussian 16 at Fri Jun  3 04:09:34 2022.
