 Gaussian 16, Revision C.01,
 Gaussian 16:  ES64L-G16RevC.01  3-Jul-2019

 ----------------------------------------------------------------------
 # B3LYP/6-31G* empiricaldispersion=gd3 guess=read geom=check nosymm in
 tegral(ultrafinegrid)
 ----------------------------------------------------------------------

 ------------------------------------------------------
 Candidate Structure: Conf:966 Charge calc in gas phase
 ------------------------------------------------------
 Structure from the checkpoint file:  "conf-966.chk"
 Charge =  1 Multiplicity = 1

                          Input orientation:
 ---------------------------------------------------------------------
 Center     Atomic      Atomic             Coordinates (Angstroms)
 Number     Number       Type             X           Y           Z
 ---------------------------------------------------------------------
      1          7           0       -1.112835   -3.247815    2.194954
      2          1           0       -1.238928   -3.834745    3.017985
      3          1           0       -2.022484   -3.183611    1.742206
      4          6           0       -0.646082   -1.918116    2.611345
      5          1           0       -1.442471   -1.296221    3.061207
      6          6           0       -0.131109   -1.225603    1.346120
      7          6           0        0.501034   -2.022393    3.636731
      8          1           0        1.328984   -2.551162    3.153438
      9          1           0        0.849400   -1.003931    3.844779
     10          8           0        1.019033   -1.322810    0.932917
     11          6           0        0.101238   -2.707971    4.909236
     12          6           0       -0.378557   -2.112358    6.050789
     13          1           0       -0.533298   -1.063398    6.265827
     14          6           0        0.120010   -4.128674    5.169158
     15          6           0       -0.363272   -4.321495    6.492609
     16          6           0        0.505149   -5.252344    4.413699
     17          1           0        0.869007   -5.130083    3.397100
     18          7           0       -0.662911   -3.073811    7.001382
     19          1           0       -0.994743   -2.890233    7.935371
     20          6           0       -0.082712   -6.680120    6.301422
     21          1           0       -0.152439   -7.679637    6.720929
     22          6           0       -0.469970   -5.590046    7.072107
     23          1           0       -0.840813   -5.718791    8.085379
     24          6           0        0.399699   -6.513535    4.985816
     25          1           0        0.693702   -7.389022    4.413913
     26          7           0       -1.050794   -0.443725    0.681440
     27          1           0       -2.021635   -0.506507    0.956667
     28          6           0       -0.758076    0.059584   -0.662718
     29          1           0       -1.518011    0.828929   -0.857861
     30          6           0        0.601236    0.790978   -0.613183
     31          6           0       -0.819134   -1.002931   -1.809720
     32          1           0        0.209772   -1.295058   -2.041075
     33          8           0        1.404210    0.746677   -1.554256
     34          6           0       -1.463198   -0.409815   -3.082331
     35          1           0       -1.557295   -1.216511   -3.819347
     36          1           0       -2.491768   -0.098599   -2.845043
     37          6           0       -1.590482   -2.263981   -1.389303
     38          1           0       -2.624114   -2.029732   -1.100637
     39          1           0       -1.640008   -2.961219   -2.232075
     40          1           0       -1.107437   -2.788321   -0.560651
     41          6           0       -0.720622    0.757430   -3.743802
     42          1           0       -1.244280    1.073603   -4.653412
     43          1           0        0.296002    0.448855   -4.012678
     44          1           0       -0.643518    1.626120   -3.079132
     45          7           0        0.828481    1.527149    0.503076
     46          1           0        0.165613    1.386561    1.261793
     47          6           0        2.195014    1.720843    0.977757
     48          1           0        2.758828    0.801707    0.760616
     49          6           0        2.130950    1.776086    2.500838
     50          6           0        2.921408    2.927717    0.324484
     51          1           0        2.153242    3.545026   -0.152967
     52          1           0        3.403680    3.547791    1.086435
     53          8           0        1.129598    1.574211    3.155140
     54          6           0        3.962536    2.466207   -0.704224
     55          1           0        3.570911    1.612665   -1.261567
     56          1           0        4.856259    2.096521   -0.186365
     57          6           0        4.431440    3.554378   -1.674038
     58          1           0        5.031235    4.301611   -1.147856
     59          1           0        5.062864    3.114232   -2.453537
     60          7           0        3.358220    4.337953   -2.333434
     61          1           0        3.363116    5.335348   -2.168527
     62          7           0        2.174995    2.625163   -3.386987
     63          1           0        1.637195    2.328035   -4.190722
     64          1           0        2.097933    1.990261   -2.574895
     65          7           0        1.977893    4.817324   -4.123790
     66          1           0        2.444377    5.693112   -4.313212
     67          1           0        1.168596    4.594017   -4.685586
     68          6           0        2.504666    3.909966   -3.274437
     69          8           0        3.338242    2.027080    3.032794
     70          1           0        3.245046    1.991550    4.004158
 ---------------------------------------------------------------------

 SCF Done:  E(RB3LYP) =  -1582.23111702     A.U. after    1 cycles

 Alpha  occ. eigenvalues --  -19.30166 -19.24772 -19.23099 -19.20200 -14.52682
 Alpha  occ. eigenvalues --  -14.52417 -14.50591 -14.45357 -14.45253 -14.43156
 Alpha  occ. eigenvalues --  -14.38386 -10.48412 -10.42762 -10.39746 -10.36685
 Alpha  occ. eigenvalues --  -10.35973 -10.34295 -10.33108 -10.29982 -10.29937
 Alpha  occ. eigenvalues --  -10.29416 -10.27369 -10.27177 -10.26845 -10.26752
 Alpha  occ. eigenvalues --  -10.26734 -10.24859 -10.24808 -10.23590 -10.23497
 Alpha  occ. eigenvalues --  -10.23295 -10.23126 -10.23031 -10.22599  -1.21233
 Alpha  occ. eigenvalues --   -1.16762  -1.14659  -1.12357  -1.12059  -1.06161
 Alpha  occ. eigenvalues --   -1.04603  -1.03125  -1.02949  -1.01059  -0.95709
 Alpha  occ. eigenvalues --   -0.91740  -0.89199  -0.88476  -0.87091  -0.85109
 Alpha  occ. eigenvalues --   -0.82981  -0.81337  -0.80376  -0.79253  -0.78142
 Alpha  occ. eigenvalues --   -0.78020  -0.76258  -0.74178  -0.73182  -0.72574
 Alpha  occ. eigenvalues --   -0.71896  -0.70391  -0.69596  -0.67903  -0.67584
 Alpha  occ. eigenvalues --   -0.66882  -0.65646  -0.64954  -0.64749  -0.63980
 Alpha  occ. eigenvalues --   -0.61898  -0.60946  -0.60930  -0.59898  -0.59610
 Alpha  occ. eigenvalues --   -0.58730  -0.58506  -0.57711  -0.57288  -0.56102
 Alpha  occ. eigenvalues --   -0.55636  -0.55483  -0.55057  -0.54381  -0.53255
 Alpha  occ. eigenvalues --   -0.52995  -0.52385  -0.51911  -0.51614  -0.51285
 Alpha  occ. eigenvalues --   -0.50962  -0.50582  -0.50220  -0.49503  -0.48809
 Alpha  occ. eigenvalues --   -0.48257  -0.47979  -0.47453  -0.47181  -0.47003
 Alpha  occ. eigenvalues --   -0.46179  -0.45834  -0.45539  -0.44970  -0.44754
 Alpha  occ. eigenvalues --   -0.43534  -0.43458  -0.43265  -0.43018  -0.42383
 Alpha  occ. eigenvalues --   -0.42048  -0.41792  -0.41131  -0.41004  -0.40288
 Alpha  occ. eigenvalues --   -0.39760  -0.38443  -0.38091  -0.37997  -0.37287
 Alpha  occ. eigenvalues --   -0.36384  -0.34575  -0.34145  -0.32174  -0.30367
 Alpha  occ. eigenvalues --   -0.27043  -0.25199
 Alpha virt. eigenvalues --   -0.13529  -0.09688  -0.09158  -0.08668  -0.06600
 Alpha virt. eigenvalues --   -0.05858  -0.05128  -0.03728  -0.02485  -0.02287
 Alpha virt. eigenvalues --   -0.02000  -0.01216   0.00112   0.00435   0.01330

 Mulliken charges:
               1
     1  N   -0.725723
     2  H    0.336664
     3  H    0.297645
     4  C   -0.075985
     5  H    0.119104
     6  C    0.657205
     7  C   -0.361121
     8  H    0.180979
     9  H    0.154159
    10  O   -0.523747
    11  C    0.048278
    12  C   -0.001798
    13  H    0.149375
    14  C    0.059424
    15  C    0.314401
    16  C   -0.218972
    17  H    0.146337
    18  N   -0.688692
    19  H    0.332811
    20  C   -0.150332
    21  H    0.134593
    22  C   -0.161334
    23  H    0.130996
    24  C   -0.140290
    25  H    0.130913
    26  N   -0.640815
    27  H    0.336838
    28  C   -0.040123
    29  H    0.166550
    30  C    0.630409
    31  C   -0.073531
    32  H    0.174463
    33  O   -0.569357
    34  C   -0.265201
    35  H    0.155126
    36  H    0.135195
    37  C   -0.482848
    38  H    0.126202
    39  H    0.162671
    40  H    0.192153
    41  C   -0.459713
    42  H    0.150399
    43  H    0.145909
    44  H    0.121931
    45  N   -0.598661
    46  H    0.369414
    47  C   -0.030603
    48  H    0.226224
    49  C    0.583942
    50  C   -0.277063
    51  H    0.153812
    52  H    0.177294
    53  O   -0.464779
    54  C   -0.318118
    55  H    0.192702
    56  H    0.181939
    57  C   -0.156244
    58  H    0.182940
    59  H    0.197547
    60  N   -0.598211
    61  H    0.363720
    62  N   -0.773674
    63  H    0.371354
    64  H    0.450911
    65  N   -0.756142
    66  H    0.379408
    67  H    0.380328
    68  C    0.775861
    69  O   -0.557777
    70  H    0.432724
 Sum of Mulliken charges =   1.00000

 Dipole moment (field-independent basis, Debye):
    X=              6.1909    Y=             16.2536    Z=             -5.7195  Tot=             18.3090
 Quadrupole moment (field-independent basis, Debye-Ang):
   XX=           -155.1458   YY=           -118.5100   ZZ=           -101.1883
   XY=             55.8270   XZ=            -26.0045   YZ=            -56.9617

 Normal termination of Gaussian 16 at Fri Jun  3 04:42:18 2022.
