 Gaussian 16, Revision C.01,
 Gaussian 16:  ES64L-G16RevC.01  3-Jul-2019

 ----------------------------------------------------------------------
 # B3LYP/6-31G* empiricaldispersion=gd3 guess=read geom=check nosymm in
 tegral(ultrafinegrid)
 ----------------------------------------------------------------------

 ------------------------------------------------------
 Candidate Structure: Conf:156 Charge calc in gas phase
 ------------------------------------------------------
 Structure from the checkpoint file:  "conf-156.chk"
 Charge =  1 Multiplicity = 1

                          Input orientation:
 ---------------------------------------------------------------------
 Center     Atomic      Atomic             Coordinates (Angstroms)
 Number     Number       Type             X           Y           Z
 ---------------------------------------------------------------------
      1          7           0       -2.482420   -2.573385    2.284082
      2          1           0       -3.164542   -1.912017    1.916557
      3          1           0       -2.479801   -3.380768    1.661593
      4          6           0       -1.133906   -1.991120    2.356967
      5          1           0       -1.203900   -1.104655    2.999608
      6          6           0       -0.602644   -1.531612    0.994897
      7          6           0       -0.167724   -2.996028    3.022161
      8          1           0       -0.455509   -4.010218    2.718049
      9          1           0        0.836573   -2.843324    2.619591
     10          8           0        0.183800   -2.173246    0.305172
     11          6           0       -0.141557   -2.835237    4.513499
     12          6           0       -1.204493   -2.875306    5.384203
     13          1           0       -2.240325   -3.109069    5.182686
     14          6           0        1.006088   -2.443889    5.287894
     15          6           0        0.566298   -2.240743    6.626319
     16          6           0        2.366954   -2.240076    4.981918
     17          1           0        2.765049   -2.485439    4.000395
     18          7           0       -0.783834   -2.521017    6.652553
     19          1           0       -1.367858   -2.501924    7.474209
     20          6           0        2.762899   -1.587805    7.298504
     21          1           0        3.457350   -1.252645    8.063181
     22          6           0        1.433082   -1.817768    7.638528
     23          1           0        1.080816   -1.669385    8.655784
     24          6           0        3.227815   -1.801542    5.984889
     25          1           0        4.276678   -1.642132    5.752746
     26          7           0       -1.039007   -0.291656    0.582772
     27          1           0       -1.794822    0.158512    1.080105
     28          6           0       -0.678441    0.208305   -0.744183
     29          1           0       -0.964925    1.267391   -0.748516
     30          6           0        0.863388    0.159925   -0.856766
     31          6           0       -1.376078   -0.511826   -1.928359
     32          1           0       -0.807969   -1.428676   -2.112267
     33          8           0        1.447879   -0.185787   -1.890224
     34          6           0       -1.324554    0.338973   -3.220572
     35          1           0       -0.281593    0.602875   -3.426901
     36          1           0       -1.647455   -0.304001   -4.049774
     37          6           0       -2.816411   -0.904362   -1.568003
     38          1           0       -3.406405   -0.045510   -1.225264
     39          1           0       -3.322895   -1.322644   -2.444417
     40          1           0       -2.839028   -1.663100   -0.780150
     41          6           0       -2.184555    1.610404   -3.223157
     42          1           0       -2.061962    2.152984   -4.166902
     43          1           0       -1.912084    2.303560   -2.417129
     44          1           0       -3.249615    1.382376   -3.115211
     45          7           0        1.531760    0.588073    0.243886
     46          1           0        0.954245    0.722705    1.066959
     47          6           0        2.888914    0.121237    0.530857
     48          1           0        3.067857   -0.762825   -0.092371
     49          6           0        3.015098   -0.372898    1.980034
     50          6           0        4.009483    1.146118    0.255810
     51          1           0        3.774864    2.087548    0.769933
     52          1           0        4.914113    0.745637    0.722498
     53          8           0        4.033529   -0.872248    2.396523
     54          6           0        4.307939    1.398693   -1.231131
     55          1           0        4.290355    0.446973   -1.775412
     56          1           0        5.327918    1.793633   -1.320852
     57          6           0        3.358900    2.392294   -1.913444
     58          1           0        2.322250    2.061018   -1.877073
     59          1           0        3.400733    3.368651   -1.422306
     60          7           0        3.718732    2.619398   -3.325446
     61          1           0        4.496851    3.244983   -3.491841
     62          7           0        2.600792    0.757810   -4.177805
     63          1           0        2.194434    0.294589   -4.978584
     64          1           0        2.287936    0.418512   -3.254648
     65          7           0        3.808684    2.145500   -5.587986
     66          1           0        4.179862    3.061413   -5.794058
     67          1           0        3.641374    1.532961   -6.372662
     68          6           0        3.367305    1.830126   -4.351005
     69          8           0        1.901595   -0.183833    2.716827
     70          1           0        2.054340   -0.564328    3.615749
 ---------------------------------------------------------------------

 SCF Done:  E(RB3LYP) =  -1582.24338762     A.U. after    3 cycles

 Alpha  occ. eigenvalues --  -19.28744 -19.23607 -19.22796 -19.20888 -14.52333
 Alpha  occ. eigenvalues --  -14.52284 -14.50772 -14.46204 -14.45871 -14.43861
 Alpha  occ. eigenvalues --  -14.40618 -10.48431 -10.41386 -10.40261 -10.37249
 Alpha  occ. eigenvalues --  -10.35532 -10.33918 -10.33584 -10.30450 -10.30348
 Alpha  occ. eigenvalues --  -10.29517 -10.27883 -10.27771 -10.27518 -10.26917
 Alpha  occ. eigenvalues --  -10.26100 -10.26010 -10.25561 -10.24955 -10.24531
 Alpha  occ. eigenvalues --  -10.24468 -10.24219 -10.24164 -10.24022  -1.19483
 Alpha  occ. eigenvalues --   -1.16789  -1.15167  -1.12711  -1.10670  -1.06206
 Alpha  occ. eigenvalues --   -1.04647  -1.03689  -1.03675  -1.01596  -0.97262
 Alpha  occ. eigenvalues --   -0.91555  -0.89760  -0.89745  -0.86832  -0.86162
 Alpha  occ. eigenvalues --   -0.83135  -0.81253  -0.80851  -0.79622  -0.79235
 Alpha  occ. eigenvalues --   -0.77791  -0.77040  -0.74288  -0.73470  -0.73038
 Alpha  occ. eigenvalues --   -0.71979  -0.70746  -0.69553  -0.68937  -0.68076
 Alpha  occ. eigenvalues --   -0.67560  -0.65698  -0.65054  -0.64908  -0.64388
 Alpha  occ. eigenvalues --   -0.62421  -0.61988  -0.61551  -0.60302  -0.59864
 Alpha  occ. eigenvalues --   -0.59297  -0.58279  -0.58049  -0.57456  -0.56945
 Alpha  occ. eigenvalues --   -0.56223  -0.55894  -0.54959  -0.54049  -0.53912
 Alpha  occ. eigenvalues --   -0.53495  -0.52759  -0.52728  -0.52215  -0.51494
 Alpha  occ. eigenvalues --   -0.51036  -0.50296  -0.49903  -0.49568  -0.49343
 Alpha  occ. eigenvalues --   -0.48769  -0.48221  -0.48091  -0.47342  -0.47212
 Alpha  occ. eigenvalues --   -0.46619  -0.46498  -0.46245  -0.45739  -0.44992
 Alpha  occ. eigenvalues --   -0.44698  -0.44266  -0.43414  -0.42930  -0.42887
 Alpha  occ. eigenvalues --   -0.42003  -0.41442  -0.41127  -0.40990  -0.40706
 Alpha  occ. eigenvalues --   -0.40368  -0.39476  -0.39178  -0.38353  -0.37478
 Alpha  occ. eigenvalues --   -0.36534  -0.35555  -0.34497  -0.33483  -0.31224
 Alpha  occ. eigenvalues --   -0.28180  -0.26091
 Alpha virt. eigenvalues --   -0.12205  -0.09861  -0.08651  -0.08408  -0.07634
 Alpha virt. eigenvalues --   -0.07240  -0.04753  -0.03971  -0.03590  -0.03230
 Alpha virt. eigenvalues --   -0.01341  -0.00362  -0.00036   0.00360   0.00957

 Mulliken charges:
               1
     1  N   -0.707104
     2  H    0.301413
     3  H    0.317290
     4  C   -0.077872
     5  H    0.155125
     6  C    0.622735
     7  C   -0.344306
     8  H    0.164080
     9  H    0.165640
    10  O   -0.519783
    11  C    0.057443
    12  C    0.011221
    13  H    0.175175
    14  C    0.087080
    15  C    0.319811
    16  C   -0.330040
    17  H    0.168132
    18  N   -0.689022
    19  H    0.336105
    20  C   -0.153336
    21  H    0.138302
    22  C   -0.155819
    23  H    0.137730
    24  C   -0.132039
    25  H    0.143129
    26  N   -0.646443
    27  H    0.334923
    28  C   -0.044757
    29  H    0.163893
    30  C    0.640188
    31  C   -0.063296
    32  H    0.172929
    33  O   -0.579413
    34  C   -0.273867
    35  H    0.117892
    36  H    0.146577
    37  C   -0.469515
    38  H    0.140041
    39  H    0.164916
    40  H    0.146196
    41  C   -0.458391
    42  H    0.152375
    43  H    0.136587
    44  H    0.166305
    45  N   -0.594500
    46  H    0.370138
    47  C   -0.054236
    48  H    0.213457
    49  C    0.605482
    50  C   -0.279099
    51  H    0.153422
    52  H    0.198985
    53  O   -0.448578
    54  C   -0.273230
    55  H    0.165595
    56  H    0.155860
    57  C   -0.178344
    58  H    0.193102
    59  H    0.186083
    60  N   -0.596113
    61  H    0.359738
    62  N   -0.797520
    63  H    0.370323
    64  H    0.467186
    65  N   -0.769962
    66  H    0.380009
    67  H    0.381196
    68  C    0.820396
    69  O   -0.608747
    70  H    0.441122
 Sum of Mulliken charges =   1.00000

 Dipole moment (field-independent basis, Debye):
    X=              7.4589    Y=              8.7080    Z=            -10.7152  Tot=             15.6933
 Quadrupole moment (field-independent basis, Debye-Ang):
   XX=           -141.5542   YY=           -179.5155   ZZ=            -73.7969
   XY=             43.1793   XZ=            -65.2299   YZ=            -36.9845

 Normal termination of Gaussian 16 at Fri Jun  3 04:09:54 2022.
