 Gaussian 16, Revision C.01,
 Gaussian 16:  ES64L-G16RevC.01  3-Jul-2019

 ----------------------------------------------------------------------
 # B3LYP/6-31G* empiricaldispersion=gd3bj guess=read geom=check nosymm
 integral(ultrafinegrid)
 ----------------------------------------------------------------------

 ----------------------------------------------------
 Candidate Structure: Conf:1 Charge calc in gas phase
 ----------------------------------------------------
 Structure from the checkpoint file:  "conf-1.chk"
 Charge =  1 Multiplicity = 1

                          Input orientation:
 ---------------------------------------------------------------------
 Center     Atomic      Atomic             Coordinates (Angstroms)
 Number     Number       Type             X           Y           Z
 ---------------------------------------------------------------------
      1          7           0        9.152580   -1.188133   -6.686269
      2          1           0        8.455104   -1.834789   -7.099069
      3          1           0        9.083782   -0.280168   -7.180481
      4          1           0       10.098618   -1.562529   -6.887164
      5          6           0        8.927421   -1.060291   -5.152670
      6          1           0        9.197721   -2.043414   -4.761903
      7          6           0        7.462768   -0.901159   -4.817273
      8          6           0        9.825721    0.043464   -4.585405
      9          1           0        9.464787    1.022670   -4.927971
     10          1           0        9.669269    0.018212   -3.499399
     11          8           0        6.994970   -1.561974   -3.872413
     12          6           0       11.334285   -0.093345   -4.876116
     13          1           0       11.493719    0.019428   -5.961498
     14          6           0       12.090303    1.049252   -4.185822
     15          1           0       11.720908    2.028298   -4.509261
     16          1           0       11.977489    0.987380   -3.097319
     17          1           0       13.158750    1.000071   -4.415336
     18          6           0       11.885276   -1.457636   -4.441128
     19          1           0       11.731236   -1.610340   -3.365954
     20          1           0       12.960382   -1.515909   -4.633888
     21          1           0       11.417116   -2.302246   -4.964849
     22          7           0        6.677882    0.002909   -5.498635
     23          1           0        7.115686    0.756600   -6.021104
     24          6           0        5.324666    0.216530   -4.979454
     25          1           0        5.339124    0.447690   -3.910202
     26          1           0        4.869530    1.053637   -5.514934
     27          6           0        4.458127   -1.041962   -5.134470
     28          8           0        3.597381   -1.325995   -4.305318
     29          7           0        4.716923   -1.807133   -6.220450
     30          1           0        5.464912   -1.531073   -6.841067
     31          6           0        4.088350   -3.110309   -6.406696
     32          1           0        3.003131   -2.987325   -6.432256
     33          6           0        4.378779   -4.052840   -5.233069
     34          6           0        4.577361   -3.747100   -7.708724
     35          1           0        4.317474   -3.121496   -8.568525
     36          1           0        4.103569   -4.722891   -7.837869
     37          1           0        5.662143   -3.903237   -7.680596
     38          8           0        3.555943   -4.912725   -4.920577
     39          7           0        5.579844   -3.926326   -4.634844
     40          1           0        6.112669   -3.076297   -4.760177
     41          6           0        5.947073   -4.791611   -3.525348
     42          1           0        5.785663   -5.822601   -3.841270
     43          6           0        5.047936   -4.554445   -2.301169
     44          6           0        7.413646   -4.574900   -3.148424
     45          1           0        7.664488   -5.258258   -2.328108
     46          1           0        7.561757   -3.555028   -2.782839
     47          8           0        4.671596   -5.492313   -1.599470
     48          6           0        8.349990   -4.816182   -4.326381
     49          7           0        9.589520   -4.190903   -4.201928
     50          1           0       10.297043   -4.543422   -4.839204
     51          1           0        9.930790   -3.999217   -3.266302
     52          8           0        8.039772   -5.436773   -5.324864
     53          7           0        4.724493   -3.266287   -2.057413
     54          1           0        5.093807   -2.537685   -2.653187
     55          6           0        3.773699   -2.901344   -1.013537
     56          1           0        4.095689   -3.336664   -0.064005
     57          6           0        2.399321   -3.531862   -1.294392
     58          6           0        3.686110   -1.378162   -0.899423
     59          1           0        2.975296   -1.107422   -0.114540
     60          1           0        3.360532   -0.933542   -1.844416
     61          1           0        4.664637   -0.964491   -0.632100
     62          8           0        1.759896   -4.064323   -0.385598
     63          7           0        1.960224   -3.464241   -2.567702
     64          1           0        2.528086   -3.000330   -3.267890
     65          6           0        0.700819   -4.085004   -2.962312
     66          1           0       -0.098321   -3.699355   -2.320941
     67          6           0        0.727235   -5.591818   -2.681636
     68          6           0        0.374198   -3.763519   -4.438077
     69          1           0        1.259712   -4.037458   -5.027608
     70          8           0       -0.269816   -6.140031   -2.188813
     71          6           0        0.118172   -2.251534   -4.598976
     72          1           0        0.886791   -1.685073   -4.061517
     73          1           0       -0.838752   -2.007284   -4.118538
     74          6           0       -0.811621   -4.600098   -4.934605
     75          1           0       -1.710070   -4.400816   -4.340065
     76          1           0       -0.610819   -5.673540   -4.880635
     77          1           0       -1.037092   -4.363418   -5.977799
     78          6           0        0.099165   -1.780190   -6.054754
     79          1           0        1.045451   -2.020285   -6.557408
     80          1           0       -0.038031   -0.695289   -6.110244
     81          1           0       -0.707710   -2.243814   -6.630073
     82          7           0        1.841668   -6.264015   -3.004771
     83          1           0        2.607350   -5.776014   -3.459743
     84          6           0        1.981044   -7.685028   -2.702448
     85          1           0        1.137918   -8.225345   -3.140789
     86          6           0        1.876011   -7.950139   -1.193331
     87          6           0        3.310605   -8.223027   -3.250338
     88          1           0        3.437442   -9.241377   -2.862401
     89          1           0        4.121370   -7.618996   -2.825604
     90          8           0        1.265099   -8.937334   -0.774903
     91          6           0        3.412533   -8.252267   -4.786916
     92          1           0        3.152920   -7.259730   -5.173112
     93          6           0        4.858322   -8.550676   -5.205566
     94          1           0        5.184410   -9.526263   -4.824253
     95          1           0        4.954039   -8.573063   -6.296660
     96          1           0        5.559185   -7.793237   -4.830373
     97          6           0        2.448025   -9.274223   -5.400675
     98          1           0        2.510027   -9.259956   -6.494294
     99          1           0        2.690638  -10.290334   -5.065855
    100          1           0        1.405535   -9.074582   -5.130881
    101          7           0        2.484792   -7.072103   -0.372345
    102          1           0        3.037482   -6.310932   -0.752052
    103          6           0        2.366988   -7.221222    1.065784
    104          1           0        2.955596   -6.425694    1.530604
    105          1           0        2.749247   -8.189923    1.396370
    106          6           0        0.913128   -7.139068    1.553026
    107          8           0        0.477839   -7.946530    2.377614
    108          7           0        0.168794   -6.148581    1.024196
    109          1           0        0.590287   -5.499139    0.365576
    110          6           0       -1.246342   -6.019903    1.353434
    111          1           0       -1.359389   -5.959549    2.440944
    112          6           0       -2.019715   -7.277927    0.930959
    113          6           0       -1.825337   -4.746816    0.697260
    114          1           0       -1.573665   -4.799141   -0.370975
    115          8           0       -2.908680   -7.755209    1.642867
    116          6           0       -3.351425   -4.693722    0.833502
    117          1           0       -3.653320   -4.727980    1.886459
    118          1           0       -3.731667   -3.761547    0.402963
    119          1           0       -3.841285   -5.526676    0.322612
    120          6           0       -1.181859   -3.490472    1.299637
    121          1           0       -0.091757   -3.500512    1.215068
    122          1           0       -1.445579   -3.396876    2.360131
    123          1           0       -1.549641   -2.595305    0.785842
    124          7           0       -1.672175   -7.791442   -0.262238
    125          1           0       -0.938193   -7.336121   -0.792554
    126          6           0       -2.292788   -8.993089   -0.792767
    127          1           0       -3.373395   -8.845912   -0.871278
    128          6           0       -2.092218  -10.174959    0.157212
    129          6           0       -1.715369   -9.314811   -2.186262
    130          1           0       -2.208836  -10.218818   -2.553307
    131          1           0       -0.643029   -9.526511   -2.079443
    132          8           0       -3.010990  -10.966237    0.387313
    133          8           0       -1.962968   -8.294083   -3.130653
    134          1           0       -1.409174   -7.527164   -2.898625
    135          7           0       -0.866620  -10.319776    0.697514
    136          1           0       -0.118442   -9.683098    0.434959
    137          6           0       -0.572682  -11.432855    1.584892
    138          1           0       -1.110947  -12.306226    1.207245
    139          6           0       -1.143785  -11.217046    2.990383
    140          6           0        0.941582  -11.694682    1.591094
    141          1           0        1.448796  -10.801273    1.979579
    142          1           0        1.248643  -11.795113    0.541945
    143          8           0       -1.397702  -12.199255    3.714701
    144          6           0        1.402513  -12.935571    2.372208
    145          1           0        1.166361  -12.778875    3.431699
    146          6           0        0.687561  -14.215707    1.921737
    147          1           0        1.093326  -15.089344    2.447293
    148          1           0        0.825522  -14.385473    0.846435
    149          1           0       -0.384881  -14.172041    2.131050
    150          6           0        2.924090  -13.077431    2.242166
    151          1           0        3.442988  -12.176187    2.590238
    152          1           0        3.292141  -13.927778    2.826723
    153          1           0        3.209594  -13.244136    1.195762
    154          7           0       -1.342653   -9.953335    3.382365
    155          1           0       -1.019523   -9.189463    2.796325
    156          6           0       -2.074528   -9.644359    4.603561
    157          1           0       -1.635475  -10.191703    5.435804
    158          6           0       -3.536214  -10.132235    4.517841
    159          6           0       -2.008627   -8.143014    4.891699
    160          1           0       -2.465535   -7.571500    4.079886
    161          1           0       -2.541403   -7.926848    5.822060
    162          1           0       -0.966626   -7.822412    4.996049
    163          8           0       -4.036148  -10.752408    5.455889
    164          7           0       -4.190162   -9.772160    3.389783
    165          1           0       -3.704921   -9.198012    2.704860
    166          6           0       -5.630297   -9.928608    3.226271
    167          1           0       -6.092541   -9.848113    4.212997
    168          6           0       -6.103974  -11.284713    2.678498
    169          6           0       -6.146701   -8.821530    2.299922
    170          1           0       -5.668449   -8.896926    1.317218
    171          1           0       -7.226355   -8.928210    2.172601
    172          1           0       -5.927450   -7.833537    2.717252
    173          8           0       -7.253524  -11.649169    2.923156
    174          7           0       -5.247888  -11.970748    1.889973
    175          1           0       -4.298174  -11.645036    1.755372
    176          6           0       -5.625101  -13.257663    1.302473
    177          1           0       -6.696332  -13.210917    1.091891
    178          6           0       -5.322369  -14.316462    2.370838
    179          6           0       -4.842390  -13.519553    0.014046
    180          1           0       -3.780687  -13.638000    0.264044
    181          1           0       -5.186358  -14.467583   -0.410668
    182          8           0       -4.223827  -14.876761    2.416583
    183          8           0       -5.053018  -12.516408   -0.962010
    184          1           0       -4.533539  -11.749664   -0.664856
    185          7           0       -6.291569  -14.490030    3.295406
    186          1           0       -7.128908  -13.912484    3.288336
    187          6           0       -5.946456  -15.045847    4.590381
    188          1           0       -5.433518  -16.001274    4.440789
    189          6           0       -7.240674  -15.274791    5.391388
    190          6           0       -4.999870  -14.064554    5.317079
    191          1           0       -4.216504  -13.796908    4.599488
    192          1           0       -5.548454  -13.144117    5.548029
    193          8           0       -7.136098  -15.882194    6.490696
    194          6           0       -4.385254  -14.657510    6.578461
    195          1           0       -3.725222  -15.494511    6.316476
    196          1           0       -5.187070  -15.060679    7.205675
    197          6           0       -3.587929  -13.650584    7.399371
    198          1           0       -3.169567  -14.171597    8.268126
    199          1           0       -4.216858  -12.824620    7.751155
    200          7           0       -2.476756  -13.093010    6.608997
    201          1           0       -2.692578  -12.812557    5.651793
    202          7           0       -1.027989  -12.763663    8.409232
    203          1           0       -0.072985  -12.687869    8.722519
    204          1           0       -1.680682  -13.197081    9.042429
    205          7           0       -0.398461  -12.168270    6.257465
    206          1           0       -0.590037  -12.159599    5.247336
    207          1           0        0.527641  -11.945333    6.584595
    208          6           0       -1.315211  -12.687439    7.088760
    209          8           0       -8.311817  -14.811790    4.934247
 ---------------------------------------------------------------------

 SCF Done:  E(RB3LYP) =  -4860.82392797     A.U. after    1 cycles

 Alpha  occ. eigenvalues --  -19.28055 -19.25913 -19.24909 -19.24053 -19.22948
 Alpha  occ. eigenvalues --  -19.21200 -19.20465 -19.18945 -19.18057 -19.17520
 Alpha  occ. eigenvalues --  -19.17009 -19.16958 -19.16504 -19.13898 -19.12527
 Alpha  occ. eigenvalues --  -19.10665 -19.09913 -19.07930 -19.07455 -14.63537
 Alpha  occ. eigenvalues --  -14.52945 -14.50284 -14.49083 -14.47882 -14.46889
 Alpha  occ. eigenvalues --  -14.45072 -14.44845 -14.43885 -14.42842 -14.42802
 Alpha  occ. eigenvalues --  -14.42694 -14.41556 -14.40544 -14.40109 -14.39996
 Alpha  occ. eigenvalues --  -14.37484 -14.35383 -14.33038 -10.44686 -10.43130
 Alpha  occ. eigenvalues --  -10.42198 -10.41833 -10.40817 -10.39940 -10.39780
 Alpha  occ. eigenvalues --  -10.37969 -10.37656 -10.37067 -10.36025 -10.35692
 Alpha  occ. eigenvalues --  -10.35475 -10.35028 -10.35009 -10.34353 -10.33659
 Alpha  occ. eigenvalues --  -10.33437 -10.33266 -10.33212 -10.32279 -10.31751
 Alpha  occ. eigenvalues --  -10.31329 -10.30881 -10.30875 -10.30354 -10.30222
 Alpha  occ. eigenvalues --  -10.29504 -10.28268 -10.28169 -10.27993 -10.27462
 Alpha  occ. eigenvalues --  -10.27219 -10.27186 -10.27146 -10.26753 -10.26685
 Alpha  occ. eigenvalues --  -10.26593 -10.25859 -10.25571 -10.25323 -10.25318
 Alpha  occ. eigenvalues --  -10.24854 -10.24383 -10.24280 -10.23978 -10.23931
 Alpha  occ. eigenvalues --  -10.23098 -10.23065 -10.22910 -10.22524 -10.21987
 Alpha  occ. eigenvalues --  -10.21880 -10.21864 -10.21557 -10.21456 -10.19918
 Alpha  occ. eigenvalues --  -10.19825 -10.19486 -10.19251 -10.17645  -1.20015
 Alpha  occ. eigenvalues --   -1.17857  -1.17062  -1.16773  -1.16075  -1.14753
 Alpha  occ. eigenvalues --   -1.13134  -1.12093  -1.10856  -1.09811  -1.09061
 Alpha  occ. eigenvalues --   -1.08796  -1.08524  -1.08383  -1.07886  -1.06787
 Alpha  occ. eigenvalues --   -1.05471  -1.05216  -1.05120  -1.03567  -1.03430
 Alpha  occ. eigenvalues --   -1.02915  -1.01895  -1.01543  -1.00662  -1.00299
 Alpha  occ. eigenvalues --   -1.00107  -0.99502  -0.98542  -0.98025  -0.97765
 Alpha  occ. eigenvalues --   -0.97445  -0.97049  -0.96754  -0.95938  -0.94154
 Alpha  occ. eigenvalues --   -0.92497  -0.91525  -0.91519  -0.91268  -0.89878
 Alpha  occ. eigenvalues --   -0.89619  -0.89384  -0.87899  -0.86970  -0.86552
 Alpha  occ. eigenvalues --   -0.86047  -0.85298  -0.83416  -0.82788  -0.82050
 Alpha  occ. eigenvalues --   -0.81560  -0.81482  -0.81320  -0.80908  -0.80795
 Alpha  occ. eigenvalues --   -0.79383  -0.78178  -0.77946  -0.77614  -0.77507
 Alpha  occ. eigenvalues --   -0.76515  -0.75575  -0.75269  -0.75184  -0.75162
 Alpha  occ. eigenvalues --   -0.74593  -0.74421  -0.73745  -0.73240  -0.73067
 Alpha  occ. eigenvalues --   -0.72502  -0.72068  -0.71674  -0.71616  -0.71275
 Alpha  occ. eigenvalues --   -0.71015  -0.70752  -0.70360  -0.70062  -0.69242
 Alpha  occ. eigenvalues --   -0.68989  -0.68327  -0.67985  -0.67663  -0.67325
 Alpha  occ. eigenvalues --   -0.67005  -0.66608  -0.66040  -0.65888  -0.65808
 Alpha  occ. eigenvalues --   -0.65699  -0.65535  -0.65134  -0.64440  -0.64005
 Alpha  occ. eigenvalues --   -0.63713  -0.63566  -0.63244  -0.62986  -0.62710
 Alpha  occ. eigenvalues --   -0.62418  -0.62206  -0.61892  -0.61453  -0.61350
 Alpha  occ. eigenvalues --   -0.60822  -0.60738  -0.60126  -0.59887  -0.59706
 Alpha  occ. eigenvalues --   -0.59486  -0.59390  -0.58847  -0.58807  -0.58676
 Alpha  occ. eigenvalues --   -0.58459  -0.58000  -0.57859  -0.57770  -0.57433
 Alpha  occ. eigenvalues --   -0.57236  -0.56827  -0.56545  -0.56187  -0.55962
 Alpha  occ. eigenvalues --   -0.55772  -0.55611  -0.55417  -0.55279  -0.55085
 Alpha  occ. eigenvalues --   -0.54850  -0.54585  -0.54286  -0.53971  -0.53888
 Alpha  occ. eigenvalues --   -0.53775  -0.53724  -0.53481  -0.53262  -0.53212
 Alpha  occ. eigenvalues --   -0.53012  -0.52723  -0.52597  -0.52252  -0.52100
 Alpha  occ. eigenvalues --   -0.51927  -0.51749  -0.51459  -0.51323  -0.51214
 Alpha  occ. eigenvalues --   -0.51080  -0.50942  -0.50874  -0.50752  -0.50613
 Alpha  occ. eigenvalues --   -0.50482  -0.50327  -0.50065  -0.49841  -0.49762
 Alpha  occ. eigenvalues --   -0.49509  -0.49475  -0.49281  -0.49063  -0.48986
 Alpha  occ. eigenvalues --   -0.48787  -0.48598  -0.48399  -0.48236  -0.48101
 Alpha  occ. eigenvalues --   -0.47945  -0.47817  -0.47774  -0.47713  -0.47419
 Alpha  occ. eigenvalues --   -0.47318  -0.47252  -0.47243  -0.47138  -0.46814
 Alpha  occ. eigenvalues --   -0.46721  -0.46414  -0.46243  -0.46016  -0.45904
 Alpha  occ. eigenvalues --   -0.45855  -0.45769  -0.45453  -0.45292  -0.45223
 Alpha  occ. eigenvalues --   -0.45187  -0.45073  -0.44774  -0.44672  -0.44538
 Alpha  occ. eigenvalues --   -0.44366  -0.44281  -0.44117  -0.43812  -0.43656
 Alpha  occ. eigenvalues --   -0.43526  -0.43480  -0.43297  -0.43041  -0.42765
 Alpha  occ. eigenvalues --   -0.42642  -0.42358  -0.42205  -0.42198  -0.41974
 Alpha  occ. eigenvalues --   -0.41740  -0.41630  -0.41452  -0.41318  -0.41237
 Alpha  occ. eigenvalues --   -0.41181  -0.40958  -0.40909  -0.40557  -0.40525
 Alpha  occ. eigenvalues --   -0.40332  -0.40110  -0.39875  -0.39833  -0.39346
 Alpha  occ. eigenvalues --   -0.39338  -0.39273  -0.39237  -0.39106  -0.39009
 Alpha  occ. eigenvalues --   -0.38861  -0.38711  -0.38520  -0.38449  -0.38271
 Alpha  occ. eigenvalues --   -0.38187  -0.37950  -0.37879  -0.37398  -0.37197
 Alpha  occ. eigenvalues --   -0.36929  -0.36879  -0.36762  -0.36460  -0.36376
 Alpha  occ. eigenvalues --   -0.36187  -0.36050  -0.35959  -0.35441  -0.35381
 Alpha  occ. eigenvalues --   -0.35256  -0.34911  -0.34557  -0.34386  -0.34058
 Alpha  occ. eigenvalues --   -0.33941  -0.33296  -0.33151  -0.32849  -0.32497
 Alpha  occ. eigenvalues --   -0.32343  -0.31980  -0.31914  -0.31497  -0.31123
 Alpha  occ. eigenvalues --   -0.31070  -0.30247  -0.29690  -0.29246  -0.28744
 Alpha  occ. eigenvalues --   -0.28522  -0.27002  -0.26433  -0.25662  -0.24282
 Alpha  occ. eigenvalues --   -0.23524  -0.22366  -0.21916  -0.21044  -0.19049
 Alpha virt. eigenvalues --   -0.18603  -0.15170  -0.12709  -0.11414  -0.10818
 Alpha virt. eigenvalues --   -0.10290  -0.10052  -0.08991  -0.07616  -0.07053
 Alpha virt. eigenvalues --   -0.06500  -0.05731  -0.05159  -0.04327  -0.04185

 Mulliken charges:
               1
     1  N   -0.679436
     2  H    0.350627
     3  H    0.357857
     4  H    0.381157
     5  C   -0.166855
     6  H    0.262338
     7  C    0.573607
     8  C   -0.277078
     9  H    0.148907
    10  H    0.195801
    11  O   -0.535423
    12  C   -0.097175
    13  H    0.110971
    14  C   -0.448189
    15  H    0.160832
    16  H    0.165996
    17  H    0.178046
    18  C   -0.460570
    19  H    0.163565
    20  H    0.188170
    21  H    0.118318
    22  N   -0.623627
    23  H    0.325955
    24  C   -0.227615
    25  H    0.216474
    26  H    0.206740
    27  C    0.611322
    28  O   -0.514704
    29  N   -0.599461
    30  H    0.323690
    31  C   -0.039915
    32  H    0.218187
    33  C    0.639141
    34  C   -0.490006
    35  H    0.177635
    36  H    0.213228
    37  H    0.149440
    38  O   -0.537819
    39  N   -0.628865
    40  H    0.368893
    41  C   -0.049598
    42  H    0.229378
    43  C    0.630234
    44  C   -0.434969
    45  H    0.215528
    46  H    0.195124
    47  O   -0.540328
    48  C    0.577672
    49  N   -0.774693
    50  H    0.348070
    51  H    0.350993
    52  O   -0.462958
    53  N   -0.627953
    54  H    0.366299
    55  C   -0.023964
    56  H    0.186259
    57  C    0.623264
    58  C   -0.506437
    59  H    0.191794
    60  H    0.184892
    61  H    0.159784
    62  O   -0.546311
    63  N   -0.647629
    64  H    0.387033
    65  C   -0.014325
    66  H    0.186187
    67  C    0.636947
    68  C   -0.142431
    69  H    0.149500
    70  O   -0.585051
    71  C   -0.262240
    72  H    0.144299
    73  H    0.149066
    74  C   -0.467662
    75  H    0.167246
    76  H    0.171219
    77  H    0.157300
    78  C   -0.460023
    79  H    0.129066
    80  H    0.153282
    81  H    0.166327
    82  N   -0.649561
    83  H    0.414166
    84  C   -0.038362
    85  H    0.191488
    86  C    0.617824
    87  C   -0.324386
    88  H    0.163796
    89  H    0.159329
    90  O   -0.555568
    91  C   -0.086284
    92  H    0.147339
    93  C   -0.458101
    94  H    0.150272
    95  H    0.145334
    96  H    0.139542
    97  C   -0.454025
    98  H    0.147134
    99  H    0.150993
   100  H    0.160187
   101  N   -0.617897
   102  H    0.405475
   103  C   -0.223552
   104  H    0.176737
   105  H    0.192839
   106  C    0.609662
   107  O   -0.554133
   108  N   -0.653358
   109  H    0.414547
   110  C   -0.009328
   111  H    0.171388
   112  C    0.633780
   113  C   -0.136483
   114  H    0.155117
   115  O   -0.570678
   116  C   -0.453921
   117  H    0.156735
   118  H    0.145186
   119  H    0.172147
   120  C   -0.460143
   121  H    0.161959
   122  H    0.147326
   123  H    0.142349
   124  N   -0.658440
   125  H    0.409807
   126  C   -0.032987
   127  H    0.190711
   128  C    0.621090
   129  C   -0.101802
   130  H    0.176909
   131  H    0.156439
   132  O   -0.559988
   133  O   -0.652888
   134  H    0.431021
   135  N   -0.663923
   136  H    0.415679
   137  C   -0.035218
   138  H    0.209955
   139  C    0.634018
   140  C   -0.301288
   141  H    0.146016
   142  H    0.156077
   143  O   -0.588958
   144  C   -0.067643
   145  H    0.113684
   146  C   -0.460962
   147  H    0.141699
   148  H    0.138216
   149  H    0.193263
   150  C   -0.441722
   151  H    0.128403
   152  H    0.144866
   153  H    0.142423
   154  N   -0.629446
   155  H    0.423677
   156  C   -0.049137
   157  H    0.160852
   158  C    0.617577
   159  C   -0.501920
   160  H    0.186893
   161  H    0.167948
   162  H    0.158838
   163  O   -0.550517
   164  N   -0.654224
   165  H    0.411948
   166  C   -0.032765
   167  H    0.185637
   168  C    0.628463
   169  C   -0.475666
   170  H    0.158273
   171  H    0.184418
   172  H    0.151393
   173  O   -0.536937
   174  N   -0.635366
   175  H    0.379833
   176  C   -0.068818
   177  H    0.178004
   178  C    0.626323
   179  C   -0.054108
   180  H    0.141232
   181  H    0.149290
   182  O   -0.557549
   183  O   -0.651546
   184  H    0.411992
   185  N   -0.596427
   186  H    0.373952
   187  C   -0.055901
   188  H    0.162563
   189  C    0.593486
   190  C   -0.306117
   191  H    0.157667
   192  H    0.169491
   193  O   -0.512683
   194  C   -0.290442
   195  H    0.141781
   196  H    0.207555
   197  C   -0.161352
   198  H    0.135737
   199  H    0.198375
   200  N   -0.597208
   201  H    0.416382
   202  N   -0.768945
   203  H    0.356921
   204  H    0.376695
   205  N   -0.818548
   206  H    0.443196
   207  H    0.342141
   208  C    0.809861
   209  O   -0.504443
 Sum of Mulliken charges =   1.00000

 Dipole moment (field-independent basis, Debye):
    X=             72.1829    Y=             15.6315    Z=            -29.4171  Tot=             79.4990
 Quadrupole moment (field-independent basis, Debye-Ang):
   XX=           -326.4395   YY=           -947.8540   ZZ=           -319.3914
   XY=           -401.9078   XZ=           -171.1928   YZ=             15.1038

 Normal termination of Gaussian 16 at Thu Aug 11 11:46:18 2022.
