 Gaussian 16, Revision C.01,
 Gaussian 16:  ES64L-G16RevC.01  3-Jul-2019

 ----------------------------------------------------------------------
 # B3LYP/6-31G* empiricaldispersion=gd3 guess=read geom=check nosymm in
 tegral(ultrafinegrid)
 ----------------------------------------------------------------------

 ------------------------------------------------------
 Candidate Structure: Conf:950 Charge calc in gas phase
 ------------------------------------------------------
 Structure from the checkpoint file:  "conf-950.chk"
 Charge =  1 Multiplicity = 1

                          Input orientation:
 ---------------------------------------------------------------------
 Center     Atomic      Atomic             Coordinates (Angstroms)
 Number     Number       Type             X           Y           Z
 ---------------------------------------------------------------------
      1          7           0       -7.332398    5.244151   -1.221267
      2          1           0       -8.187165    5.720499   -0.909490
      3          1           0       -7.310762    5.184506   -2.246031
      4          1           0       -6.395401    5.722852   -0.801322
      5          6           0       -7.130739    3.854139   -0.579534
      6          1           0       -8.031437    3.570798   -0.029917
      7          6           0       -5.917456    4.160443    0.342899
      8          6           0       -6.778693    2.812664   -1.679939
      9          1           0       -5.793317    3.077962   -2.088912
     10          8           0       -5.361939    5.293289    0.174009
     11          6           0       -6.592045    1.408695   -1.062380
     12          1           0       -7.435518    1.130611   -0.416489
     13          1           0       -6.535756    0.676616   -1.874763
     14          1           0       -5.653412    1.355981   -0.515552
     15          6           0       -7.896777    2.761876   -2.746377
     16          1           0       -8.853232    2.473315   -2.292365
     17          1           0       -8.042282    3.706569   -3.288330
     18          1           0       -7.635888    2.010542   -3.497724
     19          7           0       -5.478379    3.257818    1.208098
     20          1           0       -5.903628    2.324889    1.308436
     21          6           0       -4.015915    3.171017    1.407298
     22          1           0       -3.620607    3.384228    0.394802
     23          6           0       -3.735871    1.687571    1.623699
     24          6           0       -3.418275    4.131947    2.422507
     25          1           0       -3.689983    3.869764    3.452991
     26          1           0       -3.777678    5.136695    2.178272
     27          8           0       -4.670885    0.843344    1.575178
     28          8           0       -1.967885    4.000652    2.182466
     29          1           0       -1.474974    4.646921    2.750360
     30          7           0       -2.433920    1.374953    1.726311
     31          1           0       -1.746936    2.138224    1.738530
     32          6           0       -1.958899    0.006364    1.542145
     33          1           0       -2.301095   -0.643107    2.356261
     34          6           0       -0.439127    0.067989    1.497103
     35          6           0       -2.429289   -0.565466    0.169937
     36          1           0       -2.042964   -1.578538    0.017406
     37          1           0       -2.086169    0.092680   -0.632533
     38          1           0       -3.519201   -0.586191    0.172896
     39          8           0        0.204600    1.126028    1.322897
     40          7           0        0.191102   -1.145166    1.540493
     41          1           0       -0.340045   -2.007604    1.605667
     42          6           0        1.638253   -1.219662    1.267759
     43          1           0        2.056826   -0.265162    1.593439
     44          6           0        1.834498   -1.327721   -0.254442
     45          6           0        2.280600   -2.393247    2.008285
     46          1           0        1.876502   -3.328946    1.596029
     47          1           0        3.360995   -2.371446    1.807521
     48          8           0        2.277520   -2.381816   -0.819751
     49          6           0        2.062120   -2.367394    3.537554
     50          1           0        0.984348   -2.427390    3.731987
     51          6           0        2.753344   -3.595438    4.168621
     52          1           0        3.837165   -3.544894    4.001332
     53          1           0        2.579189   -3.623145    5.248920
     54          1           0        2.372479   -4.530332    3.737994
     55          6           0        2.602165   -1.063293    4.161743
     56          1           0        3.664503   -0.937394    3.917913
     57          1           0        2.503510   -1.096979    5.251746
     58          1           0        2.051861   -0.188098    3.800899
     59          7           0        1.457843   -0.266807   -0.961943
     60          1           0        1.046098    0.548762   -0.494250
     61          6           0        1.615623   -0.228611   -2.420081
     62          1           0        0.937232   -0.951376   -2.883737
     63          6           0        3.067884   -0.578039   -2.757104
     64          6           0        1.293597    1.207617   -2.935485
     65          1           0        1.404113    1.193470   -4.026876
     66          1           0        2.063424    1.875559   -2.530647
     67          8           0        4.012966   -0.382231   -1.968211
     68          6           0       -0.082844    1.670588   -2.522608
     69          6           0       -1.239663    1.222945   -3.186562
     70          1           0       -1.138183    0.544935   -4.031966
     71          6           0       -0.255239    2.548260   -1.438694
     72          1           0        0.618598    2.914801   -0.904754
     73          6           0       -2.502685    1.642838   -2.797721
     74          1           0       -3.385838    1.294932   -3.321857
     75          6           0       -1.512082    2.974888   -1.041712
     76          1           0       -1.595135    3.645786   -0.195375
     77          8           0       -3.901994    2.943009   -1.325737
     78          6           0       -2.708848    2.550397   -1.706190
     79          7           0        3.232018   -1.107499   -4.001250
     80          1           0        2.481676   -1.103949   -4.688185
     81          6           0        4.558330   -1.469530   -4.487645
     82          1           0        5.294449   -0.954291   -3.866287
     83          6           0        4.672850   -1.002058   -5.925570
     84          6           0        4.805209   -3.007693   -4.453931
     85          1           0        4.161625   -3.472343   -5.211425
     86          1           0        5.845871   -3.181840   -4.743687
     87          8           0        3.761543   -0.549430   -6.607125
     88          6           0        4.494969   -3.652945   -3.087718
     89          1           0        4.629490   -4.739836   -3.195327
     90          1           0        3.446488   -3.446788   -2.840959
     91          6           0        5.381051   -3.116184   -1.937659
     92          1           0        6.432164   -3.095413   -2.251680
     93          1           0        5.068320   -2.094667   -1.705579
     94          6           0        5.311275   -3.988487   -0.674432
     95          1           0        5.726083   -3.464553    0.189672
     96          1           0        5.828475   -4.942724   -0.807165
     97          7           0        3.846993   -4.322516   -0.318756
     98          1           0        3.773428   -4.696913    0.636918
     99          1           0        3.184556   -3.425330   -0.425496
    100          1           0        3.482309   -5.024856   -0.979043
    101          8           0        5.948936   -1.222661   -6.376854
    102          1           0        6.019933   -0.948833   -7.333357
 ---------------------------------------------------------------------

 SCF Done:  E(RB3LYP) =  -2312.18485232     A.U. after   13 cycles

 Alpha  occ. eigenvalues --  -19.27782 -19.23830 -19.22641 -19.22367 -19.22320
 Alpha  occ. eigenvalues --  -19.20959 -19.19529 -19.17790 -19.09721 -14.54411
 Alpha  occ. eigenvalues --  -14.52446 -14.46082 -14.45667 -14.44549 -14.43898
 Alpha  occ. eigenvalues --  -14.41423 -10.40625 -10.39689 -10.38600 -10.38037
 Alpha  occ. eigenvalues --  -10.37032 -10.35827 -10.34949 -10.34730 -10.33366
 Alpha  occ. eigenvalues --  -10.32356 -10.31303 -10.31036 -10.30231 -10.29267
 Alpha  occ. eigenvalues --  -10.28546 -10.28398 -10.28255 -10.28200 -10.27706
 Alpha  occ. eigenvalues --  -10.26976 -10.26202 -10.25914 -10.25476 -10.25393
 Alpha  occ. eigenvalues --  -10.24588 -10.23845 -10.23071 -10.21298 -10.21049
 Alpha  occ. eigenvalues --  -10.20958 -10.19251 -10.18607  -1.17399  -1.14275
 Alpha  occ. eigenvalues --   -1.13580  -1.12111  -1.10737  -1.09263  -1.08845
 Alpha  occ. eigenvalues --   -1.08444  -1.07299  -1.05858  -1.02506  -1.01383
 Alpha  occ. eigenvalues --   -1.00778  -1.00483  -0.98218  -0.97330  -0.90652
 Alpha  occ. eigenvalues --   -0.90401  -0.88483  -0.87935  -0.86319  -0.85809
 Alpha  occ. eigenvalues --   -0.84223  -0.82946  -0.81500  -0.80856  -0.79136
 Alpha  occ. eigenvalues --   -0.76678  -0.76456  -0.75980  -0.75221  -0.74994
 Alpha  occ. eigenvalues --   -0.73937  -0.72873  -0.71728  -0.70500  -0.69409
 Alpha  occ. eigenvalues --   -0.69075  -0.68918  -0.68191  -0.68101  -0.67652
 Alpha  occ. eigenvalues --   -0.67033  -0.66892  -0.65872  -0.65707  -0.65021
 Alpha  occ. eigenvalues --   -0.63444  -0.62994  -0.62373  -0.62166  -0.61049
 Alpha  occ. eigenvalues --   -0.60487  -0.59507  -0.58975  -0.58651  -0.57889
 Alpha  occ. eigenvalues --   -0.57845  -0.57383  -0.57063  -0.56696  -0.56628
 Alpha  occ. eigenvalues --   -0.55669  -0.55585  -0.55065  -0.55018  -0.53424
 Alpha  occ. eigenvalues --   -0.53042  -0.52341  -0.52198  -0.52078  -0.51836
 Alpha  occ. eigenvalues --   -0.51452  -0.51382  -0.51032  -0.50888  -0.50645
 Alpha  occ. eigenvalues --   -0.50175  -0.49855  -0.49550  -0.49177  -0.49071
 Alpha  occ. eigenvalues --   -0.48817  -0.48469  -0.48456  -0.48131  -0.47334
 Alpha  occ. eigenvalues --   -0.47125  -0.47040  -0.46839  -0.46687  -0.46401
 Alpha  occ. eigenvalues --   -0.46349  -0.46098  -0.45532  -0.45491  -0.44868
 Alpha  occ. eigenvalues --   -0.44755  -0.44549  -0.43811  -0.43739  -0.43594
 Alpha  occ. eigenvalues --   -0.43271  -0.43258  -0.42609  -0.42308  -0.41824
 Alpha  occ. eigenvalues --   -0.41728  -0.41604  -0.41427  -0.41334  -0.41138
 Alpha  occ. eigenvalues --   -0.40530  -0.40077  -0.39785  -0.39698  -0.38684
 Alpha  occ. eigenvalues --   -0.38358  -0.37262  -0.36694  -0.36481  -0.35980
 Alpha  occ. eigenvalues --   -0.35929  -0.34869  -0.34399  -0.34307  -0.34221
 Alpha  occ. eigenvalues --   -0.33697  -0.33337  -0.31952  -0.31681  -0.31173
 Alpha  occ. eigenvalues --   -0.26844  -0.23774  -0.20259
 Alpha virt. eigenvalues --   -0.10014  -0.08373  -0.08030  -0.07639  -0.06735
 Alpha virt. eigenvalues --   -0.06159  -0.05548  -0.03947  -0.03156  -0.02050
 Alpha virt. eigenvalues --   -0.01739  -0.01222  -0.00847  -0.00703  -0.00552

 Mulliken charges:
               1
     1  N   -0.785400
     2  H    0.390772
     3  H    0.399786
     4  H    0.445559
     5  C   -0.093777
     6  H    0.188183
     7  C    0.672797
     8  C   -0.105939
     9  H    0.222193
    10  O   -0.567817
    11  C   -0.484733
    12  H    0.126606
    13  H    0.156308
    14  H    0.220846
    15  C   -0.465878
    16  H    0.153392
    17  H    0.121614
    18  H    0.183732
    19  N   -0.617886
    20  H    0.376660
    21  C   -0.096057
    22  H    0.289683
    23  C    0.622495
    24  C   -0.042858
    25  H    0.142385
    26  H    0.176787
    27  O   -0.578893
    28  O   -0.629644
    29  H    0.408740
    30  N   -0.634741
    31  H    0.411786
    32  C   -0.010578
    33  H    0.168569
    34  C    0.620080
    35  C   -0.484975
    36  H    0.117096
    37  H    0.214485
    38  H    0.211898
    39  O   -0.538438
    40  N   -0.608092
    41  H    0.340703
    42  C   -0.076106
    43  H    0.220809
    44  C    0.688185
    45  C   -0.298348
    46  H    0.119743
    47  H    0.135690
    48  O   -0.638289
    49  C   -0.070901
    50  H    0.136805
    51  C   -0.448325
    52  H    0.138331
    53  H    0.170370
    54  H    0.131871
    55  C   -0.459842
    56  H    0.146099
    57  H    0.163247
    58  H    0.168093
    59  N   -0.608077
    60  H    0.409693
    61  C   -0.031049
    62  H    0.169843
    63  C    0.654459
    64  C   -0.400576
    65  H    0.161825
    66  H    0.170009
    67  O   -0.553027
    68  C    0.135648
    69  C   -0.187141
    70  H    0.092334
    71  C   -0.199772
    72  H    0.110237
    73  C   -0.208748
    74  H    0.092893
    75  C   -0.245405
    76  H    0.135570
    77  O   -0.711678
    78  C    0.420049
    79  N   -0.609080
    80  H    0.353327
    81  C   -0.052116
    82  H    0.216252
    83  C    0.595803
    84  C   -0.270264
    85  H    0.154316
    86  H    0.178305
    87  O   -0.458310
    88  C   -0.305369
    89  H    0.134052
    90  H    0.166019
    91  C   -0.311193
    92  H    0.167000
    93  H    0.238747
    94  C   -0.185969
    95  H    0.200592
    96  H    0.192435
    97  N   -0.792243
    98  H    0.389469
    99  H    0.482876
   100  H    0.391676
   101  O   -0.575775
   102  H    0.427478
 Sum of Mulliken charges =   1.00000

 Dipole moment (field-independent basis, Debye):
    X=             -1.1391    Y=             -6.1993    Z=             -1.1536  Tot=              6.4077
 Quadrupole moment (field-independent basis, Debye-Ang):
   XX=            -87.3409   YY=           -168.4676   ZZ=           -237.7132
   XY=           -139.5223   XZ=             -7.2959   YZ=              9.7212

 Normal termination of Gaussian 16 at Sun Jul 10 14:53:31 2022.
