 Gaussian 16, Revision C.01,
 Gaussian 16:  ES64L-G16RevC.01  3-Jul-2019

 ----------------------------------------------------------------------
 # B3LYP/6-31G* empiricaldispersion=gd3bj guess=read geom=check nosymm
 integral(ultrafinegrid)
 ----------------------------------------------------------------------

 ------------------------------------------------------
 Candidate Structure: Conf:364 Charge calc in gas phase
 ------------------------------------------------------
 Structure from the checkpoint file:  "conf-364.chk"
 Charge =  1 Multiplicity = 1

                          Input orientation:
 ---------------------------------------------------------------------
 Center     Atomic      Atomic             Coordinates (Angstroms)
 Number     Number       Type             X           Y           Z
 ---------------------------------------------------------------------
      1          7           0       -3.820337   -0.901704   -3.949815
      2          1           0       -4.565351   -1.577803   -3.765540
      3          1           0       -3.886979   -0.069261   -3.255970
      4          1           0       -3.910725   -0.569271   -4.913028
      5          6           0       -2.436019   -1.409132   -3.610471
      6          1           0       -2.537491   -2.431952   -3.238575
      7          6           0       -2.013918   -0.445932   -2.457123
      8          6           0       -1.473958   -1.343509   -4.797311
      9          1           0       -0.478812   -1.599602   -4.425557
     10          1           0       -1.398673   -0.307274   -5.150081
     11          8           0       -2.816620    0.457032   -2.163287
     12          6           0       -1.809856   -2.287862   -5.952427
     13          1           0       -1.941321   -3.317750   -5.594340
     14          1           0       -2.740955   -2.025899   -6.468949
     15          6           0       -0.696796   -2.310834   -6.987021
     16          8           0        0.410802   -1.836509   -6.827211
     17          8           0       -1.086189   -2.937746   -8.100141
     18          7           0       -0.832605   -0.667425   -1.917027
     19          1           0       -0.206097   -1.375097   -2.295014
     20          6           0       -0.148465    0.182662   -0.937544
     21          1           0       -0.595634    1.177611   -0.975078
     22          6           0        1.317970    0.228677   -1.385804
     23          6           0       -0.231517   -0.408867    0.485029
     24          1           0        0.466002    0.147355    1.125409
     25          1           0        0.150020   -1.437880    0.436912
     26          8           0        1.728854   -0.658185   -2.193919
     27          6           0       -1.636511   -0.396018    1.108033
     28          1           0       -2.324068   -0.936598    0.437922
     29          6           0       -1.595916   -1.142526    2.447946
     30          1           0       -0.917380   -0.641438    3.147751
     31          1           0       -2.589445   -1.174977    2.907739
     32          1           0       -1.245278   -2.173592    2.323440
     33          6           0       -2.166758    1.031318    1.294532
     34          1           0       -1.469949    1.624865    1.898106
     35          1           0       -2.321420    1.544808    0.339592
     36          1           0       -3.130859    1.017967    1.814137
     37          7           0        2.057143    1.155875   -0.812135
     38          1           0        1.678107    1.585319    0.080577
     39          6           0        3.481627    1.008808   -0.475462
     40          1           0        3.837046    0.018616   -0.775315
     41          6           0        3.486563    1.082669    1.124768
     42          6           0        4.375470    2.128904   -1.005915
     43          1           0        5.352008    1.968386   -0.536118
     44          1           0        3.997730    3.080154   -0.611231
     45          8           0        4.559404    0.803693    1.655496
     46          6           0        4.541845    2.273962   -2.523829
     47          1           0        3.588785    2.544620   -2.996844
     48          1           0        5.227204    3.110009   -2.709581
     49          6           0        5.110372    1.037643   -3.244243
     50          1           0        5.836331    0.514561   -2.614102
     51          1           0        5.631520    1.341071   -4.154887
     52          7           0        4.052808    0.083305   -3.610581
     53          1           0        3.431122   -0.230486   -2.854705
     54          7           0        4.209119    0.237974   -5.939436
     55          1           0        3.760952    0.185681   -6.841209
     56          1           0        5.214505    0.310694   -5.921578
     57          7           0        2.255414   -0.498841   -4.923673
     58          1           0        1.896299   -0.954581   -5.754143
     59          1           0        1.760753   -0.628852   -4.039514
     60          6           0        3.520374   -0.064377   -4.820091
     61          8           0        2.370416    1.460583    1.603755
     62          1           0       -0.333840   -2.957955   -8.723439
 ---------------------------------------------------------------------

 SCF Done:  E(RB3LYP) =  -1447.48799628     A.U. after    1 cycles

 Alpha  occ. eigenvalues --  -19.34359 -19.29610 -19.28845 -19.23554 -19.12192
 Alpha  occ. eigenvalues --  -19.10744 -14.61723 -14.51088 -14.50164 -14.48150
 Alpha  occ. eigenvalues --  -14.48128 -14.43300 -10.47882 -10.45488 -10.45379
 Alpha  occ. eigenvalues --  -10.43372 -10.38937 -10.37554 -10.36913 -10.34333
 Alpha  occ. eigenvalues --  -10.32999 -10.29662 -10.27568 -10.27180 -10.26741
 Alpha  occ. eigenvalues --  -10.26645 -10.24846 -10.23947 -10.23706  -1.25746
 Alpha  occ. eigenvalues --   -1.21368  -1.16882  -1.15603  -1.14443  -1.13665
 Alpha  occ. eigenvalues --   -1.07868  -1.05304  -1.03324  -1.02176  -1.00612
 Alpha  occ. eigenvalues --   -0.98128  -0.96378  -0.91859  -0.89298  -0.87894
 Alpha  occ. eigenvalues --   -0.85161  -0.82448  -0.81574  -0.77489  -0.76506
 Alpha  occ. eigenvalues --   -0.75854  -0.75150  -0.74689  -0.74617  -0.74417
 Alpha  occ. eigenvalues --   -0.72008  -0.71348  -0.69837  -0.68111  -0.66794
 Alpha  occ. eigenvalues --   -0.66001  -0.65329  -0.64604  -0.63672  -0.63348
 Alpha  occ. eigenvalues --   -0.62821  -0.62709  -0.62468  -0.60978  -0.59854
 Alpha  occ. eigenvalues --   -0.59326  -0.58276  -0.57849  -0.56240  -0.55951
 Alpha  occ. eigenvalues --   -0.55197  -0.54380  -0.54157  -0.53778  -0.53210
 Alpha  occ. eigenvalues --   -0.52905  -0.52632  -0.52286  -0.51978  -0.50550
 Alpha  occ. eigenvalues --   -0.50358  -0.48935  -0.48235  -0.47465  -0.46893
 Alpha  occ. eigenvalues --   -0.46561  -0.45089  -0.44988  -0.44063  -0.43847
 Alpha  occ. eigenvalues --   -0.43588  -0.43097  -0.42055  -0.41633  -0.41229
 Alpha  occ. eigenvalues --   -0.40924  -0.40774  -0.40262  -0.39772  -0.39666
 Alpha  occ. eigenvalues --   -0.38901  -0.37570  -0.37135  -0.35523  -0.27158
 Alpha  occ. eigenvalues --   -0.26954  -0.24564
 Alpha virt. eigenvalues --   -0.14752  -0.14006  -0.12891  -0.09928  -0.08771
 Alpha virt. eigenvalues --   -0.08702  -0.06976  -0.05855  -0.05555  -0.04872
 Alpha virt. eigenvalues --   -0.03054  -0.02673  -0.01413  -0.01207  -0.00590

 Mulliken charges:
               1
     1  N   -0.765671
     2  H    0.419177
     3  H    0.444723
     4  H    0.410095
     5  C   -0.111279
     6  H    0.224458
     7  C    0.660229
     8  C   -0.309499
     9  H    0.202640
    10  H    0.193347
    11  O   -0.540318
    12  C   -0.377781
    13  H    0.214528
    14  H    0.185748
    15  C    0.612310
    16  O   -0.472918
    17  O   -0.537728
    18  N   -0.579787
    19  H    0.360086
    20  C   -0.099181
    21  H    0.204551
    22  C    0.611934
    23  C   -0.286817
    24  H    0.228109
    25  H    0.139208
    26  O   -0.633058
    27  C   -0.069969
    28  H    0.095216
    29  C   -0.448034
    30  H    0.176476
    31  H    0.149711
    32  H    0.141143
    33  C   -0.465368
    34  H    0.173823
    35  H    0.145212
    36  H    0.153084
    37  N   -0.560393
    38  H    0.375361
    39  C   -0.137652
    40  H    0.144765
    41  C    0.611691
    42  C   -0.266441
    43  H    0.186318
    44  H    0.160954
    45  O   -0.539031
    46  C   -0.273419
    47  H    0.142585
    48  H    0.164665
    49  C   -0.169525
    50  H    0.199899
    51  H    0.149554
    52  N   -0.618649
    53  H    0.415969
    54  N   -0.754271
    55  H    0.370846
    56  H    0.379761
    57  N   -0.832452
    58  H    0.387635
    59  H    0.400836
    60  C    0.779969
    61  O   -0.605584
    62  H    0.438209
 Sum of Mulliken charges =   1.00000

 Dipole moment (field-independent basis, Debye):
    X=             -9.4518    Y=             -8.1285    Z=            -36.0542  Tot=             38.1486
 Quadrupole moment (field-independent basis, Debye-Ang):
   XX=           -104.4396   YY=           -156.4975   ZZ=             -0.0184
   XY=             19.8289   XZ=            -19.1877   YZ=             28.0209

 Normal termination of Gaussian 16 at Thu Jun 23 05:43:00 2022.
