 Gaussian 16, Revision C.01,
 Gaussian 16:  ES64L-G16RevC.01  3-Jul-2019

 ----------------------------------------------------------------------
 # B3LYP/6-31G* empiricaldispersion=gd3bj guess=read geom=check nosymm
 integral(ultrafinegrid)
 ----------------------------------------------------------------------

 -----------------------------------------------------
 Candidate Structure: Conf:14 Charge calc in gas phase
 -----------------------------------------------------
 Structure from the checkpoint file:  "conf-14.chk"
 Charge =  1 Multiplicity = 1

                          Input orientation:
 ---------------------------------------------------------------------
 Center     Atomic      Atomic             Coordinates (Angstroms)
 Number     Number       Type             X           Y           Z
 ---------------------------------------------------------------------
      1          7           0       -4.292159   -1.103731   -2.973920
      2          1           0       -4.775869   -1.864640   -2.487642
      3          1           0       -4.370087   -0.222375   -2.382470
      4          1           0       -4.715433   -0.978689   -3.897563
      5          6           0       -2.789242   -1.290677   -3.021808
      6          1           0       -2.563700   -2.357532   -2.961144
      7          6           0       -2.327178   -0.492127   -1.774818
      8          6           0       -2.252403   -0.660018   -4.319882
      9          1           0       -2.450171    0.418553   -4.280453
     10          1           0       -2.810336   -1.064884   -5.172318
     11          8           0       -3.093153    0.401653   -1.379317
     12          6           0       -0.752822   -0.914737   -4.547905
     13          1           0       -0.130601   -0.620668   -3.702293
     14          1           0       -0.583066   -1.986143   -4.719086
     15          6           0       -0.219492   -0.167178   -5.754989
     16          8           0        0.808680    0.466195   -5.779702
     17          8           0       -1.038230   -0.300866   -6.825983
     18          7           0       -1.141529   -0.805384   -1.277197
     19          1           0       -0.535046   -1.465252   -1.774178
     20          6           0       -0.315836    0.086731   -0.453693
     21          1           0       -0.771013    1.079232   -0.465199
     22          6           0        1.039031    0.096061   -1.198609
     23          6           0       -0.157771   -0.425764    0.985486
     24          1           0        0.545128    0.241724    1.500314
     25          1           0        0.322926   -1.411632    0.943296
     26          8           0        1.293353   -0.831116   -1.989677
     27          6           0       -1.464794   -0.513120    1.790583
     28          1           0       -2.161241   -1.157202    1.232803
     29          6           0       -1.187850   -1.177039    3.145449
     30          1           0       -0.495969   -0.570080    3.741959
     31          1           0       -2.112148   -1.289471    3.721953
     32          1           0       -0.741475   -2.170518    3.023323
     33          6           0       -2.124025    0.859546    1.977394
     34          1           0       -1.435627    1.557082    2.470871
     35          1           0       -2.440410    1.299263    1.026504
     36          1           0       -3.014371    0.773744    2.609603
     37          7           0        1.852023    1.109335   -0.935124
     38          1           0        1.638415    1.861171   -0.274900
     39          6           0        3.176763    1.282447   -1.526564
     40          1           0        3.710360    0.328515   -1.499865
     41          6           0        3.885187    2.326717   -0.617144
     42          6           0        3.018926    1.752696   -3.000751
     43          1           0        2.702202    2.804187   -2.994561
     44          1           0        2.188541    1.179487   -3.420670
     45          8           0        5.160565    2.344744   -0.677006
     46          6           0        4.229105    1.552423   -3.942900
     47          1           0        4.904165    0.786747   -3.540203
     48          1           0        3.865381    1.162355   -4.899626
     49          6           0        5.043709    2.812978   -4.261558
     50          1           0        4.384459    3.595339   -4.657775
     51          1           0        5.792004    2.582387   -5.030539
     52          7           0        5.700917    3.296055   -3.048303
     53          1           0        5.665257    2.649535   -2.230782
     54          7           0        5.731334    5.566732   -3.584472
     55          1           0        5.871549    6.520970   -3.286127
     56          1           0        5.996496    5.361866   -4.536886
     57          7           0        5.925358    4.833467   -1.366452
     58          1           0        6.061673    5.773870   -1.029165
     59          1           0        5.684762    4.056590   -0.716264
     60          6           0        5.792358    4.568603   -2.667088
     61          8           0        3.151919    3.074771    0.049974
     62          1           0       -0.623860    0.185789   -7.564369
 ---------------------------------------------------------------------

 SCF Done:  E(RB3LYP) =  -1447.52179283     A.U. after    1 cycles

 Alpha  occ. eigenvalues --  -19.30007 -19.26966 -19.24304 -19.20746 -19.15680
 Alpha  occ. eigenvalues --  -19.15104 -14.60787 -14.49134 -14.47287 -14.44581
 Alpha  occ. eigenvalues --  -14.44108 -14.43578 -10.43635 -10.42695 -10.41956
 Alpha  occ. eigenvalues --  -10.41427 -10.37558 -10.34890 -10.33524 -10.33257
 Alpha  occ. eigenvalues --  -10.31814 -10.31093 -10.28758 -10.27439 -10.26896
 Alpha  occ. eigenvalues --  -10.26574 -10.25729 -10.24334 -10.24271  -1.20801
 Alpha  occ. eigenvalues --   -1.19551  -1.14484  -1.12604  -1.11864  -1.10872
 Alpha  occ. eigenvalues --   -1.08781  -1.05951  -1.01244  -1.00178  -0.99146
 Alpha  occ. eigenvalues --   -0.98696  -0.95262  -0.90179  -0.87437  -0.86915
 Alpha  occ. eigenvalues --   -0.84461  -0.81100  -0.79156  -0.75643  -0.75329
 Alpha  occ. eigenvalues --   -0.74941  -0.74341  -0.73246  -0.72538  -0.71274
 Alpha  occ. eigenvalues --   -0.70635  -0.68598  -0.67393  -0.66757  -0.65393
 Alpha  occ. eigenvalues --   -0.64537  -0.64102  -0.63867  -0.61487  -0.59983
 Alpha  occ. eigenvalues --   -0.59413  -0.59327  -0.58789  -0.58345  -0.57298
 Alpha  occ. eigenvalues --   -0.56988  -0.56408  -0.55845  -0.55187  -0.54531
 Alpha  occ. eigenvalues --   -0.54057  -0.53284  -0.52577  -0.52419  -0.51688
 Alpha  occ. eigenvalues --   -0.50918  -0.50739  -0.50278  -0.49810  -0.49075
 Alpha  occ. eigenvalues --   -0.48590  -0.48270  -0.47751  -0.47375  -0.46669
 Alpha  occ. eigenvalues --   -0.46464  -0.45469  -0.45263  -0.44179  -0.43279
 Alpha  occ. eigenvalues --   -0.42591  -0.42125  -0.41720  -0.41519  -0.41060
 Alpha  occ. eigenvalues --   -0.40752  -0.40362  -0.40153  -0.38748  -0.37904
 Alpha  occ. eigenvalues --   -0.37742  -0.35059  -0.34559  -0.33808  -0.30913
 Alpha  occ. eigenvalues --   -0.30254  -0.29477
 Alpha virt. eigenvalues --   -0.12760  -0.11582  -0.09550  -0.06982  -0.06629
 Alpha virt. eigenvalues --   -0.06443  -0.04727  -0.03280  -0.02612  -0.01518
 Alpha virt. eigenvalues --   -0.01291  -0.00936   0.00627   0.00821   0.01284

 Mulliken charges:
               1
     1  N   -0.751169
     2  H    0.419128
     3  H    0.433003
     4  H    0.413447
     5  C   -0.118200
     6  H    0.213395
     7  C    0.644630
     8  C   -0.300838
     9  H    0.191551
    10  H    0.190614
    11  O   -0.537904
    12  C   -0.392030
    13  H    0.231728
    14  H    0.194840
    15  C    0.584433
    16  O   -0.436101
    17  O   -0.563232
    18  N   -0.575675
    19  H    0.369305
    20  C   -0.101087
    21  H    0.193499
    22  C    0.641795
    23  C   -0.257216
    24  H    0.167858
    25  H    0.153125
    26  O   -0.568790
    27  C   -0.069936
    28  H    0.111881
    29  C   -0.445871
    30  H    0.156462
    31  H    0.153431
    32  H    0.146740
    33  C   -0.466317
    34  H    0.152174
    35  H    0.159190
    36  H    0.154079
    37  N   -0.608511
    38  H    0.363145
    39  C   -0.043017
    40  H    0.173711
    41  C    0.596988
    42  C   -0.285851
    43  H    0.142196
    44  H    0.179225
    45  O   -0.637731
    46  C   -0.306502
    47  H    0.169224
    48  H    0.170843
    49  C   -0.149306
    50  H    0.161161
    51  H    0.165311
    52  N   -0.607103
    53  H    0.406970
    54  N   -0.753515
    55  H    0.362145
    56  H    0.369237
    57  N   -0.769618
    58  H    0.349879
    59  H    0.421042
    60  C    0.765857
    61  O   -0.555128
    62  H    0.427406
 Sum of Mulliken charges =   1.00000

 Dipole moment (field-independent basis, Debye):
    X=             -6.0878    Y=              3.4785    Z=            -19.6025  Tot=             20.8188
 Quadrupole moment (field-independent basis, Debye-Ang):
   XX=            -61.1366   YY=           -100.9982   ZZ=            -80.8411
   XY=             83.1146   XZ=              2.0926   YZ=            -25.7880

 Normal termination of Gaussian 16 at Thu Jun 23 05:42:59 2022.
