 Gaussian 16, Revision C.01,
 Gaussian 16:  ES64L-G16RevC.01  3-Jul-2019

 ----------------------------------------------------------------------
 # B3LYP/6-31G* empiricaldispersion=gd3bj guess=read geom=check nosymm
 integral(ultrafinegrid)
 ----------------------------------------------------------------------

 ------------------------------------------------------
 Candidate Structure: Conf:315 Charge calc in gas phase
 ------------------------------------------------------
 Structure from the checkpoint file:  "conf-315.chk"
 Charge =  1 Multiplicity = 1

                          Input orientation:
 ---------------------------------------------------------------------
 Center     Atomic      Atomic             Coordinates (Angstroms)
 Number     Number       Type             X           Y           Z
 ---------------------------------------------------------------------
      1          7           0       -3.619660   -1.369087   -3.175624
      2          1           0       -4.116724   -2.252828   -3.047684
      3          1           0       -3.742046   -0.728754   -2.306650
      4          1           0       -3.981975   -0.906484   -4.012949
      5          6           0       -2.110790   -1.504938   -3.179267
      6          1           0       -1.873663   -2.558965   -3.010977
      7          6           0       -1.711708   -0.662044   -1.932455
      8          6           0       -1.493409   -1.001632   -4.481723
      9          1           0       -0.406257   -0.984059   -4.364052
     10          1           0       -1.781760    0.044177   -4.644851
     11          8           0       -2.639614   -0.107553   -1.310324
     12          6           0       -1.845639   -1.855910   -5.700837
     13          1           0       -1.568675   -2.906160   -5.541276
     14          1           0       -2.919602   -1.858601   -5.928351
     15          6           0       -1.109947   -1.361427   -6.935380
     16          8           0       -0.267320   -0.494836   -6.927766
     17          8           0       -1.515663   -2.020955   -8.035573
     18          7           0       -0.430214   -0.602184   -1.644786
     19          1           0        0.305558   -1.057523   -2.198116
     20          6           0        0.160087    0.146200   -0.533324
     21          1           0       -0.288515    1.142262   -0.503031
     22          6           0        1.653562    0.222154   -0.915475
     23          6           0       -0.076257   -0.592633    0.802841
     24          1           0        0.410290   -1.573916    0.731058
     25          1           0       -1.156421   -0.770766    0.881514
     26          8           0        2.098502   -0.568064   -1.764968
     27          6           0        0.395714    0.129729    2.078776
     28          1           0        1.480218    0.277791    2.033254
     29          6           0       -0.260939    1.505702    2.248520
     30          1           0       -1.354916    1.418664    2.272418
     31          1           0        0.066964    1.968423    3.183749
     32          1           0        0.002432    2.204181    1.446069
     33          6           0        0.100301   -0.760493    3.292929
     34          1           0       -0.978769   -0.925091    3.408492
     35          1           0        0.582809   -1.740312    3.198469
     36          1           0        0.467740   -0.292313    4.211625
     37          7           0        2.366040    1.142101   -0.273255
     38          1           0        1.991930    1.685970    0.512308
     39          6           0        3.821502    1.209549   -0.251203
     40          1           0        4.211981    0.187503   -0.295517
     41          6           0        4.186712    1.835263    1.137219
     42          6           0        4.334326    2.021210   -1.459762
     43          1           0        3.816193    2.986902   -1.462680
     44          1           0        4.026814    1.491608   -2.370405
     45          8           0        5.413552    1.839115    1.456115
     46          6           0        5.845723    2.279504   -1.475930
     47          1           0        6.102625    2.880605   -2.357544
     48          1           0        6.115731    2.859454   -0.590406
     49          6           0        6.665918    0.984861   -1.494068
     50          1           0        6.570586    0.467025   -2.453079
     51          1           0        6.324364    0.294207   -0.721542
     52          7           0        8.099010    1.201204   -1.261365
     53          1           0        8.644054    1.572679   -2.028070
     54          7           0        7.879110    1.272886    1.049569
     55          1           0        8.333077    1.261160    1.953114
     56          1           0        6.811185    1.427889    1.073289
     57          7           0        9.971949    1.541218    0.047246
     58          1           0       10.400260    1.647438    0.955283
     59          1           0       10.569740    1.173724   -0.679480
     60          6           0        8.629158    1.338770   -0.032536
     61          8           0        3.235670    2.278957    1.805507
     62          1           0       -0.999906   -1.674716   -8.789341
 ---------------------------------------------------------------------

 SCF Done:  E(RB3LYP) =  -1447.51293514     A.U. after    1 cycles

 Alpha  occ. eigenvalues --  -19.29828 -19.26325 -19.24453 -19.19673 -19.14381
 Alpha  occ. eigenvalues --  -19.13675 -14.59093 -14.48244 -14.48065 -14.47828
 Alpha  occ. eigenvalues --  -14.45165 -14.42063 -10.43488 -10.42910 -10.42725
 Alpha  occ. eigenvalues --  -10.40478 -10.36414 -10.33873 -10.33202 -10.32449
 Alpha  occ. eigenvalues --  -10.32231 -10.31434 -10.27977 -10.26449 -10.25941
 Alpha  occ. eigenvalues --  -10.25298 -10.25008 -10.22968 -10.22957  -1.20916
 Alpha  occ. eigenvalues --   -1.18760  -1.13000  -1.12175  -1.12133  -1.11424
 Alpha  occ. eigenvalues --   -1.07540  -1.05026  -1.01850  -1.00297  -0.99370
 Alpha  occ. eigenvalues --   -0.97999  -0.94753  -0.89305  -0.87336  -0.86977
 Alpha  occ. eigenvalues --   -0.83266  -0.80880  -0.78833  -0.75948  -0.74662
 Alpha  occ. eigenvalues --   -0.73948  -0.73768  -0.73155  -0.71893  -0.70480
 Alpha  occ. eigenvalues --   -0.69511  -0.69319  -0.67703  -0.66291  -0.65446
 Alpha  occ. eigenvalues --   -0.63981  -0.63601  -0.62451  -0.61644  -0.60987
 Alpha  occ. eigenvalues --   -0.60083  -0.59275  -0.58859  -0.58278  -0.58053
 Alpha  occ. eigenvalues --   -0.56686  -0.55579  -0.55308  -0.54035  -0.53868
 Alpha  occ. eigenvalues --   -0.53812  -0.52957  -0.52553  -0.51700  -0.51483
 Alpha  occ. eigenvalues --   -0.50438  -0.50144  -0.49347  -0.48866  -0.48755
 Alpha  occ. eigenvalues --   -0.48596  -0.48479  -0.47952  -0.46147  -0.45278
 Alpha  occ. eigenvalues --   -0.44511  -0.44400  -0.44123  -0.43189  -0.42868
 Alpha  occ. eigenvalues --   -0.42700  -0.42115  -0.41627  -0.41327  -0.40473
 Alpha  occ. eigenvalues --   -0.40101  -0.39020  -0.38527  -0.38449  -0.38151
 Alpha  occ. eigenvalues --   -0.37038  -0.36062  -0.34121  -0.32746  -0.29585
 Alpha  occ. eigenvalues --   -0.28802  -0.28258
 Alpha virt. eigenvalues --   -0.11625  -0.11070  -0.09235  -0.08000  -0.06097
 Alpha virt. eigenvalues --   -0.05314  -0.04761  -0.03704  -0.01749  -0.00884
 Alpha virt. eigenvalues --   -0.00719  -0.00144   0.00219   0.00372   0.00785

 Mulliken charges:
               1
     1  N   -0.765748
     2  H    0.412819
     3  H    0.440110
     4  H    0.408437
     5  C   -0.108302
     6  H    0.217163
     7  C    0.662827
     8  C   -0.302433
     9  H    0.224248
    10  H    0.190553
    11  O   -0.555548
    12  C   -0.376671
    13  H    0.202248
    14  H    0.169092
    15  C    0.597171
    16  O   -0.437573
    17  O   -0.557410
    18  N   -0.610649
    19  H    0.375248
    20  C   -0.067474
    21  H    0.191476
    22  C    0.619607
    23  C   -0.258568
    24  H    0.144188
    25  H    0.154561
    26  O   -0.573436
    27  C   -0.100022
    28  H    0.164567
    29  C   -0.450718
    30  H    0.139234
    31  H    0.175273
    32  H    0.140610
    33  C   -0.447506
    34  H    0.138733
    35  H    0.141783
    36  H    0.163649
    37  N   -0.621315
    38  H    0.385803
    39  C   -0.073312
    40  H    0.156873
    41  C    0.610159
    42  C   -0.267300
    43  H    0.156815
    44  H    0.154677
    45  O   -0.626404
    46  C   -0.273198
    47  H    0.136793
    48  H    0.179655
    49  C   -0.167794
    50  H    0.173439
    51  H    0.192258
    52  N   -0.595635
    53  H    0.350696
    54  N   -0.777853
    55  H    0.353447
    56  H    0.460047
    57  N   -0.766090
    58  H    0.367276
    59  H    0.365328
    60  C    0.789375
    61  O   -0.556454
    62  H    0.431177
 Sum of Mulliken charges =   1.00000

 Dipole moment (field-independent basis, Debye):
    X=              8.0009    Y=             -6.0258    Z=            -16.7135  Tot=             19.4850
 Quadrupole moment (field-independent basis, Debye-Ang):
   XX=             83.7829   YY=           -163.4567   ZZ=           -100.9654
   XY=             39.7156   XZ=             27.6126   YZ=             15.4626

 Normal termination of Gaussian 16 at Thu Jun 23 05:42:57 2022.
