 Gaussian 16, Revision C.01,
 Gaussian 16:  ES64L-G16RevC.01  3-Jul-2019

 ----------------------------------------------------------------------
 # B3LYP/6-31G* empiricaldispersion=gd3bj guess=read geom=check nosymm
 integral(ultrafinegrid)
 ----------------------------------------------------------------------

 ------------------------------------------------------
 Candidate Structure: Conf:112 Charge calc in gas phase
 ------------------------------------------------------
 Structure from the checkpoint file:  "conf-112.chk"
 Charge =  1 Multiplicity = 1

                          Input orientation:
 ---------------------------------------------------------------------
 Center     Atomic      Atomic             Coordinates (Angstroms)
 Number     Number       Type             X           Y           Z
 ---------------------------------------------------------------------
      1          7           0       -3.110498   -0.971551   -3.579600
      2          1           0       -3.656949   -1.833431   -3.658348
      3          1           0       -3.502714   -0.378079   -2.762613
      4          1           0       -3.159981   -0.466121   -4.466670
      5          6           0       -1.703899   -1.192657   -3.068726
      6          1           0       -1.463661   -2.254999   -3.151373
      7          6           0       -1.824456   -0.742886   -1.585472
      8          6           0       -0.679079   -0.318481   -3.809383
      9          1           0        0.201100   -0.217358   -3.160707
     10          1           0       -1.081929    0.695958   -3.920582
     11          8           0       -2.834960   -0.084548   -1.287189
     12          6           0       -0.270259   -0.900863   -5.163559
     13          1           0        0.199313   -1.883520   -5.043020
     14          1           0       -1.130582   -1.066282   -5.829206
     15          6           0        0.691777   -0.024700   -5.936781
     16          8           0        0.950268    1.142675   -5.681473
     17          8           0        1.210285   -0.684537   -6.972830
     18          7           0       -0.807200   -1.085706   -0.813860
     19          1           0        0.027146   -1.431053   -1.297502
     20          6           0       -0.348805   -0.307270    0.350677
     21          1           0       -1.120629    0.422152    0.599217
     22          6           0        0.928154    0.388810   -0.186181
     23          6           0       -0.069347   -1.247501    1.536834
     24          1           0        0.714016   -1.954386    1.230752
     25          1           0       -0.981337   -1.836773    1.703242
     26          8           0        1.480659   -0.094210   -1.205283
     27          6           0        0.339832   -0.566067    2.856410
     28          1           0        1.256507    0.013609    2.704321
     29          6           0       -0.733757    0.402299    3.367406
     30          1           0       -1.686279   -0.116911    3.539221
     31          1           0       -0.411434    0.854465    4.309169
     32          1           0       -0.917618    1.231645    2.675105
     33          6           0        0.637225   -1.645126    3.904851
     34          1           0       -0.256801   -2.243664    4.124257
     35          1           0        1.425443   -2.327408    3.565461
     36          1           0        0.972245   -1.186333    4.840230
     37          7           0        1.336051    1.451621    0.482987
     38          1           0        0.997551    1.683226    1.447906
     39          6           0        2.676135    2.030750    0.424011
     40          1           0        3.400030    1.245413    0.180504
     41          6           0        2.949750    2.577380    1.890771
     42          6           0        2.802945    3.175228   -0.575953
     43          1           0        3.817927    3.569073   -0.457303
     44          1           0        2.112368    3.979695   -0.288353
     45          8           0        4.028790    3.162207    2.031844
     46          6           0        2.526242    2.756448   -2.019343
     47          1           0        3.145232    1.892887   -2.288889
     48          1           0        1.481133    2.434772   -2.113017
     49          6           0        2.782478    3.896118   -2.997773
     50          1           0        3.849402    4.151769   -3.005287
     51          1           0        2.211876    4.787966   -2.707768
     52          7           0        2.372844    3.481403   -4.351155
     53          1           0        1.929147    2.573022   -4.446762
     54          7           0        3.091953    5.415601   -5.403827
     55          1           0        3.049397    6.051118   -6.186519
     56          1           0        3.441853    5.781995   -4.530683
     57          7           0        1.966051    3.774657   -6.607796
     58          1           0        2.234821    4.200374   -7.482478
     59          1           0        1.581379    2.835250   -6.628549
     60          6           0        2.481745    4.220443   -5.445743
     61          8           0        1.996459    2.355495    2.696480
     62          1           0        1.828413   -0.100914   -7.452412
 ---------------------------------------------------------------------

 SCF Done:  E(RB3LYP) =  -1447.46640848     A.U. after    1 cycles

 Alpha  occ. eigenvalues --  -19.35742 -19.31267 -19.27523 -19.19474 -19.09560
 Alpha  occ. eigenvalues --  -19.08216 -14.60992 -14.52662 -14.51985 -14.51627
 Alpha  occ. eigenvalues --  -14.48532 -14.40647 -10.49260 -10.48491 -10.43666
 Alpha  occ. eigenvalues --  -10.42031 -10.36699 -10.35934 -10.35809 -10.34678
 Alpha  occ. eigenvalues --  -10.32139 -10.27703 -10.27271 -10.25705 -10.25125
 Alpha  occ. eigenvalues --  -10.24279 -10.23478 -10.21576 -10.21573  -1.27160
 Alpha  occ. eigenvalues --   -1.19980  -1.18226  -1.17152  -1.14596  -1.10820
 Alpha  occ. eigenvalues --   -1.06070  -1.05660  -1.05519  -1.02656  -0.97742
 Alpha  occ. eigenvalues --   -0.97176  -0.93849  -0.90929  -0.89527  -0.87496
 Alpha  occ. eigenvalues --   -0.83221  -0.82348  -0.81083  -0.78920  -0.76122
 Alpha  occ. eigenvalues --   -0.75621  -0.74618  -0.73996  -0.73718  -0.73067
 Alpha  occ. eigenvalues --   -0.72536  -0.71030  -0.69881  -0.68063  -0.67697
 Alpha  occ. eigenvalues --   -0.65958  -0.65448  -0.64873  -0.64081  -0.63704
 Alpha  occ. eigenvalues --   -0.62506  -0.62303  -0.61679  -0.61227  -0.58994
 Alpha  occ. eigenvalues --   -0.58680  -0.58341  -0.57533  -0.57036  -0.56464
 Alpha  occ. eigenvalues --   -0.55236  -0.54294  -0.53356  -0.53237  -0.52489
 Alpha  occ. eigenvalues --   -0.51616  -0.51451  -0.50698  -0.50336  -0.48641
 Alpha  occ. eigenvalues --   -0.48486  -0.48273  -0.47286  -0.46770  -0.45868
 Alpha  occ. eigenvalues --   -0.45023  -0.44688  -0.43628  -0.43422  -0.42916
 Alpha  occ. eigenvalues --   -0.42584  -0.42246  -0.41495  -0.41122  -0.40697
 Alpha  occ. eigenvalues --   -0.39967  -0.39674  -0.38573  -0.37727  -0.37366
 Alpha  occ. eigenvalues --   -0.36998  -0.36650  -0.33775  -0.32008  -0.24589
 Alpha  occ. eigenvalues --   -0.24428  -0.22448
 Alpha virt. eigenvalues --   -0.15984  -0.12952  -0.12452  -0.12082  -0.08636
 Alpha virt. eigenvalues --   -0.08022  -0.07282  -0.05870  -0.05414  -0.04420
 Alpha virt. eigenvalues --   -0.03362  -0.02782  -0.02127  -0.01405  -0.00785

 Mulliken charges:
               1
     1  N   -0.761010
     2  H    0.417473
     3  H    0.437860
     4  H    0.404540
     5  C   -0.121276
     6  H    0.216587
     7  C    0.638999
     8  C   -0.327550
     9  H    0.254315
    10  H    0.179617
    11  O   -0.533220
    12  C   -0.371156
    13  H    0.222064
    14  H    0.183823
    15  C    0.610132
    16  O   -0.491881
    17  O   -0.521717
    18  N   -0.551808
    19  H    0.354069
    20  C   -0.120303
    21  H    0.198163
    22  C    0.617908
    23  C   -0.249123
    24  H    0.141232
    25  H    0.144759
    26  O   -0.603390
    27  C   -0.102525
    28  H    0.181174
    29  C   -0.447116
    30  H    0.127893
    31  H    0.181387
    32  H    0.138053
    33  C   -0.447993
    34  H    0.133900
    35  H    0.140909
    36  H    0.167647
    37  N   -0.602836
    38  H    0.391402
    39  C   -0.090399
    40  H    0.154710
    41  C    0.600573
    42  C   -0.263810
    43  H    0.178356
    44  H    0.142178
    45  O   -0.567065
    46  C   -0.304400
    47  H    0.167608
    48  H    0.141636
    49  C   -0.146332
    50  H    0.183196
    51  H    0.181134
    52  N   -0.632130
    53  H    0.393245
    54  N   -0.761954
    55  H    0.380411
    56  H    0.397710
    57  N   -0.788669
    58  H    0.369296
    59  H    0.387750
    60  C    0.825530
    61  O   -0.610670
    62  H    0.431095
 Sum of Mulliken charges =   1.00000

 Dipole moment (field-independent basis, Debye):
    X=             -6.4638    Y=              2.9410    Z=            -40.4432  Tot=             41.0620
 Quadrupole moment (field-independent basis, Debye-Ang):
   XX=           -149.5199   YY=           -107.0447   ZZ=             12.0198
   XY=             32.4608   XZ=            -40.6474   YZ=            -87.4921

 Normal termination of Gaussian 16 at Thu Jun 23 05:42:59 2022.
