 Gaussian 16, Revision C.01,
 Gaussian 16:  ES64L-G16RevC.01  3-Jul-2019

 ----------------------------------------------------------------------
 # B3LYP/6-31G* empiricaldispersion=gd3bj guess=read geom=check nosymm
 integral(ultrafinegrid)
 ----------------------------------------------------------------------

 ------------------------------------------------------
 Candidate Structure: Conf:351 Charge calc in gas phase
 ------------------------------------------------------
 Structure from the checkpoint file:  "conf-351.chk"
 Charge =  1 Multiplicity = 1

                          Input orientation:
 ---------------------------------------------------------------------
 Center     Atomic      Atomic             Coordinates (Angstroms)
 Number     Number       Type             X           Y           Z
 ---------------------------------------------------------------------
      1          7           0       -3.275110   -1.947065   -3.840848
      2          1           0       -3.881502   -1.589990   -3.066537
      3          1           0       -3.304904   -1.247676   -4.588207
      4          1           0       -3.526041   -2.879091   -4.223646
      5          6           0       -1.913437   -2.046112   -3.207360
      6          1           0       -1.919324   -3.017644   -2.705094
      7          6           0       -1.937422   -0.955529   -2.106355
      8          6           0       -0.777058   -1.994610   -4.230716
      9          1           0        0.135068   -2.315539   -3.718098
     10          1           0       -0.605330   -0.961152   -4.551786
     11          8           0       -3.054038   -0.549982   -1.752250
     12          6           0       -0.978509   -2.868129   -5.495057
     13          1           0       -1.688794   -2.384917   -6.176928
     14          1           0       -0.029803   -2.952738   -6.027717
     15          6           0       -1.535871   -4.248304   -5.206779
     16          8           0       -2.655903   -4.448566   -4.752392
     17          8           0       -0.686834   -5.229925   -5.494908
     18          7           0       -0.762225   -0.604730   -1.609984
     19          1           0        0.124433   -0.852739   -2.057738
     20          6           0       -0.524766    0.347908   -0.526943
     21          1           0       -1.281488    1.135625   -0.566243
     22          6           0        0.882533    0.912183   -0.812512
     23          6           0       -0.511284   -0.337418    0.857709
     24          1           0       -0.103987    0.374326    1.587425
     25          1           0        0.209998   -1.163923    0.801298
     26          8           0        1.606321    0.347041   -1.649123
     27          6           0       -1.865216   -0.860670    1.363873
     28          1           0       -2.273196   -1.566374    0.625808
     29          6           0       -1.645258   -1.621815    2.678066
     30          1           0       -1.234960   -0.956185    3.446557
     31          1           0       -2.588460   -2.030983    3.056448
     32          1           0       -0.942721   -2.453412    2.548007
     33          6           0       -2.880456    0.272586    1.554096
     34          1           0       -2.482386    1.036675    2.233009
     35          1           0       -3.141975    0.749490    0.604415
     36          1           0       -3.808797   -0.111713    1.990914
     37          7           0        1.231584    1.954358   -0.047306
     38          1           0        0.642218    2.154589    0.789740
     39          6           0        2.597939    2.126501    0.455008
     40          1           0        3.154902    1.196209    0.298513
     41          6           0        2.442853    2.412922    2.012312
     42          6           0        3.365097    3.282617   -0.168903
     43          1           0        4.343426    3.285029    0.323415
     44          1           0        2.870287    4.217947    0.127165
     45          8           0        3.496512    2.717826    2.587619
     46          6           0        3.497649    3.226145   -1.690498
     47          1           0        3.807723    2.226530   -2.013054
     48          1           0        2.508027    3.364305   -2.151731
     49          6           0        4.523696    4.241618   -2.235763
     50          1           0        4.328749    4.523578   -3.275870
     51          1           0        5.527663    3.815136   -2.201512
     52          7           0        4.623609    5.487637   -1.441565
     53          1           0        5.341922    5.504906   -0.729102
     54          7           0        2.493565    6.236076   -1.963481
     55          1           0        1.807133    6.976295   -1.973056
     56          1           0        2.189275    5.309845   -2.230249
     57          7           0        3.868209    7.519090   -0.610976
     58          1           0        3.087019    8.025677   -0.218202
     59          1           0        4.772597    7.700353   -0.198049
     60          6           0        3.659351    6.394598   -1.321015
     61          8           0        1.251338    2.333656    2.432248
     62          1           0       -1.121365   -6.083340   -5.293707
 ---------------------------------------------------------------------

 SCF Done:  E(RB3LYP) =  -1447.47208964     A.U. after    3 cycles

 Alpha  occ. eigenvalues --  -19.33426 -19.28445 -19.24187 -19.19248 -19.10196
 Alpha  occ. eigenvalues --  -19.09011 -14.57885 -14.52093 -14.52059 -14.51814
 Alpha  occ. eigenvalues --  -14.46969 -14.39908 -10.48258 -10.46573 -10.41434
 Alpha  occ. eigenvalues --  -10.39401 -10.35375 -10.35046 -10.34811 -10.34560
 Alpha  occ. eigenvalues --  -10.31239 -10.28257 -10.27954 -10.25557 -10.25211
 Alpha  occ. eigenvalues --  -10.24627 -10.24600 -10.22187 -10.22149  -1.24746
 Alpha  occ. eigenvalues --   -1.16951  -1.16916  -1.15636  -1.12101  -1.10509
 Alpha  occ. eigenvalues --   -1.05947  -1.05149  -1.03747  -1.03198  -0.97573
 Alpha  occ. eigenvalues --   -0.95063  -0.94402  -0.89362  -0.88743  -0.86639
 Alpha  occ. eigenvalues --   -0.83325  -0.81830  -0.79736  -0.78894  -0.75044
 Alpha  occ. eigenvalues --   -0.74168  -0.74037  -0.73503  -0.73105  -0.72724
 Alpha  occ. eigenvalues --   -0.71065  -0.70521  -0.68454  -0.66922  -0.65571
 Alpha  occ. eigenvalues --   -0.64979  -0.64453  -0.64353  -0.62549  -0.62258
 Alpha  occ. eigenvalues --   -0.61297  -0.61064  -0.59752  -0.59264  -0.58485
 Alpha  occ. eigenvalues --   -0.57765  -0.57086  -0.56315  -0.55970  -0.54822
 Alpha  occ. eigenvalues --   -0.53814  -0.53390  -0.52766  -0.52059  -0.51339
 Alpha  occ. eigenvalues --   -0.50991  -0.50886  -0.50018  -0.49641  -0.49071
 Alpha  occ. eigenvalues --   -0.48081  -0.47446  -0.46401  -0.46027  -0.45565
 Alpha  occ. eigenvalues --   -0.45005  -0.44181  -0.43376  -0.43199  -0.42507
 Alpha  occ. eigenvalues --   -0.42235  -0.41823  -0.41610  -0.40967  -0.40168
 Alpha  occ. eigenvalues --   -0.39371  -0.39089  -0.38590  -0.38185  -0.37899
 Alpha  occ. eigenvalues --   -0.37559  -0.36020  -0.33147  -0.32055  -0.25283
 Alpha  occ. eigenvalues --   -0.25039  -0.23164
 Alpha virt. eigenvalues --   -0.13733  -0.12692  -0.10602  -0.08433  -0.08340
 Alpha virt. eigenvalues --   -0.05002  -0.04359  -0.04100  -0.03975  -0.03189
 Alpha virt. eigenvalues --   -0.03075  -0.01315  -0.00926  -0.00169   0.00306

 Mulliken charges:
               1
     1  N   -0.755505
     2  H    0.426463
     3  H    0.396894
     4  H    0.434098
     5  C   -0.125618
     6  H    0.236658
     7  C    0.660188
     8  C   -0.320704
     9  H    0.214270
    10  H    0.193778
    11  O   -0.548294
    12  C   -0.376261
    13  H    0.185063
    14  H    0.222828
    15  C    0.609375
    16  O   -0.490186
    17  O   -0.521716
    18  N   -0.609953
    19  H    0.367234
    20  C   -0.081858
    21  H    0.182941
    22  C    0.592925
    23  C   -0.282130
    24  H    0.208480
    25  H    0.136211
    26  O   -0.571353
    27  C   -0.068160
    28  H    0.107057
    29  C   -0.447659
    30  H    0.169173
    31  H    0.145324
    32  H    0.138168
    33  C   -0.460717
    34  H    0.161517
    35  H    0.148596
    36  H    0.146891
    37  N   -0.605864
    38  H    0.360973
    39  C   -0.091312
    40  H    0.156787
    41  C    0.592553
    42  C   -0.260184
    43  H    0.165605
    44  H    0.115544
    45  O   -0.573977
    46  C   -0.310104
    47  H    0.194076
    48  H    0.140094
    49  C   -0.178062
    50  H    0.186387
    51  H    0.197872
    52  N   -0.571799
    53  H    0.374610
    54  N   -0.747731
    55  H    0.380074
    56  H    0.395727
    57  N   -0.755004
    58  H    0.384522
    59  H    0.385193
    60  C    0.806969
    61  O   -0.607251
    62  H    0.440285
 Sum of Mulliken charges =   1.00000

 Dipole moment (field-independent basis, Debye):
    X=              0.5523    Y=              9.0696    Z=            -26.4034  Tot=             27.9231
 Quadrupole moment (field-independent basis, Debye-Ang):
   XX=           -110.7064   YY=             19.7536   ZZ=           -111.0306
   XY=             88.8312   XZ=              2.6830   YZ=              1.0026

 Normal termination of Gaussian 16 at Thu Jun 23 05:43:18 2022.
