 Gaussian 16, Revision C.01,
 Gaussian 16:  ES64L-G16RevC.01  3-Jul-2019

 ----------------------------------------------------------------------
 # B3LYP/6-31G* empiricaldispersion=gd3bj guess=read geom=check nosymm
 integral(ultrafinegrid)
 ----------------------------------------------------------------------

 ------------------------------------------------------
 Candidate Structure: Conf:234 Charge calc in gas phase
 ------------------------------------------------------
 Structure from the checkpoint file:  "conf-234.chk"
 Charge =  1 Multiplicity = 1

                          Input orientation:
 ---------------------------------------------------------------------
 Center     Atomic      Atomic             Coordinates (Angstroms)
 Number     Number       Type             X           Y           Z
 ---------------------------------------------------------------------
      1          7           0       -3.124618   -1.850412   -3.752686
      2          1           0       -3.578133   -2.650848   -3.301393
      3          1           0       -3.516969   -0.960613   -3.327012
      4          1           0       -3.296169   -1.896278   -4.760938
      5          6           0       -1.656800   -1.724802   -3.395987
      6          1           0       -1.257120   -2.719068   -3.185775
      7          6           0       -1.709155   -0.802012   -2.152672
      8          6           0       -0.927458   -1.038213   -4.563265
      9          1           0       -1.362745   -0.038694   -4.689215
     10          1           0       -1.113725   -1.599237   -5.486590
     11          8           0       -2.678422   -0.028140   -2.086770
     12          6           0        0.591994   -0.925556   -4.348709
     13          1           0        0.856863   -0.473642   -3.393190
     14          1           0        1.044435   -1.924944   -4.375278
     15          6           0        1.243608   -0.084272   -5.428840
     16          8           0        1.959021    0.869091   -5.232998
     17          8           0        0.919151   -0.531663   -6.665339
     18          7           0       -0.710773   -0.907950   -1.290018
     19          1           0        0.110847   -1.470238   -1.535784
     20          6           0       -0.304947    0.138474   -0.342517
     21          1           0       -0.918536    1.024358   -0.526198
     22          6           0        1.176078    0.389977   -0.725898
     23          6           0       -0.400634   -0.295253    1.131440
     24          1           0        0.237760    0.391364    1.700189
     25          1           0        0.057239   -1.288993    1.228793
     26          8           0        1.798611   -0.517043   -1.307246
     27          6           0       -1.800960   -0.291225    1.769185
     28          1           0       -2.222596    0.716243    1.637071
     29          6           0       -2.770353   -1.297762    1.135248
     30          1           0       -2.333814   -2.304809    1.119955
     31          1           0       -3.696526   -1.348152    1.718050
     32          1           0       -3.042834   -1.015059    0.115206
     33          6           0       -1.663497   -0.554467    3.275155
     34          1           0       -1.249641   -1.553576    3.460648
     35          1           0       -1.001314    0.176365    3.752180
     36          1           0       -2.638357   -0.500663    3.770863
     37          7           0        1.678846    1.569931   -0.390533
     38          1           0        1.147849    2.298568    0.096117
     39          6           0        3.067648    1.981068   -0.582448
     40          1           0        3.734014    1.233584   -0.142648
     41          6           0        3.202430    3.338435    0.152960
     42          6           0        3.414399    2.160212   -2.079382
     43          1           0        3.060846    1.282626   -2.625246
     44          1           0        4.505566    2.169883   -2.170623
     45          8           0        4.379957    3.817365    0.176213
     46          6           0        2.820914    3.449031   -2.690558
     47          1           0        2.491879    3.252891   -3.716474
     48          1           0        1.934055    3.744470   -2.118223
     49          6           0        3.830448    4.621160   -2.680954
     50          1           0        4.367506    4.673221   -3.634239
     51          1           0        4.566200    4.472965   -1.893551
     52          7           0        3.199995    5.928751   -2.458237
     53          1           0        2.466414    6.191877   -3.102877
     54          7           0        3.999625    6.344485   -0.296287
     55          1           0        4.073507    7.018317    0.453873
     56          1           0        4.189564    5.308415   -0.023946
     57          7           0        2.654018    7.898557   -1.403133
     58          1           0        2.717406    8.506168   -0.599278
     59          1           0        2.570682    8.373068   -2.291438
     60          6           0        3.305285    6.697692   -1.361148
     61          8           0        2.150207    3.886552    0.541456
     62          1           0        1.382907    0.039930   -7.307186
 ---------------------------------------------------------------------

 SCF Done:  E(RB3LYP) =  -1447.51322633     A.U. after    1 cycles

 Alpha  occ. eigenvalues --  -19.29919 -19.26843 -19.24295 -19.20579 -19.15260
 Alpha  occ. eigenvalues --  -19.15159 -14.60948 -14.49132 -14.46862 -14.46731
 Alpha  occ. eigenvalues --  -14.43681 -14.43283 -10.43506 -10.42632 -10.42293
 Alpha  occ. eigenvalues --  -10.41405 -10.37391 -10.34910 -10.33571 -10.32989
 Alpha  occ. eigenvalues --  -10.31762 -10.29913 -10.28226 -10.27502 -10.26970
 Alpha  occ. eigenvalues --  -10.25491 -10.25092 -10.24712 -10.24228  -1.20744
 Alpha  occ. eigenvalues --   -1.19493  -1.14572  -1.12422  -1.11826  -1.10851
 Alpha  occ. eigenvalues --   -1.08841  -1.05868  -1.00941  -1.00541  -0.99222
 Alpha  occ. eigenvalues --   -0.98073  -0.95296  -0.90108  -0.87473  -0.86509
 Alpha  occ. eigenvalues --   -0.84428  -0.80881  -0.79182  -0.75968  -0.75334
 Alpha  occ. eigenvalues --   -0.74889  -0.74324  -0.73337  -0.71931  -0.71161
 Alpha  occ. eigenvalues --   -0.70561  -0.68709  -0.67622  -0.66594  -0.64782
 Alpha  occ. eigenvalues --   -0.64476  -0.64091  -0.63761  -0.61792  -0.59906
 Alpha  occ. eigenvalues --   -0.59814  -0.59368  -0.58362  -0.57928  -0.57307
 Alpha  occ. eigenvalues --   -0.56832  -0.55937  -0.55731  -0.54815  -0.54436
 Alpha  occ. eigenvalues --   -0.53662  -0.53300  -0.52726  -0.52038  -0.51805
 Alpha  occ. eigenvalues --   -0.51296  -0.50509  -0.49867  -0.49383  -0.49173
 Alpha  occ. eigenvalues --   -0.48789  -0.48499  -0.47451  -0.47002  -0.46174
 Alpha  occ. eigenvalues --   -0.45919  -0.45116  -0.44671  -0.44366  -0.43522
 Alpha  occ. eigenvalues --   -0.42721  -0.42091  -0.41674  -0.41317  -0.41030
 Alpha  occ. eigenvalues --   -0.40514  -0.40270  -0.39914  -0.38575  -0.37710
 Alpha  occ. eigenvalues --   -0.37580  -0.34991  -0.34407  -0.33539  -0.30754
 Alpha  occ. eigenvalues --   -0.30047  -0.29514
 Alpha virt. eigenvalues --   -0.12956  -0.11590  -0.09559  -0.06920  -0.06803
 Alpha virt. eigenvalues --   -0.06416  -0.04683  -0.03944  -0.02652  -0.01566
 Alpha virt. eigenvalues --   -0.01057  -0.00894   0.00380   0.00800   0.01206

 Mulliken charges:
               1
     1  N   -0.748927
     2  H    0.420239
     3  H    0.431190
     4  H    0.413510
     5  C   -0.118525
     6  H    0.213793
     7  C    0.646749
     8  C   -0.302221
     9  H    0.189874
    10  H    0.190925
    11  O   -0.543121
    12  C   -0.382250
    13  H    0.227387
    14  H    0.196200
    15  C    0.579739
    16  O   -0.434016
    17  O   -0.561701
    18  N   -0.566992
    19  H    0.367997
    20  C   -0.096563
    21  H    0.189006
    22  C    0.634246
    23  C   -0.259802
    24  H    0.170209
    25  H    0.151914
    26  O   -0.566240
    27  C   -0.074145
    28  H    0.136379
    29  C   -0.462422
    30  H    0.133702
    31  H    0.157405
    32  H    0.141952
    33  C   -0.448265
    34  H    0.148625
    35  H    0.155665
    36  H    0.156115
    37  N   -0.605178
    38  H    0.361136
    39  C   -0.047617
    40  H    0.177626
    41  C    0.601418
    42  C   -0.280403
    43  H    0.176614
    44  H    0.162622
    45  O   -0.621007
    46  C   -0.305264
    47  H    0.156144
    48  H    0.157227
    49  C   -0.171878
    50  H    0.167845
    51  H    0.223088
    52  N   -0.600594
    53  H    0.342193
    54  N   -0.765849
    55  H    0.345142
    56  H    0.448447
    57  N   -0.763652
    58  H    0.361557
    59  H    0.357432
    60  C    0.784514
    61  O   -0.576487
    62  H    0.427297
 Sum of Mulliken charges =   1.00000

 Dipole moment (field-independent basis, Debye):
    X=             -6.5242    Y=              4.9135    Z=            -18.7611  Tot=             20.4618
 Quadrupole moment (field-independent basis, Debye-Ang):
   XX=           -141.7144   YY=            -35.5152   ZZ=            -81.3025
   XY=             59.7176   XZ=             19.9087   YZ=             -3.2125

 Normal termination of Gaussian 16 at Thu Jun 23 05:42:59 2022.
