 Gaussian 16, Revision C.01,
 Gaussian 16:  ES64L-G16RevC.01  3-Jul-2019

 ----------------------------------------------------------------------
 # B3LYP/6-31G* empiricaldispersion=gd3bj guess=read geom=check nosymm
 integral(ultrafinegrid)
 ----------------------------------------------------------------------

 ------------------------------------------------------
 Candidate Structure: Conf:879 Charge calc in gas phase
 ------------------------------------------------------
 Structure from the checkpoint file:  "conf-879.chk"
 Charge =  1 Multiplicity = 1

                          Input orientation:
 ---------------------------------------------------------------------
 Center     Atomic      Atomic             Coordinates (Angstroms)
 Number     Number       Type             X           Y           Z
 ---------------------------------------------------------------------
      1          7           0       -3.536411   -2.459218   -3.088669
      2          1           0       -3.924359   -1.840790   -2.328610
      3          1           0       -3.708099   -1.985735   -3.980893
      4          1           0       -3.934980   -3.406876   -3.130271
      5          6           0       -2.066999   -2.514741   -2.751215
      6          1           0       -1.968408   -3.357213   -2.060096
      7          6           0       -1.846118   -1.210564   -1.940726
      8          6           0       -1.190299   -2.734224   -3.983565
      9          1           0       -0.173119   -2.936480   -3.633795
     10          1           0       -1.142044   -1.814793   -4.578248
     11          8           0       -2.860148   -0.660795   -1.480575
     12          6           0       -1.644555   -3.897371   -4.896882
     13          1           0       -2.563692   -3.635391   -5.432568
     14          1           0       -0.868495   -4.081702   -5.642082
     15          6           0       -1.867722   -5.189516   -4.137918
     16          8           0       -1.076720   -6.079573   -3.987698
     17          8           0       -3.127165   -5.222784   -3.574105
     18          7           0       -0.595096   -0.818448   -1.784924
     19          1           0        0.212451   -1.283165   -2.213975
     20          6           0       -0.158281    0.332629   -0.995163
     21          1           0       -0.775635    1.195959   -1.258056
     22          6           0        1.302658    0.537912   -1.452294
     23          6           0       -0.278639    0.027523    0.515398
     24          1           0        0.377581   -0.823687    0.736930
     25          1           0       -1.310271   -0.303967    0.688240
     26          8           0        1.874003   -0.371347   -2.073913
     27          6           0        0.029555    1.184726    1.484018
     28          1           0        1.076707    1.485693    1.369433
     29          6           0       -0.851103    2.414301    1.225794
     30          1           0       -1.915563    2.155992    1.294661
     31          1           0       -0.640607    3.193572    1.964295
     32          1           0       -0.680197    2.861065    0.239125
     33          6           0       -0.150574    0.688265    2.924652
     34          1           0       -1.190941    0.393659    3.112904
     35          1           0        0.488597   -0.177552    3.131846
     36          1           0        0.109477    1.475692    3.639290
     37          7           0        1.858660    1.700738   -1.116897
     38          1           0        1.377338    2.386585   -0.534267
     39          6           0        3.287386    1.995135   -1.185901
     40          1           0        3.851037    1.060691   -1.136910
     41          6           0        3.580919    2.888585    0.046959
     42          6           0        3.594950    2.741272   -2.504811
     43          1           0        3.103273    3.721806   -2.457352
     44          1           0        3.099638    2.181368   -3.306264
     45          8           0        4.789105    2.887877    0.449308
     46          6           0        5.068850    2.901636   -2.910722
     47          1           0        5.555882    1.918746   -2.929875
     48          1           0        5.087326    3.264586   -3.948557
     49          6           0        5.955262    3.814423   -2.053277
     50          1           0        6.942500    3.906164   -2.522361
     51          1           0        6.069393    3.384349   -1.062283
     52          7           0        5.385832    5.163633   -1.911573
     53          1           0        5.069206    5.611120   -2.761875
     54          7           0        5.433036    5.380948    0.415109
     55          1           0        5.370593    6.010657    1.203439
     56          1           0        5.199740    4.337929    0.595591
     57          7           0        4.965598    7.213884   -0.953371
     58          1           0        4.793917    7.782827   -0.137744
     59          1           0        5.283484    7.705040   -1.776424
     60          6           0        5.271107    5.896436   -0.791724
     61          8           0        2.634016    3.574107    0.477302
     62          1           0       -3.209648   -6.081152   -3.113054
 ---------------------------------------------------------------------

 SCF Done:  E(RB3LYP) =  -1447.52030469     A.U. after    1 cycles

 Alpha  occ. eigenvalues --  -19.33447 -19.27084 -19.25352 -19.19950 -19.15257
 Alpha  occ. eigenvalues --  -19.14847 -14.59200 -14.47969 -14.47230 -14.46994
 Alpha  occ. eigenvalues --  -14.43841 -14.42750 -10.45243 -10.42591 -10.42421
 Alpha  occ. eigenvalues --  -10.40372 -10.36807 -10.35235 -10.34220 -10.32884
 Alpha  occ. eigenvalues --  -10.32671 -10.29845 -10.28235 -10.26656 -10.26577
 Alpha  occ. eigenvalues --  -10.25756 -10.25513 -10.23717 -10.23299  -1.23487
 Alpha  occ. eigenvalues --   -1.18059  -1.14897  -1.13252  -1.11766  -1.11115
 Alpha  occ. eigenvalues --   -1.08615  -1.04731  -1.00779  -1.00735  -0.99059
 Alpha  occ. eigenvalues --   -0.98251  -0.95482  -0.89676  -0.87649  -0.86878
 Alpha  occ. eigenvalues --   -0.83521  -0.81037  -0.79789  -0.75635  -0.74950
 Alpha  occ. eigenvalues --   -0.74532  -0.74288  -0.73491  -0.72458  -0.71228
 Alpha  occ. eigenvalues --   -0.69339  -0.68602  -0.67285  -0.65885  -0.65082
 Alpha  occ. eigenvalues --   -0.64574  -0.64268  -0.63112  -0.61363  -0.61038
 Alpha  occ. eigenvalues --   -0.60715  -0.59784  -0.59346  -0.58524  -0.57697
 Alpha  occ. eigenvalues --   -0.57375  -0.55922  -0.55336  -0.54810  -0.54574
 Alpha  occ. eigenvalues --   -0.53786  -0.53598  -0.52762  -0.52321  -0.51288
 Alpha  occ. eigenvalues --   -0.51072  -0.50725  -0.50442  -0.50030  -0.49556
 Alpha  occ. eigenvalues --   -0.49495  -0.48799  -0.48190  -0.46989  -0.45594
 Alpha  occ. eigenvalues --   -0.45354  -0.44949  -0.44575  -0.44373  -0.43724
 Alpha  occ. eigenvalues --   -0.43359  -0.42773  -0.41287  -0.40948  -0.40385
 Alpha  occ. eigenvalues --   -0.40111  -0.39941  -0.39462  -0.38851  -0.37774
 Alpha  occ. eigenvalues --   -0.36997  -0.35131  -0.34368  -0.33451  -0.30747
 Alpha  occ. eigenvalues --   -0.29561  -0.29115
 Alpha virt. eigenvalues --   -0.12922  -0.11405  -0.09352  -0.07178  -0.05832
 Alpha virt. eigenvalues --   -0.05523  -0.04193  -0.02840  -0.02297  -0.01703
 Alpha virt. eigenvalues --   -0.01183  -0.00301   0.00040   0.00065   0.01182

 Mulliken charges:
               1
     1  N   -0.756186
     2  H    0.430362
     3  H    0.405107
     4  H    0.428763
     5  C   -0.125528
     6  H    0.232331
     7  C    0.665341
     8  C   -0.320004
     9  H    0.221223
    10  H    0.194188
    11  O   -0.552698
    12  C   -0.361871
    13  H    0.172197
    14  H    0.229244
    15  C    0.579580
    16  O   -0.396897
    17  O   -0.607921
    18  N   -0.625539
    19  H    0.377378
    20  C   -0.066365
    21  H    0.186656
    22  C    0.620295
    23  C   -0.260123
    24  H    0.148174
    25  H    0.158590
    26  O   -0.564689
    27  C   -0.101579
    28  H    0.163755
    29  C   -0.451786
    30  H    0.144080
    31  H    0.169796
    32  H    0.134994
    33  C   -0.447339
    34  H    0.140221
    35  H    0.147299
    36  H    0.161098
    37  N   -0.616016
    38  H    0.376739
    39  C   -0.045829
    40  H    0.172258
    41  C    0.597566
    42  C   -0.259390
    43  H    0.137032
    44  H    0.155366
    45  O   -0.620757
    46  C   -0.291699
    47  H    0.168222
    48  H    0.136702
    49  C   -0.159769
    50  H    0.163784
    51  H    0.235677
    52  N   -0.602088
    53  H    0.341755
    54  N   -0.759053
    55  H    0.345475
    56  H    0.441368
    57  N   -0.765423
    58  H    0.365025
    59  H    0.360012
    60  C    0.783453
    61  O   -0.571456
    62  H    0.438903
 Sum of Mulliken charges =   1.00000

 Dipole moment (field-independent basis, Debye):
    X=             -2.4404    Y=              3.1854    Z=            -16.0178  Tot=             16.5128
 Quadrupole moment (field-independent basis, Debye-Ang):
   XX=            -83.3288   YY=            -33.5484   ZZ=           -109.2276
   XY=            117.1521   XZ=             17.2898   YZ=             10.6119

 Normal termination of Gaussian 16 at Thu Jun 23 05:43:01 2022.
