 Gaussian 16, Revision C.01,
 Gaussian 16:  ES64L-G16RevC.01  3-Jul-2019

 ----------------------------------------------------------------------
 # B3LYP/6-31G* empiricaldispersion=gd3bj guess=read geom=check nosymm
 integral(ultrafinegrid)
 ----------------------------------------------------------------------

 ------------------------------------------------------
 Candidate Structure: Conf:126 Charge calc in gas phase
 ------------------------------------------------------
 Structure from the checkpoint file:  "conf-126.chk"
 Charge =  1 Multiplicity = 1

                          Input orientation:
 ---------------------------------------------------------------------
 Center     Atomic      Atomic             Coordinates (Angstroms)
 Number     Number       Type             X           Y           Z
 ---------------------------------------------------------------------
      1          7           0       -4.186560   -1.710286   -2.779402
      2          1           0       -4.499494   -2.658613   -2.558517
      3          1           0       -4.331912   -1.068743   -1.926596
      4          1           0       -4.717712   -1.371472   -3.585927
      5          6           0       -2.687272   -1.590113   -2.958236
      6          1           0       -2.258991   -2.594318   -2.911764
      7          6           0       -2.272658   -0.753075   -1.714372
      8          6           0       -2.333965   -0.899190   -4.277152
      9          1           0       -1.259286   -0.694863   -4.280470
     10          1           0       -2.829592    0.080586   -4.307082
     11          8           0       -3.191103   -0.300046   -1.008388
     12          6           0       -2.697125   -1.732746   -5.516500
     13          1           0       -2.134941   -2.674513   -5.503137
     14          1           0       -3.763293   -1.975906   -5.562931
     15          6           0       -2.375307   -0.995685   -6.806053
     16          8           0       -3.177938   -0.725324   -7.664698
     17          8           0       -1.065199   -0.670871   -6.857908
     18          7           0       -0.975298   -0.598586   -1.536391
     19          1           0       -0.299757   -0.861625   -2.264714
     20          6           0       -0.330281    0.304486   -0.582647
     21          1           0       -1.005590    1.138435   -0.373321
     22          6           0        0.921875    0.795946   -1.349829
     23          6           0        0.076537   -0.411175    0.718354
     24          1           0        0.680585    0.286830    1.311560
     25          1           0        0.741882   -1.240904    0.446666
     26          8           0        1.238000    0.241520   -2.414805
     27          6           0       -1.082785   -0.930393    1.584791
     28          1           0       -1.709550   -1.587779    0.964945
     29          6           0       -0.517738   -1.767663    2.739702
     30          1           0        0.120831   -1.155543    3.388103
     31          1           0       -1.324436   -2.175674    3.357899
     32          1           0        0.085176   -2.605972    2.372153
     33          6           0       -1.960882    0.209529    2.115139
     34          1           0       -1.363178    0.918049    2.702178
     35          1           0       -2.456696    0.757258    1.308260
     36          1           0       -2.745002   -0.183567    2.771084
     37          7           0        1.598706    1.780048   -0.765615
     38          1           0        1.342565    2.170031    0.144469
     39          6           0        2.918392    2.252171   -1.174943
     40          1           0        3.502589    1.405718   -1.546447
     41          6           0        3.556395    2.818472    0.127308
     42          6           0        2.760558    3.306440   -2.303332
     43          1           0        2.310583    4.209869   -1.870661
     44          1           0        2.019159    2.888933   -2.991488
     45          8           0        4.829185    2.909464    0.137367
     46          6           0        4.021168    3.665281   -3.125764
     47          1           0        4.768404    2.865694   -3.046875
     48          1           0        3.750741    3.718214   -4.186152
     49          6           0        4.689911    5.004039   -2.781436
     50          1           0        3.949678    5.812993   -2.814674
     51          1           0        5.465619    5.227174   -3.524713
     52          7           0        5.280169    4.933401   -1.446538
     53          1           0        5.327677    3.977518   -1.034703
     54          7           0        4.994781    7.170085   -0.843783
     55          1           0        5.007051    7.876547   -0.122606
     56          1           0        5.274480    7.478724   -1.763507
     57          7           0        5.309716    5.500023    0.770999
     58          1           0        5.278868    6.174660    1.519999
     59          1           0        5.161969    4.488435    0.961869
     60          6           0        5.198545    5.872570   -0.505501
     61          8           0        2.772274    3.171061    1.025112
     62          1           0       -0.914950   -0.205783   -7.703457
 ---------------------------------------------------------------------

 SCF Done:  E(RB3LYP) =  -1447.51882774     A.U. after    3 cycles

 Alpha  occ. eigenvalues --  -19.30042 -19.27076 -19.24375 -19.20784 -19.15970
 Alpha  occ. eigenvalues --  -19.15484 -14.59987 -14.48907 -14.47564 -14.44869
 Alpha  occ. eigenvalues --  -14.44472 -14.43378 -10.43520 -10.42899 -10.42278
 Alpha  occ. eigenvalues --  -10.41153 -10.37543 -10.34859 -10.33586 -10.33477
 Alpha  occ. eigenvalues --  -10.33332 -10.31559 -10.29076 -10.27407 -10.27244
 Alpha  occ. eigenvalues --  -10.26835 -10.26414 -10.24270 -10.24259  -1.20940
 Alpha  occ. eigenvalues --   -1.19475  -1.13899  -1.12541  -1.12118  -1.11204
 Alpha  occ. eigenvalues --   -1.09125  -1.05864  -1.01477  -1.00408  -0.99358
 Alpha  occ. eigenvalues --   -0.99018  -0.95433  -0.90333  -0.87835  -0.87403
 Alpha  occ. eigenvalues --   -0.84449  -0.81352  -0.78922  -0.75784  -0.75402
 Alpha  occ. eigenvalues --   -0.75106  -0.74351  -0.72907  -0.72803  -0.71732
 Alpha  occ. eigenvalues --   -0.70332  -0.68829  -0.67515  -0.66665  -0.65492
 Alpha  occ. eigenvalues --   -0.64899  -0.64306  -0.63469  -0.61044  -0.60117
 Alpha  occ. eigenvalues --   -0.59719  -0.59612  -0.58967  -0.58788  -0.57645
 Alpha  occ. eigenvalues --   -0.56886  -0.56292  -0.56254  -0.55422  -0.54704
 Alpha  occ. eigenvalues --   -0.54050  -0.53861  -0.52562  -0.52264  -0.51809
 Alpha  occ. eigenvalues --   -0.51007  -0.50943  -0.50797  -0.50001  -0.49382
 Alpha  occ. eigenvalues --   -0.49055  -0.48695  -0.48099  -0.47692  -0.46838
 Alpha  occ. eigenvalues --   -0.46536  -0.45676  -0.45370  -0.44200  -0.43700
 Alpha  occ. eigenvalues --   -0.43087  -0.42227  -0.42119  -0.41820  -0.41344
 Alpha  occ. eigenvalues --   -0.40943  -0.40395  -0.40171  -0.38485  -0.38177
 Alpha  occ. eigenvalues --   -0.37844  -0.35129  -0.34877  -0.33984  -0.31242
 Alpha  occ. eigenvalues --   -0.30398  -0.29854
 Alpha virt. eigenvalues --   -0.12529  -0.11467  -0.09379  -0.06937  -0.06795
 Alpha virt. eigenvalues --   -0.06194  -0.04183  -0.03524  -0.02377  -0.01715
 Alpha virt. eigenvalues --   -0.01321  -0.01124   0.00406   0.00906   0.01266

 Mulliken charges:
               1
     1  N   -0.762948
     2  H    0.416503
     3  H    0.437982
     4  H    0.413795
     5  C   -0.107917
     6  H    0.219948
     7  C    0.652897
     8  C   -0.322718
     9  H    0.234850
    10  H    0.186020
    11  O   -0.546327
    12  C   -0.358007
    13  H    0.199897
    14  H    0.164899
    15  C    0.576797
    16  O   -0.425619
    17  O   -0.553550
    18  N   -0.589532
    19  H    0.375522
    20  C   -0.091896
    21  H    0.192256
    22  C    0.634882
    23  C   -0.260403
    24  H    0.170718
    25  H    0.150155
    26  O   -0.570079
    27  C   -0.070444
    28  H    0.112019
    29  C   -0.446566
    30  H    0.157547
    31  H    0.152975
    32  H    0.145027
    33  C   -0.460114
    34  H    0.151410
    35  H    0.156558
    36  H    0.153658
    37  N   -0.611068
    38  H    0.364599
    39  C   -0.049583
    40  H    0.173353
    41  C    0.596997
    42  C   -0.269806
    43  H    0.145784
    44  H    0.163393
    45  O   -0.637153
    46  C   -0.305343
    47  H    0.174035
    48  H    0.158803
    49  C   -0.148080
    50  H    0.161264
    51  H    0.168226
    52  N   -0.606492
    53  H    0.407589
    54  N   -0.753721
    55  H    0.363568
    56  H    0.370014
    57  N   -0.765316
    58  H    0.350935
    59  H    0.418864
    60  C    0.765648
    61  O   -0.558359
    62  H    0.431652
 Sum of Mulliken charges =   1.00000

 Dipole moment (field-independent basis, Debye):
    X=             -4.1428    Y=              6.1613    Z=            -13.4742  Tot=             15.3844
 Quadrupole moment (field-independent basis, Debye-Ang):
   XX=            -86.6678   YY=            -46.6536   ZZ=           -124.7901
   XY=             99.6686   XZ=             15.3886   YZ=              1.7757

 Normal termination of Gaussian 16 at Thu Jun 23 05:43:17 2022.
