 Gaussian 16, Revision C.01,
 Gaussian 16:  ES64L-G16RevC.01  3-Jul-2019

 ----------------------------------------------------------------------
 # B3LYP/6-31G* empiricaldispersion=gd3bj guess=read geom=check nosymm
 integral(ultrafinegrid)
 ----------------------------------------------------------------------

 ------------------------------------------------------
 Candidate Structure: Conf:448 Charge calc in gas phase
 ------------------------------------------------------
 Structure from the checkpoint file:  "conf-448.chk"
 Charge =  1 Multiplicity = 1

                          Input orientation:
 ---------------------------------------------------------------------
 Center     Atomic      Atomic             Coordinates (Angstroms)
 Number     Number       Type             X           Y           Z
 ---------------------------------------------------------------------
      1          7           0       -2.991436   -2.624562   -2.757382
      2          1           0       -3.258845   -3.442207   -2.202519
      3          1           0       -3.330707   -1.738630   -2.258297
      4          1           0       -3.401702   -2.711345   -3.691009
      5          6           0       -1.496331   -2.380253   -2.780879
      6          1           0       -0.989907   -3.292608   -2.457887
      7          6           0       -1.346470   -1.232100   -1.745704
      8          6           0       -1.065672   -1.973265   -4.199367
      9          1           0       -1.543141   -1.024132   -4.464763
     10          1           0       -1.435506   -2.735010   -4.898586
     11          8           0       -2.383375   -0.623727   -1.425043
     12          6           0        0.457381   -1.855053   -4.366650
     13          1           0        0.866088   -1.053564   -3.740766
     14          1           0        0.965082   -2.781595   -4.084715
     15          6           0        0.861516   -1.551081   -5.798382
     16          8           0        1.784064   -2.063366   -6.379979
     17          8           0        0.062454   -0.600983   -6.345171
     18          7           0       -0.125760   -0.981647   -1.315185
     19          1           0        0.702478   -1.468554   -1.672123
     20          6           0        0.266158    0.157924   -0.485643
     21          1           0       -0.350986    1.016566   -0.762784
     22          6           0        1.740372    0.393436   -0.886944
     23          6           0        0.070433   -0.177566    1.009727
     24          1           0        0.710036   -1.036170    1.250092
     25          1           0       -0.969843   -0.511643    1.117423
     26          8           0        2.328201   -0.467488   -1.561784
     27          6           0        0.325024    0.956183    2.021123
     28          1           0        1.382954    1.240150    1.990581
     29          6           0       -0.515196    2.205628    1.724935
     30          1           0       -1.585604    1.964275    1.708047
     31          1           0       -0.350148    2.964792    2.495219
     32          1           0       -0.264427    2.670500    0.763693
     33          6           0        0.032504    0.435442    3.434618
     34          1           0       -1.024421    0.160535    3.542435
     35          1           0        0.637168   -0.448144    3.668167
     36          1           0        0.257287    1.202575    4.182370
     37          7           0        2.291928    1.528306   -0.460005
     38          1           0        1.808686    2.155156    0.184623
     39          6           0        3.725800    1.801252   -0.465644
     40          1           0        4.271016    0.866300   -0.315063
     41          6           0        4.011493    2.780771    0.702494
     42          6           0        4.208111    2.453165   -1.778623
     43          1           0        4.070057    1.742065   -2.598822
     44          1           0        5.284036    2.614001   -1.659927
     45          8           0        5.212517    3.010887    0.931567
     46          6           0        3.483919    3.784468   -2.088110
     47          1           0        2.856037    3.682107   -2.980530
     48          1           0        2.795181    4.019119   -1.271482
     49          6           0        4.395462    4.993112   -2.362699
     50          1           0        3.786078    5.874379   -2.601056
     51          1           0        5.013750    4.799520   -3.242697
     52          7           0        5.347953    5.341347   -1.293348
     53          1           0        6.331818    5.350073   -1.527280
     54          7           0        3.808137    5.804937    0.420739
     55          1           0        3.477762    5.116070    1.131484
     56          1           0        3.114816    5.929919   -0.306045
     57          7           0        6.079339    5.600988    0.883849
     58          1           0        5.768804    5.787081    1.831051
     59          1           0        6.673681    4.777137    0.855211
     60          6           0        5.058629    5.552169   -0.007664
     61          8           0        2.989577    3.343414    1.219164
     62          1           0        0.394804   -0.442562   -7.249776
 ---------------------------------------------------------------------

 SCF Done:  E(RB3LYP) =  -1447.50988461     A.U. after    3 cycles

 Alpha  occ. eigenvalues --  -19.29695 -19.27003 -19.23780 -19.21287 -19.16385
 Alpha  occ. eigenvalues --  -19.15185 -14.60334 -14.49245 -14.48499 -14.45317
 Alpha  occ. eigenvalues --  -14.45216 -14.43829 -10.43627 -10.42815 -10.42345
 Alpha  occ. eigenvalues --  -10.41307 -10.38032 -10.34856 -10.33868 -10.33622
 Alpha  occ. eigenvalues --  -10.33406 -10.32231 -10.29044 -10.27956 -10.27817
 Alpha  occ. eigenvalues --  -10.26603 -10.26402 -10.24842 -10.24206  -1.20458
 Alpha  occ. eigenvalues --   -1.19539  -1.14185  -1.12995  -1.11803  -1.11567
 Alpha  occ. eigenvalues --   -1.09093  -1.06091  -1.01570  -1.01370  -0.99924
 Alpha  occ. eigenvalues --   -0.98754  -0.95267  -0.90265  -0.88245  -0.87520
 Alpha  occ. eigenvalues --   -0.84620  -0.82385  -0.79133  -0.76678  -0.75818
 Alpha  occ. eigenvalues --   -0.75280  -0.74274  -0.73051  -0.72701  -0.71186
 Alpha  occ. eigenvalues --   -0.70767  -0.69362  -0.67614  -0.66691  -0.65507
 Alpha  occ. eigenvalues --   -0.64422  -0.63596  -0.63513  -0.61879  -0.61184
 Alpha  occ. eigenvalues --   -0.60165  -0.58773  -0.58484  -0.58333  -0.57357
 Alpha  occ. eigenvalues --   -0.57256  -0.56428  -0.56295  -0.55719  -0.55081
 Alpha  occ. eigenvalues --   -0.54698  -0.53839  -0.53036  -0.52597  -0.52112
 Alpha  occ. eigenvalues --   -0.51145  -0.50870  -0.50252  -0.50094  -0.49668
 Alpha  occ. eigenvalues --   -0.49211  -0.48812  -0.48199  -0.47775  -0.46805
 Alpha  occ. eigenvalues --   -0.46202  -0.45546  -0.45223  -0.44591  -0.44409
 Alpha  occ. eigenvalues --   -0.43335  -0.42784  -0.42245  -0.41773  -0.41737
 Alpha  occ. eigenvalues --   -0.41553  -0.40515  -0.40034  -0.38627  -0.38285
 Alpha  occ. eigenvalues --   -0.37301  -0.37034  -0.35554  -0.34415  -0.31492
 Alpha  occ. eigenvalues --   -0.30934  -0.29212
 Alpha virt. eigenvalues --   -0.12404  -0.11539  -0.09901  -0.08946  -0.07060
 Alpha virt. eigenvalues --   -0.06883  -0.04730  -0.03302  -0.02224  -0.01808
 Alpha virt. eigenvalues --   -0.01241  -0.01136  -0.00648   0.00882   0.01040

 Mulliken charges:
               1
     1  N   -0.759086
     2  H    0.417596
     3  H    0.435343
     4  H    0.413074
     5  C   -0.110071
     6  H    0.216496
     7  C    0.648871
     8  C   -0.301634
     9  H    0.205718
    10  H    0.178038
    11  O   -0.547817
    12  C   -0.379107
    13  H    0.217122
    14  H    0.196728
    15  C    0.577222
    16  O   -0.425665
    17  O   -0.567036
    18  N   -0.599801
    19  H    0.379585
    20  C   -0.085076
    21  H    0.191876
    22  C    0.622276
    23  C   -0.252294
    24  H    0.151002
    25  H    0.153710
    26  O   -0.561208
    27  C   -0.103381
    28  H    0.164278
    29  C   -0.452620
    30  H    0.146742
    31  H    0.170840
    32  H    0.130692
    33  C   -0.448600
    34  H    0.142247
    35  H    0.149388
    36  H    0.163283
    37  N   -0.618825
    38  H    0.385820
    39  C   -0.065677
    40  H    0.179852
    41  C    0.599334
    42  C   -0.267229
    43  H    0.162411
    44  H    0.160723
    45  O   -0.593959
    46  C   -0.287801
    47  H    0.156267
    48  H    0.151846
    49  C   -0.169015
    50  H    0.174909
    51  H    0.181363
    52  N   -0.557269
    53  H    0.363455
    54  N   -0.727693
    55  H    0.400770
    56  H    0.346943
    57  N   -0.701289
    58  H    0.367041
    59  H    0.380151
    60  C    0.700356
    61  O   -0.629130
    62  H    0.427918
 Sum of Mulliken charges =   1.00000

 Dipole moment (field-independent basis, Debye):
    X=             -2.3787    Y=              0.7797    Z=            -13.2560  Tot=             13.4903
 Quadrupole moment (field-independent basis, Debye-Ang):
   XX=           -107.0126   YY=            -86.5082   ZZ=           -121.5254
   XY=             82.7402   XZ=             17.6782   YZ=              4.9243

 Normal termination of Gaussian 16 at Thu Jun 23 05:43:22 2022.
