 Gaussian 16, Revision C.01,
 Gaussian 16:  ES64L-G16RevC.01  3-Jul-2019

 ----------------------------------------------------------------------
 # B3LYP/6-31G* empiricaldispersion=gd3bj guess=read geom=check nosymm
 integral(ultrafinegrid)
 ----------------------------------------------------------------------

 ------------------------------------------------------
 Candidate Structure: Conf:242 Charge calc in gas phase
 ------------------------------------------------------
 Structure from the checkpoint file:  "conf-242.chk"
 Charge =  1 Multiplicity = 1

                          Input orientation:
 ---------------------------------------------------------------------
 Center     Atomic      Atomic             Coordinates (Angstroms)
 Number     Number       Type             X           Y           Z
 ---------------------------------------------------------------------
      1          7           0       -4.416029    0.300256   -3.744960
      2          1           0       -5.374089    0.207471   -3.398729
      3          1           0       -3.972466    1.187344   -3.318274
      4          1           0       -4.434448    0.343716   -4.765955
      5          6           0       -3.471914   -0.750246   -3.199053
      6          1           0       -4.064632   -1.537362   -2.733350
      7          6           0       -2.678475    0.054463   -2.137052
      8          6           0       -2.524158   -1.309051   -4.288836
      9          1           0       -1.494398   -1.183158   -3.936678
     10          1           0       -2.601681   -0.692704   -5.193290
     11          8           0       -2.799394    1.289878   -2.158418
     12          6           0       -2.786987   -2.770069   -4.656294
     13          1           0       -3.815209   -2.938708   -5.004521
     14          1           0       -2.140042   -3.072634   -5.486430
     15          6           0       -2.534529   -3.711804   -3.497439
     16          8           0       -2.335652   -3.367845   -2.344359
     17          8           0       -2.576037   -4.992140   -3.876561
     18          7           0       -1.927989   -0.659696   -1.308811
     19          1           0       -1.876033   -1.657742   -1.510979
     20          6           0       -0.774979   -0.064627   -0.641289
     21          1           0       -1.089970    0.894622   -0.224275
     22          6           0        0.312242    0.200236   -1.719143
     23          6           0       -0.274392   -0.999980    0.467672
     24          1           0        0.606138   -0.543301    0.933735
     25          1           0        0.078722   -1.931081    0.001866
     26          8           0        0.152612   -0.155757   -2.894860
     27          6           0       -1.311023   -1.327747    1.556310
     28          1           0       -2.168844   -1.818983    1.074069
     29          6           0       -0.704161   -2.313916    2.561937
     30          1           0        0.152746   -1.865095    3.078825
     31          1           0       -1.439031   -2.601145    3.321487
     32          1           0       -0.355089   -3.227385    2.066700
     33          6           0       -1.820554   -0.066875    2.265019
     34          1           0       -0.988921    0.492749    2.711085
     35          1           0       -2.353196    0.606124    1.583792
     36          1           0       -2.512821   -0.330822    3.071535
     37          7           0        1.391781    0.824872   -1.249070
     38          1           0        1.535064    1.026635   -0.254131
     39          6           0        2.635617    1.045593   -1.971572
     40          1           0        2.877645    0.148350   -2.554332
     41          6           0        3.719071    1.240626   -0.857664
     42          6           0        2.481166    2.232749   -2.948246
     43          1           0        2.322058    3.153896   -2.372259
     44          1           0        1.560912    2.049265   -3.511236
     45          8           0        4.935245    1.268516   -1.229849
     46          6           0        3.642200    2.403911   -3.942829
     47          1           0        4.056456    1.417333   -4.182378
     48          1           0        3.265818    2.816060   -4.887399
     49          6           0        4.767762    3.310821   -3.423267
     50          1           0        4.993745    3.084314   -2.381017
     51          1           0        4.483727    4.364687   -3.483823
     52          7           0        6.013147    3.163716   -4.193533
     53          1           0        6.078185    3.664612   -5.069853
     54          7           0        6.608221    1.164115   -3.166300
     55          1           0        7.347811    0.502764   -2.970459
     56          1           0        5.785679    1.172846   -2.456992
     57          7           0        7.903574    2.036419   -4.904272
     58          1           0        8.588625    1.310797   -4.746829
     59          1           0        8.283145    2.899695   -5.268388
     60          6           0        6.837216    2.110979   -4.055498
     61          8           0        3.298360    1.361776    0.303870
     62          1           0       -2.415888   -5.545355   -3.087027
 ---------------------------------------------------------------------

 SCF Done:  E(RB3LYP) =  -1447.51972262     A.U. after    2 cycles

 Alpha  occ. eigenvalues --  -19.31363 -19.26590 -19.25527 -19.18729 -19.14351
 Alpha  occ. eigenvalues --  -19.13580 -14.58727 -14.47802 -14.47447 -14.46787
 Alpha  occ. eigenvalues --  -14.44876 -14.41252 -10.44615 -10.43169 -10.41638
 Alpha  occ. eigenvalues --  -10.39401 -10.35564 -10.32785 -10.32746 -10.32100
 Alpha  occ. eigenvalues --  -10.31623 -10.30314 -10.27691 -10.26452 -10.26280
 Alpha  occ. eigenvalues --  -10.26008 -10.25144 -10.23828 -10.23492  -1.22766
 Alpha  occ. eigenvalues --   -1.17988  -1.13755  -1.12482  -1.11855  -1.10235
 Alpha  occ. eigenvalues --   -1.07469  -1.04240  -1.01457  -1.00009  -0.98931
 Alpha  occ. eigenvalues --   -0.97586  -0.93941  -0.89247  -0.86839  -0.86793
 Alpha  occ. eigenvalues --   -0.83103  -0.80484  -0.78925  -0.75583  -0.74771
 Alpha  occ. eigenvalues --   -0.73219  -0.73020  -0.72374  -0.72246  -0.69988
 Alpha  occ. eigenvalues --   -0.69723  -0.69027  -0.67604  -0.65642  -0.65339
 Alpha  occ. eigenvalues --   -0.63807  -0.63420  -0.62072  -0.61303  -0.60958
 Alpha  occ. eigenvalues --   -0.60149  -0.59778  -0.59214  -0.58998  -0.56817
 Alpha  occ. eigenvalues --   -0.56341  -0.55603  -0.54690  -0.54105  -0.53569
 Alpha  occ. eigenvalues --   -0.53433  -0.52974  -0.52684  -0.51963  -0.50582
 Alpha  occ. eigenvalues --   -0.50307  -0.49873  -0.49490  -0.48938  -0.48626
 Alpha  occ. eigenvalues --   -0.48291  -0.47495  -0.47025  -0.46166  -0.45346
 Alpha  occ. eigenvalues --   -0.45029  -0.44493  -0.44071  -0.43903  -0.43589
 Alpha  occ. eigenvalues --   -0.42979  -0.42792  -0.41222  -0.40557  -0.40049
 Alpha  occ. eigenvalues --   -0.39857  -0.39681  -0.39368  -0.39250  -0.38143
 Alpha  occ. eigenvalues --   -0.37297  -0.35826  -0.32751  -0.32089  -0.29538
 Alpha  occ. eigenvalues --   -0.28859  -0.28080
 Alpha virt. eigenvalues --   -0.11398  -0.10634  -0.10030  -0.07770  -0.06426
 Alpha virt. eigenvalues --   -0.04769  -0.04458  -0.03012  -0.02596  -0.00808
 Alpha virt. eigenvalues --   -0.00569   0.00190   0.00393   0.00576   0.01227

 Mulliken charges:
               1
     1  N   -0.763711
     2  H    0.411411
     3  H    0.434724
     4  H    0.404806
     5  C   -0.107938
     6  H    0.217438
     7  C    0.638543
     8  C   -0.332508
     9  H    0.269887
    10  H    0.160469
    11  O   -0.543015
    12  C   -0.365423
    13  H    0.188396
    14  H    0.219568
    15  C    0.603797
    16  O   -0.478372
    17  O   -0.538287
    18  N   -0.589429
    19  H    0.399606
    20  C   -0.092644
    21  H    0.200062
    22  C    0.638823
    23  C   -0.300363
    24  H    0.179911
    25  H    0.145975
    26  O   -0.570724
    27  C   -0.068927
    28  H    0.121439
    29  C   -0.446028
    30  H    0.158091
    31  H    0.152497
    32  H    0.143280
    33  C   -0.456039
    34  H    0.157574
    35  H    0.141334
    36  H    0.155867
    37  N   -0.613883
    38  H    0.369355
    39  C   -0.058200
    40  H    0.151839
    41  C    0.603100
    42  C   -0.268508
    43  H    0.148009
    44  H    0.162789
    45  O   -0.626325
    46  C   -0.271092
    47  H    0.151868
    48  H    0.137240
    49  C   -0.192217
    50  H    0.230690
    51  H    0.168910
    52  N   -0.589945
    53  H    0.347084
    54  N   -0.773649
    55  H    0.349323
    56  H    0.453610
    57  N   -0.762451
    58  H    0.362652
    59  H    0.363316
    60  C    0.779931
    61  O   -0.547960
    62  H    0.434424
 Sum of Mulliken charges =   1.00000

 Dipole moment (field-independent basis, Debye):
    X=             -2.2558    Y=             -0.6880    Z=            -24.4882  Tot=             24.6015
 Quadrupole moment (field-independent basis, Debye-Ang):
   XX=             19.7268   YY=           -130.1068   ZZ=            -60.9608
   XY=             45.1441   XZ=            -30.2616   YZ=            -21.3696

 Normal termination of Gaussian 16 at Thu Jun 23 05:43:09 2022.
