 Gaussian 16, Revision C.01,
 Gaussian 16:  ES64L-G16RevC.01  3-Jul-2019

 ----------------------------------------------------------------------
 # B3LYP/6-31G* empiricaldispersion=gd3bj guess=read geom=check nosymm
 integral(ultrafinegrid)
 ----------------------------------------------------------------------

 ------------------------------------------------------
 Candidate Structure: Conf:217 Charge calc in gas phase
 ------------------------------------------------------
 Structure from the checkpoint file:  "conf-217.chk"
 Charge =  1 Multiplicity = 1

                          Input orientation:
 ---------------------------------------------------------------------
 Center     Atomic      Atomic             Coordinates (Angstroms)
 Number     Number       Type             X           Y           Z
 ---------------------------------------------------------------------
      1          7           0       -3.674382   -1.237147   -3.444955
      2          1           0       -4.222761   -1.984517   -3.009453
      3          1           0       -3.783622   -0.345604   -2.855115
      4          1           0       -4.000987   -1.104171   -4.405554
      5          6           0       -2.180731   -1.452531   -3.326247
      6          1           0       -1.987063   -2.518927   -3.191876
      7          6           0       -1.849741   -0.618578   -2.059180
      8          6           0       -1.501928   -0.912850   -4.599214
      9          1           0       -1.723042    0.156263   -4.681910
     10          1           0       -1.966235   -1.412680   -5.457484
     11          8           0       -2.664550    0.272720   -1.765443
     12          6           0        0.024141   -1.149048   -4.681231
     13          1           0        0.366137   -1.892612   -3.950903
     14          1           0        0.285434   -1.552066   -5.662086
     15          6           0        0.918062    0.056430   -4.467191
     16          8           0        2.032522    0.138773   -4.959307
     17          8           0        0.369356    1.004641   -3.711071
     18          7           0       -0.738659   -0.924530   -1.415878
     19          1           0       -0.055260   -1.565592   -1.826161
     20          6           0       -0.062850   -0.027161   -0.472867
     21          1           0       -0.571835    0.936823   -0.504409
     22          6           0        1.363473    0.084730   -1.048111
     23          6           0       -0.077129   -0.602226    0.955246
     24          1           0        0.458741   -1.560499    0.941994
     25          1           0       -1.122435   -0.822484    1.210123
     26          8           0        1.794602   -0.838835   -1.775291
     27          6           0        0.522510    0.316277    2.038551
     28          1           0        1.560088    0.552701    1.775069
     29          6           0       -0.238383    1.642342    2.164440
     30          1           0       -1.296244    1.466499    2.399995
     31          1           0        0.194678    2.250808    2.963165
     32          1           0       -0.185985    2.250137    1.255075
     33          6           0        0.535941   -0.429738    3.378652
     34          1           0       -0.483300   -0.676094    3.703103
     35          1           0        1.104162   -1.364917    3.312364
     36          1           0        0.994184    0.187650    4.157596
     37          7           0        2.002991    1.196695   -0.730230
     38          1           0        1.677508    1.885563   -0.010360
     39          6           0        3.414900    1.500805   -0.924537
     40          1           0        4.025934    0.649299   -0.600100
     41          6           0        3.687252    2.737006    0.031654
     42          6           0        3.705601    1.798544   -2.394891
     43          1           0        3.142449    2.700865   -2.687914
     44          1           0        3.325130    0.954808   -2.981240
     45          8           0        4.811593    3.252373   -0.069257
     46          6           0        5.188331    2.013784   -2.703341
     47          1           0        5.553595    2.845112   -2.093695
     48          1           0        5.758343    1.125212   -2.397950
     49          6           0        5.415610    2.278334   -4.189723
     50          1           0        6.472583    2.423093   -4.435067
     51          1           0        4.904732    3.188941   -4.513671
     52          7           0        4.865617    1.191274   -5.033957
     53          1           0        3.858438    1.210416   -5.166354
     54          7           0        6.719727   -0.220143   -4.964290
     55          1           0        7.078915   -1.143790   -4.773728
     56          1           0        7.322572    0.556905   -4.739272
     57          7           0        4.617022   -1.069537   -5.440020
     58          1           0        5.012029   -1.941211   -5.758804
     59          1           0        3.606383   -0.962164   -5.400509
     60          6           0        5.399284   -0.025844   -5.129439
     61          8           0        2.700343    3.032406    0.763649
     62          1           0        1.051796    1.662169   -3.463256
 ---------------------------------------------------------------------

 SCF Done:  E(RB3LYP) =  -1447.48449354     A.U. after    3 cycles

 Alpha  occ. eigenvalues --  -19.33733 -19.28721 -19.27175 -19.20344 -19.10940
 Alpha  occ. eigenvalues --  -19.09828 -14.61092 -14.51035 -14.50300 -14.49842
 Alpha  occ. eigenvalues --  -14.49294 -14.41920 -10.47168 -10.46858 -10.43850
 Alpha  occ. eigenvalues --  -10.42299 -10.36823 -10.36787 -10.35461 -10.33522
 Alpha  occ. eigenvalues --  -10.32681 -10.28849 -10.26752 -10.26687 -10.26084
 Alpha  occ. eigenvalues --  -10.26025 -10.24995 -10.22800 -10.22549  -1.24946
 Alpha  occ. eigenvalues --   -1.19950  -1.16061  -1.15400  -1.14725  -1.11707
 Alpha  occ. eigenvalues --   -1.06067  -1.04505  -1.04176  -1.03747  -0.99069
 Alpha  occ. eigenvalues --   -0.96800  -0.95305  -0.90211  -0.88512  -0.87986
 Alpha  occ. eigenvalues --   -0.83990  -0.82376  -0.80763  -0.78060  -0.76136
 Alpha  occ. eigenvalues --   -0.75077  -0.74939  -0.74119  -0.73672  -0.73247
 Alpha  occ. eigenvalues --   -0.72766  -0.71049  -0.69885  -0.67614  -0.66735
 Alpha  occ. eigenvalues --   -0.65559  -0.65142  -0.63984  -0.63489  -0.62965
 Alpha  occ. eigenvalues --   -0.62437  -0.61680  -0.61529  -0.59831  -0.59390
 Alpha  occ. eigenvalues --   -0.58041  -0.57586  -0.56661  -0.55850  -0.55206
 Alpha  occ. eigenvalues --   -0.54913  -0.54258  -0.53563  -0.52981  -0.52744
 Alpha  occ. eigenvalues --   -0.52464  -0.51702  -0.51371  -0.50712  -0.50009
 Alpha  occ. eigenvalues --   -0.49271  -0.48653  -0.47568  -0.46540  -0.46008
 Alpha  occ. eigenvalues --   -0.44906  -0.44190  -0.43890  -0.43189  -0.42718
 Alpha  occ. eigenvalues --   -0.42562  -0.42119  -0.42057  -0.41739  -0.41519
 Alpha  occ. eigenvalues --   -0.40602  -0.40065  -0.38873  -0.38832  -0.38499
 Alpha  occ. eigenvalues --   -0.38342  -0.37679  -0.34600  -0.33039  -0.26059
 Alpha  occ. eigenvalues --   -0.25854  -0.24028
 Alpha virt. eigenvalues --   -0.13692  -0.13102  -0.12028  -0.11217  -0.07975
 Alpha virt. eigenvalues --   -0.06874  -0.06393  -0.05931  -0.04682  -0.03552
 Alpha virt. eigenvalues --   -0.02120  -0.01970  -0.01672  -0.00870  -0.00785

 Mulliken charges:
               1
     1  N   -0.756697
     2  H    0.419684
     3  H    0.437911
     4  H    0.410631
     5  C   -0.125935
     6  H    0.214183
     7  C    0.660761
     8  C   -0.293630
     9  H    0.211213
    10  H    0.179483
    11  O   -0.539682
    12  C   -0.392306
    13  H    0.217689
    14  H    0.206140
    15  C    0.650730
    16  O   -0.493930
    17  O   -0.550446
    18  N   -0.582345
    19  H    0.359741
    20  C   -0.097037
    21  H    0.197223
    22  C    0.621443
    23  C   -0.249663
    24  H    0.143739
    25  H    0.144940
    26  O   -0.613785
    27  C   -0.096943
    28  H    0.163996
    29  C   -0.449366
    30  H    0.132166
    31  H    0.179714
    32  H    0.150226
    33  C   -0.447436
    34  H    0.139118
    35  H    0.141544
    36  H    0.166206
    37  N   -0.635665
    38  H    0.396912
    39  C   -0.060545
    40  H    0.153734
    41  C    0.595736
    42  C   -0.301441
    43  H    0.123198
    44  H    0.131656
    45  O   -0.568046
    46  C   -0.268265
    47  H    0.237930
    48  H    0.130300
    49  C   -0.199694
    50  H    0.166685
    51  H    0.190941
    52  N   -0.586968
    53  H    0.382113
    54  N   -0.749958
    55  H    0.377384
    56  H    0.388359
    57  N   -0.784948
    58  H    0.367702
    59  H    0.404461
    60  C    0.804975
    61  O   -0.604805
    62  H    0.448969
 Sum of Mulliken charges =   1.00000

 Dipole moment (field-independent basis, Debye):
    X=             -1.9157    Y=            -13.2638    Z=            -30.2250  Tot=             33.0629
 Quadrupole moment (field-independent basis, Debye-Ang):
   XX=            -56.1118   YY=           -176.3824   ZZ=            -35.9579
   XY=            -12.3460   XZ=            -47.5239   YZ=             17.4988

 Normal termination of Gaussian 16 at Thu Jun 23 05:43:26 2022.
