 Gaussian 16, Revision C.01,
 Gaussian 16:  ES64L-G16RevC.01  3-Jul-2019

 ----------------------------------------------------------------------
 # B3LYP/6-31G* empiricaldispersion=gd3bj guess=read geom=check nosymm
 integral(ultrafinegrid)
 ----------------------------------------------------------------------

 ------------------------------------------------------
 Candidate Structure: Conf:966 Charge calc in gas phase
 ------------------------------------------------------
 Structure from the checkpoint file:  "conf-966.chk"
 Charge =  1 Multiplicity = 1

                          Input orientation:
 ---------------------------------------------------------------------
 Center     Atomic      Atomic             Coordinates (Angstroms)
 Number     Number       Type             X           Y           Z
 ---------------------------------------------------------------------
      1          7           0       -4.339279   -1.933289   -2.892367
      2          1           0       -4.523601   -1.380052   -2.016907
      3          1           0       -4.565883   -1.325955   -3.685852
      4          1           0       -4.872904   -2.809407   -2.977486
      5          6           0       -2.860583   -2.220407   -2.804959
      6          1           0       -2.787719   -3.148081   -2.229566
      7          6           0       -2.330044   -1.067611   -1.911764
      8          6           0       -2.216212   -2.397017   -4.180192
      9          1           0       -1.203900   -2.782305   -4.023845
     10          1           0       -2.108945   -1.424161   -4.673635
     11          8           0       -3.171831   -0.451925   -1.240079
     12          6           0       -2.973079   -3.358223   -5.126816
     13          1           0       -3.909644   -2.907423   -5.473289
     14          1           0       -2.351889   -3.545799   -6.004595
     15          6           0       -3.277183   -4.696819   -4.485594
     16          8           0       -2.617799   -5.696497   -4.563046
     17          8           0       -4.431168   -4.634634   -3.730130
     18          7           0       -1.020271   -0.884365   -1.918487
     19          1           0       -0.416804   -1.291990   -2.641395
     20          6           0       -0.294120    0.173939   -1.217759
     21          1           0       -0.943183    1.048912   -1.124022
     22          6           0        0.898313    0.476201   -2.156832
     23          6           0        0.215974   -0.280302    0.163434
     24          1           0        0.880666    0.501563    0.552218
     25          1           0        0.842751   -1.168069    0.008142
     26          8           0        1.130850   -0.285673   -3.107253
     27          6           0       -0.866419   -0.580375    1.213653
     28          1           0       -1.553502   -1.331806    0.799185
     29          6           0       -0.207221   -1.180231    2.462605
     30          1           0        0.493205   -0.466898    2.913738
     31          1           0       -0.958606   -1.431561    3.218756
     32          1           0        0.352132   -2.092219    2.224142
     33          6           0       -1.681501    0.667957    1.571963
     34          1           0       -1.025980    1.465001    1.944862
     35          1           0       -2.243787    1.049892    0.714936
     36          1           0       -2.406125    0.439751    2.361008
     37          7           0        1.620640    1.548754   -1.835242
     38          1           0        1.472716    2.059448   -0.959531
     39          6           0        2.950345    1.840039   -2.358687
     40          1           0        3.485259    0.901079   -2.528955
     41          6           0        3.673185    2.669155   -1.268495
     42          6           0        2.926149    2.627735   -3.682879
     43          1           0        2.466603    1.992350   -4.448134
     44          1           0        3.967954    2.794413   -3.973250
     45          8           0        4.877043    2.948073   -1.557888
     46          6           0        2.160375    3.958955   -3.637944
     47          1           0        1.985709    4.298195   -4.669141
     48          1           0        1.164691    3.789409   -3.209136
     49          6           0        2.782375    5.120290   -2.848580
     50          1           0        2.957160    4.855962   -1.807918
     51          1           0        2.074498    5.959890   -2.851725
     52          7           0        4.042997    5.601788   -3.433583
     53          1           0        4.013369    5.861501   -4.411067
     54          7           0        5.450896    5.425796   -1.585624
     55          1           0        6.241390    5.815805   -1.089655
     56          1           0        5.184128    4.384126   -1.378165
     57          7           0        6.004658    6.810512   -3.384102
     58          1           0        6.933979    6.957834   -3.019827
     59          1           0        5.649931    7.501027   -4.029148
     60          6           0        5.166107    5.934116   -2.772170
     61          8           0        2.994392    3.066924   -0.299699
     62          1           0       -4.575563   -5.526839   -3.356882
 ---------------------------------------------------------------------

 SCF Done:  E(RB3LYP) =  -1447.52046128     A.U. after    1 cycles

 Alpha  occ. eigenvalues --  -19.33575 -19.27197 -19.25634 -19.20260 -19.15000
 Alpha  occ. eigenvalues --  -19.14889 -14.59396 -14.48097 -14.47410 -14.46946
 Alpha  occ. eigenvalues --  -14.43525 -14.42610 -10.45354 -10.42685 -10.42485
 Alpha  occ. eigenvalues --  -10.40522 -10.36941 -10.35311 -10.34319 -10.32820
 Alpha  occ. eigenvalues --  -10.32739 -10.30496 -10.27901 -10.26855 -10.26494
 Alpha  occ. eigenvalues --  -10.26303 -10.24943 -10.23809 -10.23763  -1.23600
 Alpha  occ. eigenvalues --   -1.18292  -1.15019  -1.13461  -1.11969  -1.11035
 Alpha  occ. eigenvalues --   -1.08550  -1.04947  -1.00825  -1.00664  -0.99022
 Alpha  occ. eigenvalues --   -0.98082  -0.95591  -0.89974  -0.87812  -0.86867
 Alpha  occ. eigenvalues --   -0.83888  -0.80932  -0.79922  -0.75355  -0.75162
 Alpha  occ. eigenvalues --   -0.74735  -0.74412  -0.73619  -0.72415  -0.71466
 Alpha  occ. eigenvalues --   -0.69742  -0.68596  -0.67614  -0.66021  -0.65279
 Alpha  occ. eigenvalues --   -0.64787  -0.63396  -0.62981  -0.61656  -0.61164
 Alpha  occ. eigenvalues --   -0.61041  -0.59833  -0.59513  -0.58790  -0.57734
 Alpha  occ. eigenvalues --   -0.57518  -0.56073  -0.55466  -0.55396  -0.54641
 Alpha  occ. eigenvalues --   -0.54343  -0.53568  -0.52391  -0.52177  -0.51535
 Alpha  occ. eigenvalues --   -0.51282  -0.50768  -0.50556  -0.50181  -0.49694
 Alpha  occ. eigenvalues --   -0.48894  -0.48330  -0.47565  -0.46784  -0.45956
 Alpha  occ. eigenvalues --   -0.45689  -0.45459  -0.45351  -0.44838  -0.44211
 Alpha  occ. eigenvalues --   -0.43502  -0.42019  -0.41340  -0.40671  -0.40489
 Alpha  occ. eigenvalues --   -0.40134  -0.39795  -0.39647  -0.39442  -0.37898
 Alpha  occ. eigenvalues --   -0.37626  -0.35010  -0.34397  -0.33344  -0.30773
 Alpha  occ. eigenvalues --   -0.29668  -0.29194
 Alpha virt. eigenvalues --   -0.13053  -0.11611  -0.09515  -0.07623  -0.05933
 Alpha virt. eigenvalues --   -0.05712  -0.04126  -0.02941  -0.02345  -0.01798
 Alpha virt. eigenvalues --   -0.00856  -0.00465  -0.00135   0.00097   0.01071

 Mulliken charges:
               1
     1  N   -0.756081
     2  H    0.430199
     3  H    0.405408
     4  H    0.429623
     5  C   -0.126065
     6  H    0.233314
     7  C    0.659180
     8  C   -0.323331
     9  H    0.222297
    10  H    0.197569
    11  O   -0.547497
    12  C   -0.362741
    13  H    0.171986
    14  H    0.230516
    15  C    0.580062
    16  O   -0.396306
    17  O   -0.608556
    18  N   -0.606816
    19  H    0.377353
    20  C   -0.085873
    21  H    0.188498
    22  C    0.622814
    23  C   -0.263381
    24  H    0.172146
    25  H    0.148953
    26  O   -0.562706
    27  C   -0.070338
    28  H    0.114578
    29  C   -0.446697
    30  H    0.157413
    31  H    0.151877
    32  H    0.144246
    33  C   -0.459573
    34  H    0.150133
    35  H    0.156678
    36  H    0.152350
    37  N   -0.609335
    38  H    0.362536
    39  C   -0.046315
    40  H    0.176035
    41  C    0.602205
    42  C   -0.265796
    43  H    0.154164
    44  H    0.164915
    45  O   -0.624978
    46  C   -0.290845
    47  H    0.132151
    48  H    0.154518
    49  C   -0.164892
    50  H    0.230521
    51  H    0.160279
    52  N   -0.589440
    53  H    0.341127
    54  N   -0.755569
    55  H    0.342616
    56  H    0.446284
    57  N   -0.762512
    58  H    0.366465
    59  H    0.361101
    60  C    0.766524
    61  O   -0.572235
    62  H    0.439247
 Sum of Mulliken charges =   1.00000

 Dipole moment (field-independent basis, Debye):
    X=             -6.6733    Y=              4.8984    Z=            -18.6057  Tot=             20.3642
 Quadrupole moment (field-independent basis, Debye-Ang):
   XX=            -53.3877   YY=            -44.7101   ZZ=            -98.1850
   XY=            119.5211   XZ=             15.3065   YZ=            -34.1543

 Normal termination of Gaussian 16 at Thu Jun 23 05:43:01 2022.
