 Gaussian 16, Revision C.01,
 Gaussian 16:  ES64L-G16RevC.01  3-Jul-2019

 ----------------------------------------------------------------------
 # B3LYP/6-31G* empiricaldispersion=gd3bj guess=read geom=check nosymm
 integral(ultrafinegrid)
 ----------------------------------------------------------------------

 ------------------------------------------------------
 Candidate Structure: Conf:746 Charge calc in gas phase
 ------------------------------------------------------
 Structure from the checkpoint file:  "conf-746.chk"
 Charge =  1 Multiplicity = 1

                          Input orientation:
 ---------------------------------------------------------------------
 Center     Atomic      Atomic             Coordinates (Angstroms)
 Number     Number       Type             X           Y           Z
 ---------------------------------------------------------------------
      1          7           0       -1.330878    2.862472   -3.456843
      2          1           0       -1.947769    3.256858   -2.747366
      3          1           0        0.212371    3.516127   -2.751934
      4          1           0       -1.706649    3.096323   -4.373908
      5          6           0       -1.290759    1.394254   -3.274324
      6          1           0       -2.264917    0.925152   -3.491612
      7          6           0       -1.053387    1.206656   -1.754492
      8          6           0       -0.260149    0.878052   -4.315150
      9          1           0        0.652038    1.471171   -4.215954
     10          1           0       -0.695964    1.149899   -5.283429
     11          8           0       -1.312792    2.132817   -0.987533
     12          6           0        0.121085   -0.627197   -4.405539
     13          1           0       -0.673161   -1.289871   -4.050600
     14          1           0        0.295946   -0.868322   -5.458484
     15          6           0        1.415429   -0.911393   -3.669052
     16          8           0        2.496239   -0.428882   -3.980162
     17          8           0        1.252816   -1.703404   -2.610359
     18          7           0       -0.573233    0.022814   -1.300161
     19          1           0       -0.310870   -0.713793   -1.939790
     20          6           0        0.057046   -0.062661    0.029595
     21          1           0       -0.461888    0.653259    0.666117
     22          6           0        1.502833    0.409834   -0.237549
     23          6           0       -0.029096   -1.465456    0.619356
     24          1           0        0.433881   -1.432563    1.614509
     25          1           0        0.581461   -2.151914    0.022504
     26          8           0        2.377676   -0.375565   -0.626224
     27          6           0       -1.463110   -2.011568    0.734496
     28          1           0       -1.873624   -2.092164   -0.282252
     29          6           0       -1.430786   -3.417712    1.345007
     30          1           0       -1.045619   -3.389078    2.371814
     31          1           0       -2.435124   -3.852735    1.378694
     32          1           0       -0.789822   -4.092348    0.765666
     33          6           0       -2.379123   -1.080588    1.539177
     34          1           0       -1.974951   -0.906234    2.544700
     35          1           0       -2.512332   -0.107687    1.052874
     36          1           0       -3.372455   -1.526233    1.656509
     37          7           0        1.664288    1.756070   -0.120318
     38          1           0        0.811084    2.263736    0.095318
     39          6           0        2.653930    2.588988   -0.841719
     40          1           0        2.745577    3.521063   -0.274463
     41          6           0        1.975316    2.908041   -2.190397
     42          6           0        4.015616    1.918197   -1.008305
     43          1           0        3.848241    0.967875   -1.509801
     44          1           0        4.403941    1.667656   -0.016612
     45          8           0        2.336523    2.442508   -3.259341
     46          6           0        5.045911    2.758104   -1.790171
     47          1           0        4.558619    3.538617   -2.383982
     48          1           0        5.737059    3.263447   -1.106680
     49          6           0        5.861784    1.861170   -2.734190
     50          1           0        6.287068    1.014961   -2.187793
     51          1           0        6.715631    2.391683   -3.168415
     52          7           0        5.053779    1.289587   -3.818764
     53          1           0        4.426365    0.529740   -3.567673
     54          7           0        5.272737    3.115606   -5.250365
     55          1           0        5.057225    3.572124   -6.123057
     56          1           0        6.036223    3.491781   -4.712419
     57          7           0        3.739647    1.435740   -5.709701
     58          1           0        3.350695    2.008482   -6.444104
     59          1           0        3.116402    0.739003   -5.291347
     60          6           0        4.676873    1.961829   -4.910144
     61          8           0        0.895217    3.652069   -2.014729
     62          1           0        1.961304   -1.523194   -1.932537
 ---------------------------------------------------------------------

 SCF Done:  E(RB3LYP) =  -1447.56398153     A.U. after    1 cycles

 Alpha  occ. eigenvalues --  -19.30692 -19.27759 -19.26973 -19.24550 -19.23646
 Alpha  occ. eigenvalues --  -19.22356 -14.51513 -14.50070 -14.49278 -14.47502
 Alpha  occ. eigenvalues --  -14.46576 -14.44418 -10.46812 -10.44724 -10.42303
 Alpha  occ. eigenvalues --  -10.40405 -10.39662 -10.35494 -10.34873 -10.34537
 Alpha  occ. eigenvalues --  -10.33193 -10.32046 -10.30958 -10.30377 -10.29145
 Alpha  occ. eigenvalues --  -10.27154 -10.26668 -10.24339 -10.24130  -1.22484
 Alpha  occ. eigenvalues --   -1.19964  -1.15593  -1.15344  -1.14401  -1.13578
 Alpha  occ. eigenvalues --   -1.11314  -1.04962  -1.04128  -1.03605  -1.02929
 Alpha  occ. eigenvalues --   -1.00810  -0.91621  -0.90903  -0.89420  -0.86960
 Alpha  occ. eigenvalues --   -0.84035  -0.81855  -0.80382  -0.77774  -0.76278
 Alpha  occ. eigenvalues --   -0.75356  -0.74189  -0.73691  -0.72691  -0.71152
 Alpha  occ. eigenvalues --   -0.69863  -0.69521  -0.68928  -0.66822  -0.64997
 Alpha  occ. eigenvalues --   -0.64760  -0.63827  -0.63522  -0.62770  -0.61951
 Alpha  occ. eigenvalues --   -0.61418  -0.60572  -0.59712  -0.59585  -0.59428
 Alpha  occ. eigenvalues --   -0.58396  -0.58033  -0.57261  -0.56273  -0.55812
 Alpha  occ. eigenvalues --   -0.55416  -0.54387  -0.54030  -0.53826  -0.53557
 Alpha  occ. eigenvalues --   -0.52630  -0.52271  -0.51411  -0.51072  -0.50158
 Alpha  occ. eigenvalues --   -0.49714  -0.49059  -0.48480  -0.47869  -0.47685
 Alpha  occ. eigenvalues --   -0.46952  -0.46519  -0.46298  -0.46097  -0.45846
 Alpha  occ. eigenvalues --   -0.45335  -0.45147  -0.44204  -0.43565  -0.41876
 Alpha  occ. eigenvalues --   -0.41376  -0.40852  -0.40349  -0.40233  -0.39960
 Alpha  occ. eigenvalues --   -0.39925  -0.39156  -0.38647  -0.37770  -0.36355
 Alpha  occ. eigenvalues --   -0.35575  -0.34418
 Alpha virt. eigenvalues --   -0.12366  -0.11949  -0.10778  -0.09114  -0.07869
 Alpha virt. eigenvalues --   -0.07384  -0.04293  -0.02502  -0.02246  -0.02057
 Alpha virt. eigenvalues --   -0.00509   0.00292   0.00680   0.01200   0.01690

 Mulliken charges:
               1
     1  N   -0.768203
     2  H    0.359723
     3  H    0.455948
     4  H    0.327990
     5  C   -0.087146
     6  H    0.178286
     7  C    0.623476
     8  C   -0.311122
     9  H    0.211792
    10  H    0.158196
    11  O   -0.527917
    12  C   -0.380921
    13  H    0.189266
    14  H    0.197015
    15  C    0.600421
    16  O   -0.485697
    17  O   -0.577944
    18  N   -0.632212
    19  H    0.377454
    20  C   -0.086056
    21  H    0.199206
    22  C    0.638909
    23  C   -0.278159
    24  H    0.157988
    25  H    0.148404
    26  O   -0.570057
    27  C   -0.070628
    28  H    0.125017
    29  C   -0.445566
    30  H    0.150587
    31  H    0.156624
    32  H    0.145258
    33  C   -0.462100
    34  H    0.147802
    35  H    0.155305
    36  H    0.159345
    37  N   -0.601720
    38  H    0.378820
    39  C   -0.045174
    40  H    0.188612
    41  C    0.598409
    42  C   -0.282104
    43  H    0.181115
    44  H    0.175029
    45  O   -0.507429
    46  C   -0.265790
    47  H    0.155596
    48  H    0.170612
    49  C   -0.201783
    50  H    0.201836
    51  H    0.164260
    52  N   -0.584444
    53  H    0.398332
    54  N   -0.764044
    55  H    0.376970
    56  H    0.382585
    57  N   -0.771913
    58  H    0.356271
    59  H    0.415305
    60  C    0.824058
    61  O   -0.586155
    62  H    0.462462
 Sum of Mulliken charges =   1.00000

 Dipole moment (field-independent basis, Debye):
    X=             12.3746    Y=              8.5222    Z=            -18.6519  Tot=             23.9510
 Quadrupole moment (field-independent basis, Debye-Ang):
   XX=            -86.1722   YY=           -139.8031   ZZ=            -65.9218
   XY=             44.5572   XZ=            -51.7049   YZ=            -45.5760

 Normal termination of Gaussian 16 at Thu Jun 23 05:43:04 2022.
