 Gaussian 16, Revision C.01,
 Gaussian 16:  ES64L-G16RevC.01  3-Jul-2019

 ----------------------------------------------------------------------
 # B3LYP/6-31G* empiricaldispersion=gd3bj guess=read geom=check nosymm
 integral(ultrafinegrid)
 ----------------------------------------------------------------------

 ------------------------------------------------------
 Candidate Structure: Conf:497 Charge calc in gas phase
 ------------------------------------------------------
 Structure from the checkpoint file:  "conf-497.chk"
 Charge =  1 Multiplicity = 1

                          Input orientation:
 ---------------------------------------------------------------------
 Center     Atomic      Atomic             Coordinates (Angstroms)
 Number     Number       Type             X           Y           Z
 ---------------------------------------------------------------------
      1          7           0       -4.512153   -1.396844   -2.607006
      2          1           0       -4.922606   -2.300469   -2.360436
      3          1           0       -4.547265   -0.732589   -1.757413
      4          1           0       -5.031963   -1.005443   -3.396320
      5          6           0       -3.016367   -1.449549   -2.843863
      6          1           0       -2.703831   -2.495630   -2.795838
      7          6           0       -2.465245   -0.651026   -1.627942
      8          6           0       -2.634138   -0.813240   -4.180559
      9          1           0       -1.545286   -0.712030   -4.215737
     10          1           0       -3.017489    0.214001   -4.217862
     11          8           0       -3.301561   -0.089061   -0.898280
     12          6           0       -3.102070   -1.609268   -5.399946
     13          1           0       -2.719195   -2.637571   -5.372354
     14          1           0       -4.194752   -1.697009   -5.464885
     15          6           0       -2.612928   -0.960765   -6.684804
     16          8           0       -1.867197   -0.010610   -6.729729
     17          8           0       -3.115699   -1.588439   -7.763004
     18          7           0       -1.153291   -0.638052   -1.495027
     19          1           0       -0.535688   -0.994242   -2.234411
     20          6           0       -0.385480    0.224467   -0.595261
     21          1           0       -0.971465    1.122276   -0.383159
     22          6           0        0.870376    0.578462   -1.424737
     23          6           0        0.011952   -0.491024    0.708152
     24          1           0        0.700810    0.166432    1.253720
     25          1           0        0.586891   -1.385328    0.434325
     26          8           0        1.125445   -0.075073   -2.451303
     27          6           0       -1.151806   -0.878387    1.635604
     28          1           0       -1.862467   -1.488709    1.059432
     29          6           0       -0.618062   -1.737326    2.789454
     30          1           0        0.100736   -1.172033    3.395021
     31          1           0       -1.431959   -2.053514    3.450474
     32          1           0       -0.111325   -2.636980    2.421296
     33          6           0       -1.896543    0.351372    2.169116
     34          1           0       -1.211417    1.014838    2.711338
     35          1           0       -2.372968    0.923810    1.367922
     36          1           0       -2.685176    0.049426    2.866636
     37          7           0        1.611347    1.569831   -0.944522
     38          1           0        1.438381    2.023232   -0.040371
     39          6           0        2.916178    1.954082   -1.460351
     40          1           0        3.536947    1.050929   -1.528796
     41          6           0        3.544716    2.862227   -0.346506
     42          6           0        2.827850    2.604872   -2.871651
     43          1           0        3.147459    3.652933   -2.820499
     44          1           0        1.773985    2.619573   -3.159342
     45          8           0        4.716427    3.307960   -0.602935
     46          6           0        3.614387    1.855174   -3.966230
     47          1           0        3.548796    0.778947   -3.771215
     48          1           0        3.143256    2.025879   -4.941342
     49          6           0        5.086283    2.281692   -4.103808
     50          1           0        5.144432    3.268790   -4.576835
     51          1           0        5.620713    1.578197   -4.750017
     52          7           0        5.740978    2.374790   -2.804376
     53          1           0        5.238057    2.913949   -2.032965
     54          7           0        7.527110    0.887646   -3.116139
     55          1           0        8.243179    0.309268   -2.703628
     56          1           0        7.631236    1.120079   -4.091495
     57          7           0        6.888929    1.594308   -0.985697
     58          1           0        7.807559    1.428105   -0.600507
     59          1           0        6.232761    2.174579   -0.445152
     60          6           0        6.723057    1.635825   -2.323967
     61          8           0        2.874383    3.042955    0.676495
     62          1           0       -2.758723   -1.140681   -8.554316
 ---------------------------------------------------------------------

 SCF Done:  E(RB3LYP) =  -1447.51812438     A.U. after    1 cycles

 Alpha  occ. eigenvalues --  -19.30199 -19.27058 -19.24836 -19.20794 -19.15856
 Alpha  occ. eigenvalues --  -19.15150 -14.59941 -14.48887 -14.47550 -14.45202
 Alpha  occ. eigenvalues --  -14.44527 -14.43132 -10.43471 -10.43302 -10.42464
 Alpha  occ. eigenvalues --  -10.41081 -10.37392 -10.34349 -10.33652 -10.33496
 Alpha  occ. eigenvalues --  -10.33352 -10.31500 -10.29042 -10.27400 -10.26794
 Alpha  occ. eigenvalues --  -10.26522 -10.25911 -10.24300 -10.24095  -1.21294
 Alpha  occ. eigenvalues --   -1.19465  -1.13835  -1.12521  -1.12449  -1.11197
 Alpha  occ. eigenvalues --   -1.08856  -1.05822  -1.01453  -1.00403  -0.99257
 Alpha  occ. eigenvalues --   -0.99091  -0.95309  -0.90302  -0.87897  -0.87202
 Alpha  occ. eigenvalues --   -0.84384  -0.81173  -0.79358  -0.75875  -0.75344
 Alpha  occ. eigenvalues --   -0.75097  -0.74341  -0.73104  -0.72827  -0.70928
 Alpha  occ. eigenvalues --   -0.70259  -0.68513  -0.68042  -0.66624  -0.65226
 Alpha  occ. eigenvalues --   -0.64179  -0.64007  -0.63313  -0.61481  -0.60685
 Alpha  occ. eigenvalues --   -0.60213  -0.59863  -0.59301  -0.58903  -0.58509
 Alpha  occ. eigenvalues --   -0.57057  -0.56385  -0.56023  -0.55468  -0.54239
 Alpha  occ. eigenvalues --   -0.53749  -0.53465  -0.52638  -0.52339  -0.51779
 Alpha  occ. eigenvalues --   -0.51193  -0.50921  -0.50327  -0.50152  -0.49239
 Alpha  occ. eigenvalues --   -0.49021  -0.48465  -0.48260  -0.47299  -0.46463
 Alpha  occ. eigenvalues --   -0.46254  -0.45780  -0.45329  -0.44133  -0.43298
 Alpha  occ. eigenvalues --   -0.42592  -0.42489  -0.42156  -0.41799  -0.41054
 Alpha  occ. eigenvalues --   -0.40855  -0.40324  -0.40121  -0.38546  -0.38472
 Alpha  occ. eigenvalues --   -0.38171  -0.35010  -0.34848  -0.33563  -0.31324
 Alpha  occ. eigenvalues --   -0.30320  -0.29457
 Alpha virt. eigenvalues --   -0.12184  -0.11802  -0.09723  -0.07128  -0.06699
 Alpha virt. eigenvalues --   -0.06195  -0.04335  -0.03758  -0.02126  -0.01472
 Alpha virt. eigenvalues --   -0.01029  -0.00889   0.00063   0.00398   0.01155

 Mulliken charges:
               1
     1  N   -0.762706
     2  H    0.415094
     3  H    0.438646
     4  H    0.410546
     5  C   -0.111882
     6  H    0.216208
     7  C    0.654893
     8  C   -0.306872
     9  H    0.228951
    10  H    0.192435
    11  O   -0.545702
    12  C   -0.377101
    13  H    0.203474
    14  H    0.168934
    15  C    0.597486
    16  O   -0.437154
    17  O   -0.556926
    18  N   -0.588606
    19  H    0.372999
    20  C   -0.091710
    21  H    0.195549
    22  C    0.632581
    23  C   -0.260086
    24  H    0.171226
    25  H    0.145959
    26  O   -0.573495
    27  C   -0.070164
    28  H    0.111656
    29  C   -0.446332
    30  H    0.157281
    31  H    0.153557
    32  H    0.142191
    33  C   -0.460720
    34  H    0.154461
    35  H    0.158206
    36  H    0.153298
    37  N   -0.622124
    38  H    0.368924
    39  C   -0.052563
    40  H    0.158717
    41  C    0.609274
    42  C   -0.294679
    43  H    0.167736
    44  H    0.164002
    45  O   -0.633448
    46  C   -0.271532
    47  H    0.168210
    48  H    0.152694
    49  C   -0.158506
    50  H    0.179749
    51  H    0.145784
    52  N   -0.615299
    53  H    0.429979
    54  N   -0.757100
    55  H    0.365457
    56  H    0.369655
    57  N   -0.778921
    58  H    0.350115
    59  H    0.410469
    60  C    0.760513
    61  O   -0.534963
    62  H    0.431684
 Sum of Mulliken charges =   1.00000

 Dipole moment (field-independent basis, Debye):
    X=             -2.0682    Y=             -8.0962    Z=            -18.9773  Tot=             20.7355
 Quadrupole moment (field-independent basis, Debye-Ang):
   XX=             14.2337   YY=           -172.4837   ZZ=            -89.3619
   XY=             28.5298   XZ=              1.0618   YZ=              5.7557

 Normal termination of Gaussian 16 at Thu Jun 23 05:42:58 2022.
