 Gaussian 16, Revision C.01,
 Gaussian 16:  ES64L-G16RevC.01  3-Jul-2019

 ----------------------------------------------------------------------
 # B3LYP/6-31G* empiricaldispersion=gd3bj guess=read geom=check nosymm
 integral(ultrafinegrid)
 ----------------------------------------------------------------------

 -----------------------------------------------------
 Candidate Structure: Conf:34 Charge calc in gas phase
 -----------------------------------------------------
 Structure from the checkpoint file:  "conf-34.chk"
 Charge =  1 Multiplicity = 1

                          Input orientation:
 ---------------------------------------------------------------------
 Center     Atomic      Atomic             Coordinates (Angstroms)
 Number     Number       Type             X           Y           Z
 ---------------------------------------------------------------------
      1          7           0       -3.688523   -1.470416   -3.398375
      2          1           0       -4.219143   -2.285249   -3.081603
      3          1           0       -3.858898   -0.641088   -2.729806
      4          1           0       -3.979950   -1.238041   -4.350956
      5          6           0       -2.188584   -1.625896   -3.252564
      6          1           0       -1.983118   -2.653338   -2.942060
      7          6           0       -1.868098   -0.629199   -2.104014
      8          6           0       -1.458852   -1.273285   -4.549386
      9          1           0       -0.390314   -1.189262   -4.327989
     10          1           0       -1.761466   -0.272294   -4.879683
     11          8           0       -2.793730    0.108908   -1.721408
     12          6           0       -1.664027   -2.293380   -5.670485
     13          1           0       -1.278671   -3.280339   -5.388181
     14          1           0       -2.723516   -2.446565   -5.920364
     15          6           0       -0.960623   -1.845125   -6.940968
     16          8           0       -0.387889   -0.788247   -7.068762
     17          8           0       -1.067311   -2.776406   -7.905637
     18          7           0       -0.633830   -0.666403   -1.643225
     19          1           0        0.106869   -1.190421   -2.127390
     20          6           0       -0.022607    0.312338   -0.744828
     21          1           0       -0.538850    1.269026   -0.874567
     22          6           0        1.434880    0.399936   -1.266734
     23          6           0       -0.049239   -0.091818    0.740957
     24          1           0        0.495207    0.692748    1.278860
     25          1           0        0.536850   -1.011208    0.870020
     26          8           0        1.834281   -0.443593   -2.085586
     27          6           0       -1.451843   -0.259989    1.367127
     28          1           0       -2.137055    0.436461    0.866158
     29          6           0       -1.999121   -1.684570    1.195046
     30          1           0       -1.367778   -2.404035    1.730832
     31          1           0       -3.012172   -1.762420    1.604514
     32          1           0       -2.033706   -1.997908    0.147138
     33          6           0       -1.405382    0.101663    2.858173
     34          1           0       -0.695054   -0.540468    3.393604
     35          1           0       -1.094324    1.141526    3.006553
     36          1           0       -2.387889   -0.027203    3.325160
     37          7           0        2.172279    1.379261   -0.754061
     38          1           0        1.819446    2.040152   -0.059397
     39          6           0        3.604654    1.554484   -0.959094
     40          1           0        4.092726    0.577847   -0.982086
     41          6           0        4.115840    2.367920    0.252991
     42          6           0        3.883613    2.305987   -2.288071
     43          1           0        3.110261    3.076507   -2.406638
     44          1           0        3.745973    1.596390   -3.109660
     45          8           0        5.367578    2.259412    0.461682
     46          6           0        5.277898    2.957857   -2.365691
     47          1           0        6.003384    2.343471   -1.827800
     48          1           0        5.599210    3.024583   -3.412498
     49          6           0        5.265241    4.370714   -1.755076
     50          1           0        4.684442    4.408868   -0.833464
     51          1           0        4.790145    5.071120   -2.452113
     52          7           0        6.599061    4.901898   -1.455346
     53          1           0        7.206775    5.098245   -2.239416
     54          7           0        6.628737    4.451333    0.833712
     55          1           0        6.994944    4.720063    1.737107
     56          1           0        6.014753    3.539409    0.780970
     57          7           0        8.305487    5.742900   -0.160066
     58          1           0        8.796777    5.790678    0.720375
     59          1           0        8.435868    6.527783   -0.782508
     60          6           0        7.155094    5.013916   -0.235868
     61          8           0        3.295082    3.105025    0.829904
     62          1           0       -0.599940   -2.435465   -8.692637
 ---------------------------------------------------------------------

 SCF Done:  E(RB3LYP) =  -1447.51303559     A.U. after    1 cycles

 Alpha  occ. eigenvalues --  -19.29706 -19.26599 -19.24350 -19.20153 -19.15103
 Alpha  occ. eigenvalues --  -19.14686 -14.59539 -14.48295 -14.46866 -14.46694
 Alpha  occ. eigenvalues --  -14.43520 -14.42958 -10.42925 -10.42811 -10.42201
 Alpha  occ. eigenvalues --  -10.40572 -10.36973 -10.33837 -10.33134 -10.33079
 Alpha  occ. eigenvalues --  -10.32666 -10.30229 -10.28006 -10.27081 -10.26565
 Alpha  occ. eigenvalues --  -10.25328 -10.25292 -10.25118 -10.23950  -1.20808
 Alpha  occ. eigenvalues --   -1.18998  -1.13415  -1.12028  -1.11949  -1.10756
 Alpha  occ. eigenvalues --   -1.08457  -1.05319  -1.00638  -1.00486  -0.99112
 Alpha  occ. eigenvalues --   -0.97879  -0.94814  -0.89841  -0.87519  -0.86648
 Alpha  occ. eigenvalues --   -0.84130  -0.80689  -0.78906  -0.75714  -0.75250
 Alpha  occ. eigenvalues --   -0.74753  -0.73889  -0.72486  -0.71842  -0.70426
 Alpha  occ. eigenvalues --   -0.69718  -0.68215  -0.67226  -0.65993  -0.64924
 Alpha  occ. eigenvalues --   -0.64626  -0.64062  -0.63167  -0.60976  -0.60728
 Alpha  occ. eigenvalues --   -0.59717  -0.59513  -0.58652  -0.58154  -0.57863
 Alpha  occ. eigenvalues --   -0.56578  -0.55963  -0.54934  -0.54599  -0.53783
 Alpha  occ. eigenvalues --   -0.53105  -0.52870  -0.52382  -0.51646  -0.51183
 Alpha  occ. eigenvalues --   -0.51074  -0.50325  -0.49637  -0.49107  -0.48743
 Alpha  occ. eigenvalues --   -0.48677  -0.48489  -0.48187  -0.46802  -0.46110
 Alpha  occ. eigenvalues --   -0.45476  -0.44816  -0.44604  -0.43787  -0.43475
 Alpha  occ. eigenvalues --   -0.42524  -0.42003  -0.41835  -0.41202  -0.41020
 Alpha  occ. eigenvalues --   -0.40527  -0.39829  -0.39731  -0.38060  -0.37696
 Alpha  occ. eigenvalues --   -0.37464  -0.34930  -0.34388  -0.33330  -0.30738
 Alpha  occ. eigenvalues --   -0.29518  -0.28965
 Alpha virt. eigenvalues --   -0.11732  -0.11448  -0.09250  -0.07031  -0.06331
 Alpha virt. eigenvalues --   -0.05616  -0.03943  -0.03720  -0.01620  -0.01018
 Alpha virt. eigenvalues --   -0.00587  -0.00480   0.00410   0.00656   0.01122

 Mulliken charges:
               1
     1  N   -0.762439
     2  H    0.415034
     3  H    0.437387
     4  H    0.409924
     5  C   -0.111644
     6  H    0.217575
     7  C    0.651974
     8  C   -0.307145
     9  H    0.227025
    10  H    0.195269
    11  O   -0.547569
    12  C   -0.375869
    13  H    0.205966
    14  H    0.166477
    15  C    0.596604
    16  O   -0.438107
    17  O   -0.556714
    18  N   -0.586106
    19  H    0.375083
    20  C   -0.088356
    21  H    0.189504
    22  C    0.633495
    23  C   -0.266948
    24  H    0.169958
    25  H    0.154851
    26  O   -0.567060
    27  C   -0.078936
    28  H    0.147591
    29  C   -0.440291
    30  H    0.154877
    31  H    0.152035
    32  H    0.104577
    33  C   -0.451175
    34  H    0.152495
    35  H    0.154882
    36  H    0.152483
    37  N   -0.612115
    38  H    0.359602
    39  C   -0.021028
    40  H    0.175714
    41  C    0.587820
    42  C   -0.282812
    43  H    0.140145
    44  H    0.165986
    45  O   -0.625142
    46  C   -0.270771
    47  H    0.187184
    48  H    0.133474
    49  C   -0.176814
    50  H    0.217338
    51  H    0.162624
    52  N   -0.596453
    53  H    0.346626
    54  N   -0.766038
    55  H    0.343772
    56  H    0.454681
    57  N   -0.762651
    58  H    0.362550
    59  H    0.360547
    60  C    0.769418
    61  O   -0.571601
    62  H    0.431236
 Sum of Mulliken charges =   1.00000

 Dipole moment (field-independent basis, Debye):
    X=              1.8507    Y=              3.4848    Z=            -15.4047  Tot=             15.9020
 Quadrupole moment (field-independent basis, Debye-Ang):
   XX=             -8.2460   YY=            -84.6882   ZZ=            -93.8826
   XY=            121.9399   XZ=             31.9890   YZ=             20.2249

 Normal termination of Gaussian 16 at Thu Jun 23 05:42:57 2022.
