 Gaussian 16, Revision C.01,
 Gaussian 16:  ES64L-G16RevC.01  3-Jul-2019

 ----------------------------------------------------------------------
 # B3LYP/6-31G* empiricaldispersion=gd3bj guess=read geom=check nosymm
 integral(ultrafinegrid)
 ----------------------------------------------------------------------

 ------------------------------------------------------
 Candidate Structure: Conf:197 Charge calc in gas phase
 ------------------------------------------------------
 Structure from the checkpoint file:  "conf-197.chk"
 Charge =  1 Multiplicity = 1

                          Input orientation:
 ---------------------------------------------------------------------
 Center     Atomic      Atomic             Coordinates (Angstroms)
 Number     Number       Type             X           Y           Z
 ---------------------------------------------------------------------
      1          7           0       -4.356190   -2.434699   -2.844180
      2          1           0       -4.810826   -3.141326   -2.261025
      3          1           0       -4.503173   -1.457557   -2.415954
      4          1           0       -4.753554   -2.484677   -3.785991
      5          6           0       -2.843701   -2.514340   -2.828645
      6          1           0       -2.556813   -3.405658   -2.265434
      7          6           0       -2.453078   -1.221087   -2.057604
      8          6           0       -2.270146   -2.548118   -4.247010
      9          1           0       -1.183424   -2.441965   -4.180149
     10          1           0       -2.628575   -1.665847   -4.794384
     11          8           0       -3.371263   -0.426235   -1.788811
     12          6           0       -2.609449   -3.838799   -5.009686
     13          1           0       -2.177971   -4.699742   -4.484582
     14          1           0       -3.687742   -4.003478   -5.100159
     15          6           0       -2.065231   -3.815004   -6.428491
     16          8           0       -2.734505   -3.924476   -7.425830
     17          8           0       -0.725647   -3.641681   -6.424823
     18          7           0       -1.172237   -1.091266   -1.772331
     19          1           0       -0.466217   -1.713271   -2.185567
     20          6           0       -0.514471    0.108758   -1.254013
     21          1           0       -1.089293    0.986870   -1.560486
     22          6           0        0.865064    0.089091   -1.957378
     23          6           0       -0.346200    0.070393    0.275789
     24          1           0        0.282990    0.920995    0.566603
     25          1           0        0.223758   -0.834117    0.524666
     26          8           0        1.211162   -0.923088   -2.587688
     27          6           0       -1.649174    0.110750    1.091392
     28          1           0       -2.292477   -0.715402    0.755606
     29          6           0       -1.326593   -0.113984    2.574478
     30          1           0       -0.681030    0.685502    2.957844
     31          1           0       -2.241129   -0.119766    3.176962
     32          1           0       -0.809093   -1.066877    2.734303
     33          6           0       -2.412942    1.425397    0.891598
     34          1           0       -1.787580    2.282994    1.169669
     35          1           0       -2.743575    1.556493   -0.142948
     36          1           0       -3.306761    1.449768    1.524144
     37          7           0        1.604702    1.181570   -1.792603
     38          1           0        1.311366    1.972654   -1.214639
     39          6           0        3.009477    1.311653   -2.168934
     40          1           0        3.511940    0.352411   -2.016779
     41          6           0        3.581909    2.381854   -1.194011
     42          6           0        3.105515    1.714260   -3.665052
     43          1           0        2.733616    2.742170   -3.769701
     44          1           0        2.391076    1.070470   -4.187217
     45          8           0        4.847984    2.378768   -1.034586
     46          6           0        4.479509    1.558112   -4.359289
     47          1           0        5.105420    0.843766   -3.809883
     48          1           0        4.328421    1.121145   -5.352556
     49          6           0        5.276179    2.853556   -4.571939
     50          1           0        4.653156    3.597776   -5.083231
     51          1           0        6.145550    2.647873   -5.209006
     52          7           0        5.713991    3.382520   -3.282037
     53          1           0        5.596696    2.733011   -2.475842
     54          7           0        5.656108    5.652420   -3.822343
     55          1           0        5.686543    6.612876   -3.512574
     56          1           0        6.064039    5.471837   -4.728092
     57          7           0        5.591761    4.924437   -1.594800
     58          1           0        5.569042    5.873016   -1.253039
     59          1           0        5.296913    4.134628   -0.985883
     60          6           0        5.657923    4.657487   -2.900576
     61          8           0        2.764539    3.171176   -0.689833
     62          1           0       -0.431161   -3.638015   -7.356004
 ---------------------------------------------------------------------

 SCF Done:  E(RB3LYP) =  -1447.51882916     A.U. after    1 cycles

 Alpha  occ. eigenvalues --  -19.30044 -19.27077 -19.24377 -19.20792 -19.15969
 Alpha  occ. eigenvalues --  -19.15489 -14.59994 -14.48904 -14.47566 -14.44869
 Alpha  occ. eigenvalues --  -14.44476 -14.43388 -10.43519 -10.42902 -10.42280
 Alpha  occ. eigenvalues --  -10.41153 -10.37551 -10.34858 -10.33589 -10.33483
 Alpha  occ. eigenvalues --  -10.33334 -10.31563 -10.29080 -10.27410 -10.27247
 Alpha  occ. eigenvalues --  -10.26832 -10.26418 -10.24270 -10.24260  -1.20943
 Alpha  occ. eigenvalues --   -1.19475  -1.13904  -1.12549  -1.12120  -1.11207
 Alpha  occ. eigenvalues --   -1.09127  -1.05863  -1.01479  -1.00413  -0.99361
 Alpha  occ. eigenvalues --   -0.99020  -0.95435  -0.90335  -0.87837  -0.87407
 Alpha  occ. eigenvalues --   -0.84451  -0.81356  -0.78921  -0.75789  -0.75404
 Alpha  occ. eigenvalues --   -0.75108  -0.74347  -0.72915  -0.72807  -0.71734
 Alpha  occ. eigenvalues --   -0.70335  -0.68832  -0.67516  -0.66669  -0.65497
 Alpha  occ. eigenvalues --   -0.64900  -0.64304  -0.63471  -0.61046  -0.60120
 Alpha  occ. eigenvalues --   -0.59717  -0.59612  -0.58964  -0.58790  -0.57650
 Alpha  occ. eigenvalues --   -0.56888  -0.56290  -0.56255  -0.55425  -0.54703
 Alpha  occ. eigenvalues --   -0.54052  -0.53864  -0.52563  -0.52270  -0.51813
 Alpha  occ. eigenvalues --   -0.51014  -0.50947  -0.50798  -0.50006  -0.49383
 Alpha  occ. eigenvalues --   -0.49058  -0.48696  -0.48099  -0.47697  -0.46843
 Alpha  occ. eigenvalues --   -0.46535  -0.45678  -0.45373  -0.44203  -0.43705
 Alpha  occ. eigenvalues --   -0.43091  -0.42228  -0.42122  -0.41818  -0.41350
 Alpha  occ. eigenvalues --   -0.40952  -0.40398  -0.40170  -0.38484  -0.38180
 Alpha  occ. eigenvalues --   -0.37846  -0.35136  -0.34880  -0.33984  -0.31245
 Alpha  occ. eigenvalues --   -0.30399  -0.29858
 Alpha virt. eigenvalues --   -0.12530  -0.11471  -0.09380  -0.06940  -0.06798
 Alpha virt. eigenvalues --   -0.06200  -0.04187  -0.03526  -0.02375  -0.01723
 Alpha virt. eigenvalues --   -0.01331  -0.01117   0.00407   0.00918   0.01268

 Mulliken charges:
               1
     1  N   -0.762861
     2  H    0.416533
     3  H    0.437900
     4  H    0.413817
     5  C   -0.108031
     6  H    0.219848
     7  C    0.652732
     8  C   -0.322634
     9  H    0.234891
    10  H    0.186049
    11  O   -0.546226
    12  C   -0.358032
    13  H    0.199963
    14  H    0.164857
    15  C    0.576785
    16  O   -0.425631
    17  O   -0.553528
    18  N   -0.589531
    19  H    0.375499
    20  C   -0.091734
    21  H    0.192241
    22  C    0.635027
    23  C   -0.260451
    24  H    0.170597
    25  H    0.150168
    26  O   -0.570188
    27  C   -0.070422
    28  H    0.112274
    29  C   -0.446606
    30  H    0.157497
    31  H    0.152997
    32  H    0.145025
    33  C   -0.460046
    34  H    0.151335
    35  H    0.156451
    36  H    0.153718
    37  N   -0.611215
    38  H    0.364617
    39  C   -0.049284
    40  H    0.173402
    41  C    0.596926
    42  C   -0.269900
    43  H    0.145708
    44  H    0.163422
    45  O   -0.637192
    46  C   -0.305373
    47  H    0.174133
    48  H    0.158775
    49  C   -0.148066
    50  H    0.161220
    51  H    0.168275
    52  N   -0.606462
    53  H    0.407617
    54  N   -0.753727
    55  H    0.363572
    56  H    0.369993
    57  N   -0.765080
    58  H    0.350937
    59  H    0.418724
    60  C    0.765583
    61  O   -0.558523
    62  H    0.431634
 Sum of Mulliken charges =   1.00000

 Dipole moment (field-independent basis, Debye):
    X=             -3.3118    Y=             -0.2045    Z=            -17.9346  Tot=             18.2390
 Quadrupole moment (field-independent basis, Debye-Ang):
   XX=            -62.5552   YY=            -75.9263   ZZ=           -100.1659
   XY=             98.8675   XZ=            -22.4400   YZ=            -15.5411

 Normal termination of Gaussian 16 at Thu Jun 23 05:42:58 2022.
