 Gaussian 16, Revision C.01,
 Gaussian 16:  ES64L-G16RevC.01  3-Jul-2019

 ----------------------------------------------------------------------
 # B3LYP/6-31G* empiricaldispersion=gd3bj guess=read geom=check nosymm
 integral(ultrafinegrid)
 ----------------------------------------------------------------------

 ------------------------------------------------------
 Candidate Structure: Conf:962 Charge calc in gas phase
 ------------------------------------------------------
 Structure from the checkpoint file:  "conf-962.chk"
 Charge =  1 Multiplicity = 1

                          Input orientation:
 ---------------------------------------------------------------------
 Center     Atomic      Atomic             Coordinates (Angstroms)
 Number     Number       Type             X           Y           Z
 ---------------------------------------------------------------------
      1          7           0       -3.313810   -0.342594   -3.792076
      2          1           0       -4.230560   -0.575522   -3.399795
      3          1           0       -3.057200    0.648718   -3.492382
      4          1           0       -3.357412   -0.432461   -4.810399
      5          6           0       -2.183934   -1.131302   -3.160131
      6          1           0       -2.574901   -2.061494   -2.751509
      7          6           0       -1.694487   -0.156758   -2.063058
      8          6           0       -1.114597   -1.387036   -4.239467
      9          1           0       -0.871630   -0.427261   -4.711490
     10          1           0       -1.555590   -2.036850   -5.006643
     11          8           0       -1.953673    1.046381   -2.226170
     12          6           0        0.212282   -1.990545   -3.742919
     13          1           0        0.860912   -2.165561   -4.603479
     14          1           0        0.715595   -1.265763   -3.083439
     15          6           0        0.041904   -3.270073   -2.965479
     16          8           0       -0.717942   -3.402517   -2.013534
     17          8           0        0.827909   -4.259153   -3.396268
     18          7           0       -1.030056   -0.688667   -1.046959
     19          1           0       -0.849760   -1.691954   -1.086978
     20          6           0       -0.243037    0.135981   -0.131870
     21          1           0       -0.910067    0.876734    0.315871
     22          6           0        0.860914    0.855449   -0.935226
     23          6           0        0.359504   -0.781935    0.947672
     24          1           0        1.043432   -1.481209    0.446634
     25          1           0       -0.458727   -1.381176    1.370587
     26          8           0        1.324056    0.368026   -1.976230
     27          6           0        1.100708   -0.075861    2.097948
     28          1           0        1.905712    0.539592    1.679936
     29          6           0        0.178995    0.845038    2.907428
     30          1           0       -0.651837    0.277947    3.346689
     31          1           0        0.736295    1.319847    3.719806
     32          1           0       -0.246869    1.656346    2.307223
     33          6           0        1.741240   -1.131623    3.007935
     34          1           0        0.977691   -1.772629    3.466504
     35          1           0        2.431647   -1.776058    2.451137
     36          1           0        2.303881   -0.653665    3.816135
     37          7           0        1.282731    1.997798   -0.390048
     38          1           0        0.991363    2.297689    0.544028
     39          6           0        2.502237    2.681398   -0.785999
     40          1           0        3.275354    1.920805   -0.957969
     41          6           0        2.947987    3.502961    0.472014
     42          6           0        2.319816    3.500718   -2.096447
     43          1           0        2.436339    4.572064   -1.891398
     44          1           0        1.285389    3.360223   -2.419965
     45          8           0        4.006406    4.206609    0.319506
     46          6           0        3.251105    3.067555   -3.247482
     47          1           0        3.382836    1.980627   -3.199347
     48          1           0        2.774495    3.284957   -4.210929
     49          6           0        4.621045    3.768663   -3.265585
     50          1           0        4.503342    4.803196   -3.608995
     51          1           0        5.289933    3.263885   -3.970073
     52          7           0        5.219483    3.805578   -1.937432
     53          1           0        4.605266    4.118662   -1.119841
     54          7           0        7.292555    2.800805   -2.376430
     55          1           0        8.119184    2.350117   -2.014094
     56          1           0        7.356317    3.192580   -3.303186
     57          7           0        6.498026    3.053020   -0.196017
     58          1           0        7.428261    3.041962    0.197040
     59          1           0        5.728343    3.401924    0.391462
     60          6           0        6.337055    3.241356   -1.522659
     61          8           0        2.270090    3.376441    1.499063
     62          1           0        0.689018   -5.028256   -2.808532
 ---------------------------------------------------------------------

 SCF Done:  E(RB3LYP) =  -1447.53272248     A.U. after    1 cycles

 Alpha  occ. eigenvalues --  -19.31551 -19.26296 -19.25919 -19.19889 -19.15997
 Alpha  occ. eigenvalues --  -19.15214 -14.59822 -14.48007 -14.47687 -14.45327
 Alpha  occ. eigenvalues --  -14.44639 -14.42502 -10.44457 -10.42584 -10.42317
 Alpha  occ. eigenvalues --  -10.40056 -10.36596 -10.34633 -10.33559 -10.32709
 Alpha  occ. eigenvalues --  -10.31700 -10.31429 -10.28850 -10.27489 -10.26767
 Alpha  occ. eigenvalues --  -10.25975 -10.25889 -10.23755 -10.23573  -1.22756
 Alpha  occ. eigenvalues --   -1.18562  -1.13554  -1.13507  -1.11425  -1.11287
 Alpha  occ. eigenvalues --   -1.08873  -1.05091  -1.01451  -1.00288  -0.99225
 Alpha  occ. eigenvalues --   -0.98985  -0.94549  -0.89697  -0.87233  -0.86995
 Alpha  occ. eigenvalues --   -0.83760  -0.81273  -0.79373  -0.76070  -0.74707
 Alpha  occ. eigenvalues --   -0.73982  -0.73576  -0.73347  -0.72748  -0.70901
 Alpha  occ. eigenvalues --   -0.69983  -0.68414  -0.68144  -0.65632  -0.64785
 Alpha  occ. eigenvalues --   -0.64140  -0.63720  -0.63337  -0.61786  -0.60756
 Alpha  occ. eigenvalues --   -0.60340  -0.59452  -0.59297  -0.59121  -0.58559
 Alpha  occ. eigenvalues --   -0.57136  -0.56527  -0.56197  -0.54431  -0.54300
 Alpha  occ. eigenvalues --   -0.53752  -0.52879  -0.52393  -0.51845  -0.51495
 Alpha  occ. eigenvalues --   -0.50603  -0.50503  -0.50287  -0.50018  -0.49588
 Alpha  occ. eigenvalues --   -0.49165  -0.48134  -0.47817  -0.47191  -0.45954
 Alpha  occ. eigenvalues --   -0.45758  -0.44928  -0.44722  -0.43861  -0.43508
 Alpha  occ. eigenvalues --   -0.42941  -0.42699  -0.42273  -0.40919  -0.40860
 Alpha  occ. eigenvalues --   -0.40003  -0.39749  -0.39668  -0.39380  -0.38367
 Alpha  occ. eigenvalues --   -0.38316  -0.34993  -0.33970  -0.33089  -0.31442
 Alpha  occ. eigenvalues --   -0.30378  -0.29412
 Alpha virt. eigenvalues --   -0.12132  -0.11418  -0.10196  -0.07281  -0.06008
 Alpha virt. eigenvalues --   -0.05867  -0.03881  -0.03258  -0.02256  -0.01066
 Alpha virt. eigenvalues --   -0.00735  -0.00075   0.00377   0.01547   0.02211

 Mulliken charges:
               1
     1  N   -0.755172
     2  H    0.417108
     3  H    0.431161
     4  H    0.410017
     5  C   -0.119142
     6  H    0.231734
     7  C    0.655328
     8  C   -0.302580
     9  H    0.189344
    10  H    0.177818
    11  O   -0.549839
    12  C   -0.408784
    13  H    0.199438
    14  H    0.273622
    15  C    0.604527
    16  O   -0.494122
    17  O   -0.532761
    18  N   -0.618250
    19  H    0.394017
    20  C   -0.053289
    21  H    0.188772
    22  C    0.631236
    23  C   -0.294768
    24  H    0.145441
    25  H    0.153304
    26  O   -0.563875
    27  C   -0.095524
    28  H    0.154992
    29  C   -0.449253
    30  H    0.138658
    31  H    0.177356
    32  H    0.145411
    33  C   -0.446531
    34  H    0.144455
    35  H    0.139989
    36  H    0.162753
    37  N   -0.612780
    38  H    0.380316
    39  C   -0.056761
    40  H    0.157415
    41  C    0.609584
    42  C   -0.294510
    43  H    0.166342
    44  H    0.167203
    45  O   -0.633526
    46  C   -0.273754
    47  H    0.167337
    48  H    0.145566
    49  C   -0.156284
    50  H    0.178613
    51  H    0.145201
    52  N   -0.615977
    53  H    0.432226
    54  N   -0.756585
    55  H    0.364960
    56  H    0.368979
    57  N   -0.778404
    58  H    0.349879
    59  H    0.410084
    60  C    0.758830
    61  O   -0.537508
    62  H    0.430960
 Sum of Mulliken charges =   1.00000

 Dipole moment (field-independent basis, Debye):
    X=              3.4820    Y=             -3.3556    Z=            -19.1657  Tot=             19.7663
 Quadrupole moment (field-independent basis, Debye-Ang):
   XX=            -18.7455   YY=           -154.4037   ZZ=            -98.1312
   XY=             40.1910   XZ=              3.7806   YZ=            -10.5768

 Normal termination of Gaussian 16 at Thu Jun 23 05:43:03 2022.
