 Gaussian 16, Revision C.01,
 Gaussian 16:  ES64L-G16RevC.01  3-Jul-2019

 ----------------------------------------------------------------------
 # B3LYP/6-31G* empiricaldispersion=gd3bj guess=read geom=check nosymm
 integral(ultrafinegrid)
 ----------------------------------------------------------------------

 ------------------------------------------------------
 Candidate Structure: Conf:649 Charge calc in gas phase
 ------------------------------------------------------
 Structure from the checkpoint file:  "conf-649.chk"
 Charge =  1 Multiplicity = 1

                          Input orientation:
 ---------------------------------------------------------------------
 Center     Atomic      Atomic             Coordinates (Angstroms)
 Number     Number       Type             X           Y           Z
 ---------------------------------------------------------------------
      1          7           0       -0.193294   -3.322666   -2.387252
      2          1           0        0.424082   -2.449699   -2.401695
      3          1           0        0.141541   -3.900189   -1.606210
      4          1           0       -0.138832   -3.858077   -3.257650
      5          6           0       -1.599020   -2.854157   -2.050502
      6          1           0       -1.948978   -2.293089   -2.921432
      7          6           0       -1.281552   -1.950902   -0.837138
      8          6           0       -2.509859   -4.027437   -1.724564
      9          1           0       -2.096025   -4.572021   -0.870798
     10          1           0       -2.548476   -4.714552   -2.578890
     11          8           0       -0.816321   -2.498955    0.151382
     12          6           0       -3.922869   -3.537382   -1.378412
     13          1           0       -3.880879   -2.904250   -0.482247
     14          1           0       -4.356582   -2.940988   -2.185707
     15          6           0       -4.899488   -4.663262   -1.090560
     16          8           0       -6.047782   -4.688278   -1.458768
     17          8           0       -4.327821   -5.636908   -0.343356
     18          7           0       -1.404246   -0.611310   -1.040140
     19          1           0       -1.744787   -0.359691   -1.960040
     20          6           0       -0.373851    0.311397   -0.542162
     21          1           0       -0.709405    1.310600   -0.834479
     22          6           0        0.936816    0.009707   -1.321546
     23          6           0       -0.235403    0.278517    0.997198
     24          1           0        0.219955   -0.667594    1.295854
     25          1           0       -1.260902    0.265967    1.387120
     26          8           0        1.065142   -1.000758   -2.053936
     27          6           0        0.521638    1.450068    1.655447
     28          1           0        1.582737    1.401664    1.384356
     29          6           0       -0.018278    2.825700    1.243014
     30          1           0       -1.092180    2.906619    1.454892
     31          1           0        0.495142    3.616404    1.798084
     32          1           0        0.130285    3.044695    0.178006
     33          6           0        0.442544    1.279808    3.179200
     34          1           0       -0.593848    1.358738    3.530526
     35          1           0        0.830659    0.304024    3.491600
     36          1           0        1.029346    2.053144    3.684906
     37          7           0        1.897574    0.908379   -1.181264
     38          1           0        1.806992    1.718291   -0.564509
     39          6           0        3.271419    0.795035   -1.667068
     40          1           0        3.560969   -0.257233   -1.699957
     41          6           0        4.123383    1.582152   -0.635496
     42          6           0        3.369551    1.437260   -3.069435
     43          1           0        3.156825    2.507914   -2.956381
     44          1           0        2.556510    1.017443   -3.673309
     45          8           0        5.340002    1.229479   -0.546088
     46          6           0        4.672717    1.235207   -3.860033
     47          1           0        4.889005    0.163586   -3.953167
     48          1           0        4.492559    1.593753   -4.883485
     49          6           0        5.950986    1.894201   -3.323174
     50          1           0        6.759820    1.757873   -4.051367
     51          1           0        6.235462    1.426775   -2.384929
     52          7           0        5.774948    3.335507   -3.088910
     53          1           0        5.350111    3.866534   -3.837915
     54          7           0        6.578616    3.482855   -0.899483
     55          1           0        6.914314    4.088291   -0.162834
     56          1           0        6.156447    2.539487   -0.601895
     57          7           0        6.189139    5.402987   -2.163283
     58          1           0        6.383598    5.985188   -1.362447
     59          1           0        6.317090    5.827639   -3.070100
     60          6           0        6.189354    4.051279   -2.029535
     61          8           0        3.550193    2.528728   -0.061245
     62          1           0       -5.019698   -6.305170   -0.174751
 ---------------------------------------------------------------------

 SCF Done:  E(RB3LYP) =  -1447.51754195     A.U. after    2 cycles

 Alpha  occ. eigenvalues --  -19.28415 -19.24901 -19.23676 -19.22551 -19.16752
 Alpha  occ. eigenvalues --  -19.16392 -14.57835 -14.48433 -14.48381 -14.48248
 Alpha  occ. eigenvalues --  -14.45422 -14.45091 -10.43832 -10.42086 -10.41121
 Alpha  occ. eigenvalues --  -10.39847 -10.39231 -10.34532 -10.34473 -10.32475
 Alpha  occ. eigenvalues --  -10.31298 -10.31104 -10.30283 -10.28250 -10.27652
 Alpha  occ. eigenvalues --  -10.27176 -10.26419 -10.24800 -10.23898  -1.19230
 Alpha  occ. eigenvalues --   -1.17625  -1.14410  -1.12353  -1.12238  -1.10317
 Alpha  occ. eigenvalues --   -1.10195  -1.05149  -1.02844  -1.02021  -1.01028
 Alpha  occ. eigenvalues --   -0.99557  -0.93578  -0.90059  -0.88491  -0.86126
 Alpha  occ. eigenvalues --   -0.84373  -0.82240  -0.77516  -0.77269  -0.75612
 Alpha  occ. eigenvalues --   -0.74264  -0.73736  -0.72926  -0.71119  -0.70499
 Alpha  occ. eigenvalues --   -0.69789  -0.69260  -0.68370  -0.66925  -0.65872
 Alpha  occ. eigenvalues --   -0.65713  -0.64340  -0.62465  -0.61896  -0.61397
 Alpha  occ. eigenvalues --   -0.60076  -0.59487  -0.58739  -0.57590  -0.56961
 Alpha  occ. eigenvalues --   -0.56445  -0.55991  -0.55734  -0.55142  -0.54612
 Alpha  occ. eigenvalues --   -0.53838  -0.53714  -0.52901  -0.52553  -0.52016
 Alpha  occ. eigenvalues --   -0.51669  -0.51147  -0.50800  -0.49783  -0.48979
 Alpha  occ. eigenvalues --   -0.48665  -0.48488  -0.47739  -0.47348  -0.46843
 Alpha  occ. eigenvalues --   -0.46399  -0.46096  -0.45488  -0.45216  -0.44754
 Alpha  occ. eigenvalues --   -0.44044  -0.43098  -0.41966  -0.41026  -0.40496
 Alpha  occ. eigenvalues --   -0.40469  -0.40009  -0.39218  -0.38918  -0.37950
 Alpha  occ. eigenvalues --   -0.36870  -0.36422  -0.36142  -0.36100  -0.32265
 Alpha  occ. eigenvalues --   -0.31162  -0.30757
 Alpha virt. eigenvalues --   -0.12874  -0.08821  -0.08544  -0.08301  -0.07438
 Alpha virt. eigenvalues --   -0.05459  -0.05276  -0.02905  -0.02760  -0.01356
 Alpha virt. eigenvalues --   -0.01129   0.00081   0.00135   0.00666   0.01150

 Mulliken charges:
               1
     1  N   -0.762857
     2  H    0.460438
     3  H    0.413262
     4  H    0.401649
     5  C   -0.107035
     6  H    0.187972
     7  C    0.602218
     8  C   -0.276730
     9  H    0.207873
    10  H    0.167339
    11  O   -0.489109
    12  C   -0.368031
    13  H    0.207061
    14  H    0.185631
    15  C    0.580540
    16  O   -0.432648
    17  O   -0.561548
    18  N   -0.561666
    19  H    0.337829
    20  C   -0.110332
    21  H    0.183989
    22  C    0.645109
    23  C   -0.254993
    24  H    0.181796
    25  H    0.158841
    26  O   -0.620516
    27  C   -0.111294
    28  H    0.162902
    29  C   -0.456881
    30  H    0.146381
    31  H    0.171760
    32  H    0.131283
    33  C   -0.448897
    34  H    0.146207
    35  H    0.151860
    36  H    0.160462
    37  N   -0.598320
    38  H    0.391185
    39  C   -0.043039
    40  H    0.164624
    41  C    0.601123
    42  C   -0.260960
    43  H    0.143882
    44  H    0.149475
    45  O   -0.615833
    46  C   -0.292315
    47  H    0.163772
    48  H    0.141775
    49  C   -0.158929
    50  H    0.167518
    51  H    0.235072
    52  N   -0.604141
    53  H    0.342778
    54  N   -0.758630
    55  H    0.348952
    56  H    0.438931
    57  N   -0.767542
    58  H    0.369217
    59  H    0.363158
    60  C    0.792065
    61  O   -0.571331
    62  H    0.427647
 Sum of Mulliken charges =   1.00000

 Dipole moment (field-independent basis, Debye):
    X=              8.6763    Y=              1.6865    Z=            -14.5754  Tot=             17.0460
 Quadrupole moment (field-independent basis, Debye-Ang):
   XX=            -96.6281   YY=            -62.7658   ZZ=           -121.2580
   XY=             79.4967   XZ=            -40.1399   YZ=             -5.3698

 Normal termination of Gaussian 16 at Thu Jun 23 05:43:10 2022.
