 Gaussian 16, Revision C.01,
 Gaussian 16:  ES64L-G16RevC.01  3-Jul-2019

 ----------------------------------------------------------------------
 # B3LYP/6-31G* empiricaldispersion=gd3bj guess=read geom=check nosymm
 integral(ultrafinegrid)
 ----------------------------------------------------------------------

 ------------------------------------------------------
 Candidate Structure: Conf:950 Charge calc in gas phase
 ------------------------------------------------------
 Structure from the checkpoint file:  "conf-950.chk"
 Charge =  1 Multiplicity = 1

                          Input orientation:
 ---------------------------------------------------------------------
 Center     Atomic      Atomic             Coordinates (Angstroms)
 Number     Number       Type             X           Y           Z
 ---------------------------------------------------------------------
      1          7           0       -3.543804   -1.040675   -3.364143
      2          1           0       -3.634456   -2.060080   -3.326075
      3          1           0       -3.955135   -0.625814   -2.460921
      4          1           0       -4.029034   -0.697909   -4.197452
      5          6           0       -2.110422   -0.569194   -3.253922
      6          1           0       -1.450516   -1.408757   -3.484521
      7          6           0       -2.028102   -0.169628   -1.750692
      8          6           0       -1.879021    0.601098   -4.223182
      9          1           0       -2.544870    1.428490   -3.949678
     10          1           0       -2.153884    0.277857   -5.232910
     11          8           0       -3.111955   -0.008117   -1.163072
     12          6           0       -0.421934    1.084472   -4.238477
     13          1           0       -0.119590    1.513655   -3.278726
     14          1           0        0.258677    0.241178   -4.424854
     15          6           0       -0.104650    2.111657   -5.308479
     16          8           0        0.887095    2.818360   -5.295052
     17          8           0       -1.006375    2.145630   -6.297112
     18          7           0       -0.820221   -0.037046   -1.239738
     19          1           0        0.011107   -0.083884   -1.825383
     20          6           0       -0.491575    0.380463    0.126302
     21          1           0       -1.338055    0.937667    0.532683
     22          6           0        0.746182    1.284033    0.001255
     23          6           0       -0.157279   -0.841075    1.009354
     24          1           0        0.287621   -0.476735    1.944822
     25          1           0        0.630751   -1.410441    0.497047
     26          8           0        1.355305    1.317179   -1.102371
     27          6           0       -1.346795   -1.760582    1.327412
     28          1           0       -1.794748   -2.103942    0.380548
     29          6           0       -0.834806   -2.993988    2.083235
     30          1           0       -0.373647   -2.698884    3.032575
     31          1           0       -1.655021   -3.684447    2.307629
     32          1           0       -0.081474   -3.538125    1.501723
     33          6           0       -2.428251   -1.034788    2.137779
     34          1           0       -2.001426   -0.613732    3.055639
     35          1           0       -2.897022   -0.224162    1.569910
     36          1           0       -3.223848   -1.729913    2.427250
     37          7           0        1.103935    1.903249    1.114495
     38          1           0        0.648937    1.574068    2.013260
     39          6           0        2.504399    2.071564    1.552651
     40          1           0        3.158330    1.532189    0.859810
     41          6           0        2.533053    1.338967    2.974536
     42          6           0        2.997484    3.506305    1.712844
     43          1           0        3.935986    3.421104    2.267834
     44          1           0        2.304336    4.064754    2.356805
     45          8           0        3.638654    1.286077    3.510773
     46          6           0        3.239506    4.267472    0.403891
     47          1           0        3.892692    5.131530    0.582017
     48          1           0        3.765329    3.617199   -0.307530
     49          6           0        1.934934    4.764222   -0.221835
     50          1           0        1.465225    5.517557    0.416637
     51          1           0        1.211185    3.955018   -0.329415
     52          7           0        2.116555    5.385680   -1.543655
     53          1           0        2.464685    6.335530   -1.562704
     54          7           0        2.075590    3.378950   -2.731206
     55          1           0        1.893280    2.948443   -3.633561
     56          1           0        2.003567    2.762664   -1.907473
     57          7           0        2.348963    5.379920   -3.851572
     58          1           0        2.277440    4.868408   -4.720997
     59          1           0        2.109228    6.360049   -3.891936
     60          6           0        2.174864    4.700691   -2.690537
     61          8           0        1.388310    0.933022    3.356582
     62          1           0       -0.708492    2.801739   -6.957746
 ---------------------------------------------------------------------

 SCF Done:  E(RB3LYP) =  -1447.48787553     A.U. after    1 cycles

 Alpha  occ. eigenvalues --  -19.35324 -19.29917 -19.28228 -19.22718 -19.11693
 Alpha  occ. eigenvalues --  -19.10204 -14.61746 -14.50761 -14.50145 -14.50113
 Alpha  occ. eigenvalues --  -14.48091 -14.42209 -10.48380 -10.46007 -10.44973
 Alpha  occ. eigenvalues --  -10.43160 -10.38231 -10.37484 -10.36440 -10.33866
 Alpha  occ. eigenvalues --  -10.32960 -10.29112 -10.27040 -10.26796 -10.26523
 Alpha  occ. eigenvalues --  -10.26352 -10.24402 -10.23784 -10.23590  -1.26435
 Alpha  occ. eigenvalues --   -1.20908  -1.17304  -1.15504  -1.14683  -1.13261
 Alpha  occ. eigenvalues --   -1.07396  -1.04725  -1.04163  -1.02292  -0.99754
 Alpha  occ. eigenvalues --   -0.97952  -0.95793  -0.91232  -0.89113  -0.88122
 Alpha  occ. eigenvalues --   -0.84959  -0.82129  -0.81345  -0.77424  -0.77066
 Alpha  occ. eigenvalues --   -0.75876  -0.75232  -0.74777  -0.74332  -0.73934
 Alpha  occ. eigenvalues --   -0.72097  -0.71738  -0.69472  -0.68027  -0.66832
 Alpha  occ. eigenvalues --   -0.66239  -0.65380  -0.64132  -0.63885  -0.63027
 Alpha  occ. eigenvalues --   -0.62812  -0.62585  -0.61512  -0.60704  -0.60145
 Alpha  occ. eigenvalues --   -0.58316  -0.58036  -0.57664  -0.56505  -0.55956
 Alpha  occ. eigenvalues --   -0.55399  -0.55081  -0.54387  -0.53949  -0.53149
 Alpha  occ. eigenvalues --   -0.52739  -0.52563  -0.51914  -0.51129  -0.50956
 Alpha  occ. eigenvalues --   -0.49175  -0.48854  -0.47964  -0.47297  -0.46499
 Alpha  occ. eigenvalues --   -0.45885  -0.45516  -0.44773  -0.43803  -0.43763
 Alpha  occ. eigenvalues --   -0.43035  -0.42832  -0.42277  -0.41250  -0.41083
 Alpha  occ. eigenvalues --   -0.40703  -0.40423  -0.39972  -0.39566  -0.39175
 Alpha  occ. eigenvalues --   -0.38444  -0.38034  -0.36539  -0.34433  -0.26679
 Alpha  occ. eigenvalues --   -0.26461  -0.24105
 Alpha virt. eigenvalues --   -0.14903  -0.13750  -0.12813  -0.10213  -0.08424
 Alpha virt. eigenvalues --   -0.08181  -0.07355  -0.06037  -0.05391  -0.03662
 Alpha virt. eigenvalues --   -0.03169  -0.02168  -0.01615  -0.00864  -0.00414

 Mulliken charges:
               1
     1  N   -0.759869
     2  H    0.421971
     3  H    0.439961
     4  H    0.412927
     5  C   -0.116657
     6  H    0.217307
     7  C    0.653948
     8  C   -0.291066
     9  H    0.195545
    10  H    0.196997
    11  O   -0.539742
    12  C   -0.416472
    13  H    0.222146
    14  H    0.211955
    15  C    0.622791
    16  O   -0.482397
    17  O   -0.542847
    18  N   -0.576103
    19  H    0.363613
    20  C   -0.103764
    21  H    0.202632
    22  C    0.612796
    23  C   -0.290449
    24  H    0.232347
    25  H    0.134699
    26  O   -0.623497
    27  C   -0.066681
    28  H    0.085007
    29  C   -0.448279
    30  H    0.179761
    31  H    0.147354
    32  H    0.139613
    33  C   -0.465406
    34  H    0.176534
    35  H    0.145512
    36  H    0.150379
    37  N   -0.586651
    38  H    0.372845
    39  C   -0.107144
    40  H    0.152426
    41  C    0.605772
    42  C   -0.270063
    43  H    0.199501
    44  H    0.143432
    45  O   -0.540332
    46  C   -0.271372
    47  H    0.148481
    48  H    0.148754
    49  C   -0.179906
    50  H    0.183882
    51  H    0.187983
    52  N   -0.593609
    53  H    0.357067
    54  N   -0.821488
    55  H    0.385749
    56  H    0.436919
    57  N   -0.768686
    58  H    0.380211
    59  H    0.365075
    60  C    0.797080
    61  O   -0.608071
    62  H    0.439577
 Sum of Mulliken charges =   1.00000

 Dipole moment (field-independent basis, Debye):
    X=            -11.2300    Y=              9.6782    Z=            -31.1625  Tot=             34.5092
 Quadrupole moment (field-independent basis, Debye-Ang):
   XX=           -147.5768   YY=            -72.7735   ZZ=            -96.8161
   XY=             37.4673   XZ=              8.2117   YZ=            -40.8060

 Normal termination of Gaussian 16 at Thu Jun 23 05:43:04 2022.
