 Gaussian 16, Revision C.01,
 Gaussian 16:  ES64L-G16RevC.01  3-Jul-2019

 ----------------------------------------------------------------------
 # B3LYP/6-31G* empiricaldispersion=gd3bj guess=read geom=check nosymm
 integral(ultrafinegrid)
 ----------------------------------------------------------------------

 ------------------------------------------------------
 Candidate Structure: Conf:472 Charge calc in gas phase
 ------------------------------------------------------
 Structure from the checkpoint file:  "conf-472.chk"
 Charge =  1 Multiplicity = 1

                          Input orientation:
 ---------------------------------------------------------------------
 Center     Atomic      Atomic             Coordinates (Angstroms)
 Number     Number       Type             X           Y           Z
 ---------------------------------------------------------------------
      1          7           0       -3.380042   -2.784273   -2.757970
      2          1           0       -3.279660   -3.795764   -2.864962
      3          1           0       -3.613412   -2.527838   -1.730044
      4          1           0       -4.122749   -2.460394   -3.382520
      5          6           0       -2.085692   -2.014941   -2.927398
      6          1           0       -1.289684   -2.744070   -3.101693
      7          6           0       -1.914377   -1.363903   -1.523579
      8          6           0       -2.164513   -1.002626   -4.067259
      9          1           0       -1.260252   -0.387888   -4.046581
     10          1           0       -2.991071   -0.305266   -3.882294
     11          8           0       -2.809460   -1.591009   -0.686320
     12          6           0       -2.294393   -1.640589   -5.451645
     13          1           0       -1.489270   -2.365878   -5.629082
     14          1           0       -3.233576   -2.192284   -5.585575
     15          6           0       -2.212901   -0.582837   -6.540359
     16          8           0       -1.909714    0.571740   -6.349641
     17          8           0       -2.511742   -1.104423   -7.743472
     18          7           0       -0.841905   -0.624113   -1.340141
     19          1           0       -0.136911   -0.449046   -2.063933
     20          6           0       -0.499214    0.079681   -0.102227
     21          1           0       -1.393513    0.582596    0.273672
     22          6           0        0.563167    1.101578   -0.553476
     23          6           0        0.044407   -0.913178    0.950040
     24          1           0        0.951146   -1.372823    0.536095
     25          1           0       -0.704856   -1.708496    1.053308
     26          8           0        1.160342    0.911586   -1.627024
     27          6           0        0.343458   -0.336216    2.346420
     28          1           0        1.115486    0.436632    2.264320
     29          6           0       -0.893315    0.301589    2.991887
     30          1           0       -1.710851   -0.425832    3.077791
     31          1           0       -0.650845    0.666036    3.994111
     32          1           0       -1.269681    1.163988    2.429809
     33          6           0        0.899685   -1.453898    3.238186
     34          1           0        0.158480   -2.250766    3.381169
     35          1           0        1.799413   -1.904009    2.802711
     36          1           0        1.164444   -1.061894    4.225233
     37          7           0        0.769871    2.122039    0.274450
     38          1           0        0.360130    2.145679    1.215615
     39          6           0        1.928797    3.004828    0.242338
     40          1           0        2.799287    2.410481   -0.061248
     41          6           0        2.163690    3.447318    1.721021
     42          6           0        1.758284    4.204286   -0.715259
     43          1           0        2.137750    5.108702   -0.227500
     44          1           0        0.687986    4.364246   -0.878650
     45          8           0        3.169717    4.199288    1.912784
     46          6           0        2.467639    4.001977   -2.058651
     47          1           0        2.213568    3.013821   -2.457335
     48          1           0        2.121221    4.744938   -2.789892
     49          6           0        3.992860    4.093821   -1.950431
     50          1           0        4.460054    3.764130   -2.885345
     51          1           0        4.378751    3.453254   -1.154396
     52          7           0        4.471855    5.454468   -1.679788
     53          1           0        4.329757    6.141211   -2.408262
     54          7           0        5.035162    5.210879    0.569351
     55          1           0        5.644652    5.536911    1.310056
     56          1           0        4.151244    4.657050    0.974876
     57          7           0        5.745670    7.072265   -0.654365
     58          1           0        6.107907    7.506414    0.181625
     59          1           0        6.167756    7.351238   -1.528332
     60          6           0        5.079637    5.889293   -0.560863
     61          8           0        1.360256    3.028360    2.569299
     62          1           0       -2.423110   -0.388678   -8.402252
 ---------------------------------------------------------------------

 SCF Done:  E(RB3LYP) =  -1447.51066760     A.U. after    2 cycles

 Alpha  occ. eigenvalues --  -19.30154 -19.26692 -19.24777 -19.20433 -19.15229
 Alpha  occ. eigenvalues --  -19.14377 -14.59467 -14.48712 -14.47556 -14.47522
 Alpha  occ. eigenvalues --  -14.43730 -14.42688 -10.43241 -10.43126 -10.42831
 Alpha  occ. eigenvalues --  -10.40854 -10.37066 -10.34241 -10.33530 -10.32911
 Alpha  occ. eigenvalues --  -10.32762 -10.31682 -10.28508 -10.26788 -10.26284
 Alpha  occ. eigenvalues --  -10.25416 -10.25231 -10.23168 -10.23131  -1.21243
 Alpha  occ. eigenvalues --   -1.19140  -1.13394  -1.12459  -1.12063  -1.11397
 Alpha  occ. eigenvalues --   -1.08301  -1.05480  -1.01355  -1.00793  -0.99121
 Alpha  occ. eigenvalues --   -0.98134  -0.95120  -0.89672  -0.87662  -0.87271
 Alpha  occ. eigenvalues --   -0.83596  -0.81216  -0.79175  -0.75921  -0.74968
 Alpha  occ. eigenvalues --   -0.74199  -0.74079  -0.72855  -0.72253  -0.70832
 Alpha  occ. eigenvalues --   -0.70011  -0.68847  -0.67664  -0.66130  -0.65198
 Alpha  occ. eigenvalues --   -0.64494  -0.63920  -0.62749  -0.61509  -0.61359
 Alpha  occ. eigenvalues --   -0.59803  -0.59508  -0.58832  -0.58653  -0.58438
 Alpha  occ. eigenvalues --   -0.56465  -0.56024  -0.55911  -0.55165  -0.54611
 Alpha  occ. eigenvalues --   -0.53445  -0.53103  -0.52419  -0.51947  -0.51062
 Alpha  occ. eigenvalues --   -0.50876  -0.50170  -0.49869  -0.49500  -0.49126
 Alpha  occ. eigenvalues --   -0.48893  -0.48487  -0.48277  -0.46176  -0.45745
 Alpha  occ. eigenvalues --   -0.45069  -0.44564  -0.44355  -0.43881  -0.43190
 Alpha  occ. eigenvalues --   -0.42518  -0.42436  -0.41685  -0.41642  -0.40702
 Alpha  occ. eigenvalues --   -0.40456  -0.39251  -0.38785  -0.38481  -0.38143
 Alpha  occ. eigenvalues --   -0.37379  -0.35722  -0.34696  -0.33368  -0.30323
 Alpha  occ. eigenvalues --   -0.29948  -0.28798
 Alpha virt. eigenvalues --   -0.12011  -0.11399  -0.09561  -0.07845  -0.06447
 Alpha virt. eigenvalues --   -0.06008  -0.04333  -0.04084  -0.02074  -0.01280
 Alpha virt. eigenvalues --   -0.00515  -0.00454   0.00058   0.00456   0.00830

 Mulliken charges:
               1
     1  N   -0.765203
     2  H    0.413690
     3  H    0.440395
     4  H    0.409123
     5  C   -0.108983
     6  H    0.217972
     7  C    0.663429
     8  C   -0.302710
     9  H    0.223727
    10  H    0.190071
    11  O   -0.553608
    12  C   -0.377360
    13  H    0.202104
    14  H    0.170433
    15  C    0.597755
    16  O   -0.438250
    17  O   -0.556545
    18  N   -0.610374
    19  H    0.374499
    20  C   -0.068202
    21  H    0.192985
    22  C    0.616800
    23  C   -0.258883
    24  H    0.144740
    25  H    0.154987
    26  O   -0.568794
    27  C   -0.100726
    28  H    0.164438
    29  C   -0.450226
    30  H    0.139322
    31  H    0.177146
    32  H    0.139343
    33  C   -0.447706
    34  H    0.138842
    35  H    0.142138
    36  H    0.165341
    37  N   -0.621137
    38  H    0.386145
    39  C   -0.067695
    40  H    0.158649
    41  C    0.618917
    42  C   -0.274464
    43  H    0.156274
    44  H    0.157742
    45  O   -0.624090
    46  C   -0.284453
    47  H    0.189303
    48  H    0.132609
    49  C   -0.159692
    50  H    0.171062
    51  H    0.193285
    52  N   -0.590425
    53  H    0.346910
    54  N   -0.766182
    55  H    0.345479
    56  H    0.446784
    57  N   -0.762729
    58  H    0.367263
    59  H    0.361430
    60  C    0.766267
    61  O   -0.550582
    62  H    0.431620
 Sum of Mulliken charges =   1.00000

 Dipole moment (field-independent basis, Debye):
    X=              0.6862    Y=              1.5353    Z=            -18.8857  Tot=             18.9605
 Quadrupole moment (field-independent basis, Debye-Ang):
   XX=            -62.6034   YY=            -51.5310   ZZ=           -113.3199
   XY=            112.1052   XZ=             21.2964   YZ=              0.9831

 Normal termination of Gaussian 16 at Thu Jun 23 05:43:08 2022.
