 Gaussian 16, Revision C.01,
 Gaussian 16:  ES64L-G16RevC.01  3-Jul-2019

 ----------------------------------------------------------------------
 # B3LYP/6-31G* empiricaldispersion=gd3bj guess=read geom=check nosymm
 integral(ultrafinegrid)
 ----------------------------------------------------------------------

 ------------------------------------------------------
 Candidate Structure: Conf:535 Charge calc in gas phase
 ------------------------------------------------------
 Structure from the checkpoint file:  "conf-535.chk"
 Charge =  1 Multiplicity = 1

                          Input orientation:
 ---------------------------------------------------------------------
 Center     Atomic      Atomic             Coordinates (Angstroms)
 Number     Number       Type             X           Y           Z
 ---------------------------------------------------------------------
      1          7           0       -0.093345   -2.384517   -3.177386
      2          1           0        0.361996   -1.424788   -3.056392
      3          1           0        0.445669   -3.037609   -2.595539
      4          1           0       -0.075846   -2.700376   -4.150161
      5          6           0       -1.496807   -2.279041   -2.595943
      6          1           0       -2.054828   -1.633503   -3.279931
      7          6           0       -1.167298   -1.593693   -1.253167
      8          6           0       -2.152472   -3.642925   -2.440117
      9          1           0       -3.133399   -3.484052   -1.981471
     10          1           0       -1.565680   -4.229464   -1.723995
     11          8           0       -0.482792   -2.219017   -0.455697
     12          6           0       -2.329416   -4.401408   -3.764662
     13          1           0       -2.938670   -3.807038   -4.458120
     14          1           0       -1.374819   -4.622092   -4.251942
     15          6           0       -3.014593   -5.744327   -3.571868
     16          8           0       -2.576950   -6.802532   -3.949954
     17          8           0       -4.189419   -5.599155   -2.918564
     18          7           0       -1.522858   -0.286950   -1.140744
     19          1           0       -1.997492    0.095101   -1.948755
     20          6           0       -0.583964    0.656910   -0.520843
     21          1           0       -1.047537    1.642517   -0.630529
     22          6           0        0.713760    0.661212   -1.378504
     23          6           0       -0.326972    0.400452    0.975291
     24          1           0        0.216958    1.267307    1.372899
     25          1           0        0.326867   -0.467320    1.083450
     26          8           0        0.791552    0.023362   -2.456217
     27          6           0       -1.599300    0.194436    1.812529
     28          1           0       -2.107616   -0.698813    1.427111
     29          6           0       -1.208778   -0.074916    3.270845
     30          1           0       -0.698198    0.792342    3.707877
     31          1           0       -2.095155   -0.280945    3.879888
     32          1           0       -0.536541   -0.936256    3.350257
     33          6           0       -2.564590    1.381421    1.712541
     34          1           0       -2.076748    2.312426    2.029549
     35          1           0       -2.942420    1.525051    0.693535
     36          1           0       -3.433540    1.228449    2.360824
     37          7           0        1.705014    1.410438   -0.924325
     38          1           0        1.672051    1.890274   -0.022323
     39          6           0        3.040822    1.500890   -1.504923
     40          1           0        3.328071    0.527912   -1.908086
     41          6           0        3.992622    1.894580   -0.350425
     42          6           0        3.083240    2.564307   -2.633544
     43          1           0        2.513692    3.436570   -2.287282
     44          1           0        2.530879    2.163308   -3.489213
     45          8           0        5.206466    1.598005   -0.548977
     46          6           0        4.516170    2.963972   -3.051473
     47          1           0        5.210600    2.199393   -2.700366
     48          1           0        4.590623    2.998652   -4.143863
     49          6           0        4.995813    4.346739   -2.550863
     50          1           0        4.652000    5.126203   -3.238885
     51          1           0        6.087372    4.382028   -2.533625
     52          7           0        4.532873    4.778297   -1.223606
     53          1           0        3.590787    5.137765   -1.167554
     54          7           0        6.261612    3.912600    0.063652
     55          1           0        6.777546    4.023215    0.928636
     56          1           0        6.065622    2.901390   -0.210544
     57          7           0        4.819424    5.515814    0.956040
     58          1           0        4.855778    5.121366    1.887282
     59          1           0        4.077096    6.184754    0.803033
     60          6           0        5.195751    4.705454   -0.062908
     61          8           0        3.483996    2.542367    0.595139
     62          1           0       -4.580290   -6.489847   -2.830699
 ---------------------------------------------------------------------

 SCF Done:  E(RB3LYP) =  -1447.51306900     A.U. after    1 cycles

 Alpha  occ. eigenvalues --  -19.29246 -19.25442 -19.24031 -19.23517 -19.16800
 Alpha  occ. eigenvalues --  -19.16769 -14.58224 -14.48881 -14.48284 -14.47731
 Alpha  occ. eigenvalues --  -14.46075 -14.44377 -10.43207 -10.42540 -10.42063
 Alpha  occ. eigenvalues --  -10.40359 -10.39797 -10.35113 -10.34719 -10.32995
 Alpha  occ. eigenvalues --  -10.32382 -10.32353 -10.30443 -10.27974 -10.27836
 Alpha  occ. eigenvalues --  -10.27178 -10.26868 -10.25428 -10.24551  -1.20112
 Alpha  occ. eigenvalues --   -1.18145  -1.14846  -1.12672  -1.12144  -1.11266
 Alpha  occ. eigenvalues --   -1.10157  -1.05628  -1.03130  -1.01852  -1.01306
 Alpha  occ. eigenvalues --   -0.99153  -0.94041  -0.90751  -0.88317  -0.87137
 Alpha  occ. eigenvalues --   -0.84938  -0.82369  -0.77876  -0.77159  -0.76184
 Alpha  occ. eigenvalues --   -0.74836  -0.73765  -0.73579  -0.71242  -0.70905
 Alpha  occ. eigenvalues --   -0.70228  -0.68945  -0.68781  -0.67174  -0.66344
 Alpha  occ. eigenvalues --   -0.65212  -0.64047  -0.63353  -0.63191  -0.60688
 Alpha  occ. eigenvalues --   -0.59878  -0.59080  -0.58838  -0.58350  -0.57807
 Alpha  occ. eigenvalues --   -0.57153  -0.56937  -0.56051  -0.55469  -0.54903
 Alpha  occ. eigenvalues --   -0.54301  -0.54142  -0.53449  -0.52854  -0.52021
 Alpha  occ. eigenvalues --   -0.51960  -0.51065  -0.50879  -0.50129  -0.49559
 Alpha  occ. eigenvalues --   -0.49381  -0.48436  -0.48209  -0.47892  -0.47704
 Alpha  occ. eigenvalues --   -0.46999  -0.46631  -0.45934  -0.45382  -0.44675
 Alpha  occ. eigenvalues --   -0.43771  -0.43019  -0.42479  -0.41824  -0.41374
 Alpha  occ. eigenvalues --   -0.41065  -0.40623  -0.39669  -0.38853  -0.38660
 Alpha  occ. eigenvalues --   -0.37499  -0.36996  -0.36825  -0.36536  -0.32498
 Alpha  occ. eigenvalues --   -0.31325  -0.30760
 Alpha virt. eigenvalues --   -0.13348  -0.09500  -0.09279  -0.09085  -0.08580
 Alpha virt. eigenvalues --   -0.05722  -0.04766  -0.03481  -0.02790  -0.01380
 Alpha virt. eigenvalues --   -0.00787  -0.00684  -0.00493   0.00785   0.00951

 Mulliken charges:
               1
     1  N   -0.763610
     2  H    0.462246
     3  H    0.413744
     4  H    0.405323
     5  C   -0.110053
     6  H    0.190015
     7  C    0.608441
     8  C   -0.285954
     9  H    0.214773
    10  H    0.199483
    11  O   -0.495113
    12  C   -0.370767
    13  H    0.190240
    14  H    0.165186
    15  C    0.580609
    16  O   -0.426576
    17  O   -0.558151
    18  N   -0.555584
    19  H    0.340373
    20  C   -0.106069
    21  H    0.187783
    22  C    0.657957
    23  C   -0.270941
    24  H    0.149496
    25  H    0.184093
    26  O   -0.625150
    27  C   -0.071523
    28  H    0.141051
    29  C   -0.448943
    30  H    0.147477
    31  H    0.156668
    32  H    0.155848
    33  C   -0.453717
    34  H    0.144394
    35  H    0.130981
    36  H    0.164068
    37  N   -0.597858
    38  H    0.368219
    39  C   -0.034041
    40  H    0.170255
    41  C    0.599427
    42  C   -0.271352
    43  H    0.115371
    44  H    0.161814
    45  O   -0.601639
    46  C   -0.295126
    47  H    0.207274
    48  H    0.151977
    49  C   -0.152564
    50  H    0.169015
    51  H    0.199339
    52  N   -0.574117
    53  H    0.346026
    54  N   -0.738276
    55  H    0.346595
    56  H    0.424091
    57  N   -0.742536
    58  H    0.375015
    59  H    0.354425
    60  C    0.747920
    61  O   -0.608402
    62  H    0.431049
 Sum of Mulliken charges =   1.00000

 Dipole moment (field-independent basis, Debye):
    X=              0.9869    Y=              5.6231    Z=             -9.9848  Tot=             11.5017
 Quadrupole moment (field-independent basis, Debye-Ang):
   XX=           -121.8280   YY=            -89.3596   ZZ=           -126.1602
   XY=             62.3826   XZ=             10.3953   YZ=             19.0268

 Normal termination of Gaussian 16 at Thu Jun 23 05:42:58 2022.
