 Gaussian 16, Revision C.01,
 Gaussian 16:  ES64L-G16RevC.01  3-Jul-2019

 ----------------------------------------------------------------------
 # B3LYP/6-31G* empiricaldispersion=gd3bj guess=read geom=check nosymm
 integral(ultrafinegrid)
 ----------------------------------------------------------------------

 ------------------------------------------------------
 Candidate Structure: Conf:883 Charge calc in gas phase
 ------------------------------------------------------
 Structure from the checkpoint file:  "conf-883.chk"
 Charge =  1 Multiplicity = 1

                          Input orientation:
 ---------------------------------------------------------------------
 Center     Atomic      Atomic             Coordinates (Angstroms)
 Number     Number       Type             X           Y           Z
 ---------------------------------------------------------------------
      1          7           0       -2.093401   -0.232677   -4.014551
      2          1           0       -2.577572   -1.075134   -4.337890
      3          1           0       -2.701593    0.257830   -3.283444
      4          1           0       -1.915675    0.371397   -4.820606
      5          6           0       -0.858927   -0.532399   -3.193702
      6          1           0       -0.536766   -1.555211   -3.399629
      7          6           0       -1.359048   -0.316357   -1.740753
      8          6           0        0.245165    0.501106   -3.433990
      9          1           0        1.015754    0.317950   -2.678742
     10          1           0       -0.159492    1.489318   -3.190266
     11          8           0       -2.416240    0.316781   -1.600304
     12          6           0        0.897512    0.510099   -4.813702
     13          1           0        1.397716   -0.439208   -5.038007
     14          1           0        0.188129    0.679244   -5.636197
     15          6           0        1.929907    1.624308   -4.877123
     16          8           0        2.141339    2.415995   -3.978893
     17          8           0        2.572622    1.633696   -6.047949
     18          7           0       -0.536048   -0.742598   -0.798003
     19          1           0        0.359627   -1.172641   -1.056488
     20          6           0       -0.415097   -0.160838    0.539184
     21          1           0       -0.898878    0.819059    0.531159
     22          6           0        1.116006   -0.004399    0.712741
     23          6           0       -1.007703   -1.058991    1.635562
     24          1           0       -0.757673   -0.616506    2.608562
     25          1           0       -0.492849   -2.026991    1.592465
     26          8           0        1.880763   -0.669189    0.002171
     27          6           0       -2.529188   -1.265624    1.548919
     28          1           0       -2.761791   -1.658036    0.548407
     29          6           0       -2.963208   -2.311620    2.583535
     30          1           0       -2.750156   -1.965132    3.602148
     31          1           0       -4.039136   -2.503697    2.516805
     32          1           0       -2.439698   -3.263110    2.437230
     33          6           0       -3.300406    0.046492    1.740076
     34          1           0       -3.050553    0.508154    2.703924
     35          1           0       -3.092233    0.766625    0.942525
     36          1           0       -4.379581   -0.139020    1.734733
     37          7           0        1.482553    0.841819    1.676276
     38          1           0        0.753735    1.370529    2.134814
     39          6           0        2.851585    1.057359    2.157175
     40          1           0        3.223233    0.104000    2.541170
     41          6           0        2.795328    2.010882    3.362317
     42          6           0        3.870691    1.553179    1.100928
     43          1           0        3.777406    0.912267    0.220190
     44          1           0        4.847409    1.337944    1.545649
     45          8           0        3.514536    1.851752    4.316656
     46          6           0        3.828676    3.045756    0.714340
     47          1           0        3.349873    3.647909    1.486735
     48          1           0        4.858639    3.419064    0.663759
     49          6           0        3.217870    3.380024   -0.646190
     50          1           0        3.853028    2.966575   -1.435575
     51          1           0        3.218952    4.472154   -0.766901
     52          7           0        1.877705    2.852839   -0.939993
     53          1           0        1.768433    2.584843   -1.910914
     54          7           0        0.678801    3.634275    0.906450
     55          1           0       -0.214086    4.063876    1.143318
     56          1           0        1.559102    3.209287    2.365663
     57          7           0       -0.376889    3.259216   -1.211414
     58          1           0       -1.239818    3.572584   -0.780134
     59          1           0       -0.215916    3.745810   -2.089073
     60          6           0        0.734958    3.300435   -0.344159
     61          8           0        1.907052    3.019719    3.291069
     62          1           0        3.224097    2.362228   -6.033218
 ---------------------------------------------------------------------

 SCF Done:  E(RB3LYP) =  -1447.50341811     A.U. after    2 cycles

 Alpha  occ. eigenvalues --  -19.33202 -19.28532 -19.28324 -19.23837 -19.22792
 Alpha  occ. eigenvalues --  -19.19090 -14.62015 -14.50171 -14.46742 -14.46399
 Alpha  occ. eigenvalues --  -14.44928 -14.40693 -10.46606 -10.44927 -10.42680
 Alpha  occ. eigenvalues --  -10.39879 -10.39565 -10.37807 -10.35892 -10.35859
 Alpha  occ. eigenvalues --  -10.35038 -10.31819 -10.30954 -10.28767 -10.27997
 Alpha  occ. eigenvalues --  -10.26782 -10.26338 -10.25671 -10.25227  -1.24544
 Alpha  occ. eigenvalues --   -1.20983  -1.15797  -1.15651  -1.15173  -1.14448
 Alpha  occ. eigenvalues --   -1.08894  -1.07452  -1.07068  -1.03062  -0.99414
 Alpha  occ. eigenvalues --   -0.97216  -0.95758  -0.92016  -0.89785  -0.88136
 Alpha  occ. eigenvalues --   -0.85597  -0.82675  -0.81165  -0.76951  -0.76539
 Alpha  occ. eigenvalues --   -0.76320  -0.75867  -0.75219  -0.73563  -0.72419
 Alpha  occ. eigenvalues --   -0.71219  -0.69122  -0.68259  -0.66810  -0.65946
 Alpha  occ. eigenvalues --   -0.65711  -0.65057  -0.64813  -0.64002  -0.62997
 Alpha  occ. eigenvalues --   -0.62976  -0.62292  -0.61896  -0.60178  -0.58474
 Alpha  occ. eigenvalues --   -0.57530  -0.57343  -0.56963  -0.56826  -0.55909
 Alpha  occ. eigenvalues --   -0.55238  -0.54810  -0.54081  -0.53899  -0.53063
 Alpha  occ. eigenvalues --   -0.52677  -0.52432  -0.51756  -0.51260  -0.50792
 Alpha  occ. eigenvalues --   -0.50197  -0.49556  -0.49286  -0.48496  -0.48190
 Alpha  occ. eigenvalues --   -0.47713  -0.46792  -0.46540  -0.45650  -0.45272
 Alpha  occ. eigenvalues --   -0.44327  -0.43646  -0.43140  -0.42692  -0.42186
 Alpha  occ. eigenvalues --   -0.41913  -0.41619  -0.41357  -0.41244  -0.39956
 Alpha  occ. eigenvalues --   -0.39073  -0.37397  -0.36934  -0.36550  -0.35510
 Alpha  occ. eigenvalues --   -0.33437  -0.32405
 Alpha virt. eigenvalues --   -0.14274  -0.13551  -0.12367  -0.08738  -0.08406
 Alpha virt. eigenvalues --   -0.06978  -0.06023  -0.05851  -0.05012  -0.04283
 Alpha virt. eigenvalues --   -0.02840  -0.02597  -0.01551  -0.00930  -0.00222

 Mulliken charges:
               1
     1  N   -0.755225
     2  H    0.420587
     3  H    0.433189
     4  H    0.410536
     5  C   -0.126040
     6  H    0.217484
     7  C    0.658833
     8  C   -0.315195
     9  H    0.224939
    10  H    0.193094
    11  O   -0.539818
    12  C   -0.380507
    13  H    0.217395
    14  H    0.174914
    15  C    0.609992
    16  O   -0.460741
    17  O   -0.542668
    18  N   -0.578172
    19  H    0.371153
    20  C   -0.104791
    21  H    0.183845
    22  C    0.655410
    23  C   -0.254122
    24  H    0.157579
    25  H    0.158409
    26  O   -0.562331
    27  C   -0.071574
    28  H    0.122544
    29  C   -0.447119
    30  H    0.156135
    31  H    0.157007
    32  H    0.149631
    33  C   -0.461778
    34  H    0.147703
    35  H    0.147262
    36  H    0.160290
    37  N   -0.614339
    38  H    0.345105
    39  C   -0.035095
    40  H    0.196890
    41  C    0.571840
    42  C   -0.288254
    43  H    0.176951
    44  H    0.176887
    45  O   -0.435275
    46  C   -0.287157
    47  H    0.175376
    48  H    0.162486
    49  C   -0.142932
    50  H    0.154935
    51  H    0.160872
    52  N   -0.611844
    53  H    0.370192
    54  N   -0.709150
    55  H    0.299551
    56  H    0.475538
    57  N   -0.777023
    58  H    0.336668
    59  H    0.335782
    60  C    0.627304
    61  O   -0.632029
    62  H    0.438875
 Sum of Mulliken charges =   1.00000

 Dipole moment (field-independent basis, Debye):
    X=             -6.0110    Y=              2.2318    Z=            -21.5329  Tot=             22.4673
 Quadrupole moment (field-independent basis, Debye-Ang):
   XX=           -151.2764   YY=           -149.8492   ZZ=           -101.7247
   XY=              6.0079   XZ=             -5.5425   YZ=            -20.7611

 Normal termination of Gaussian 16 at Thu Jun 23 05:43:20 2022.
