 Gaussian 16, Revision C.01,
 Gaussian 16:  ES64L-G16RevC.01  3-Jul-2019

 ----------------------------------------------------------------------
 # B3LYP/6-31G* empiricaldispersion=gd3 guess=read geom=check nosymm in
 tegral(ultrafinegrid)
 ----------------------------------------------------------------------

 ------------------------------------------------------
 Candidate Structure: Conf:205 Charge calc in gas phase
 ------------------------------------------------------
 Structure from the checkpoint file:  "conf-205.chk"
 Charge =  1 Multiplicity = 1

                          Input orientation:
 ---------------------------------------------------------------------
 Center     Atomic      Atomic             Coordinates (Angstroms)
 Number     Number       Type             X           Y           Z
 ---------------------------------------------------------------------
      1          7           0        1.477725    6.236527   -7.062425
      2          1           0        2.460716    6.140132   -7.329299
      3          1           0        1.178234    5.371611   -6.468737
      4          1           0        1.403753    7.070532   -6.446464
      5          6           0        0.598249    6.330799   -8.260622
      6          1           0        0.868097    7.213651   -8.848150
      7          1           0        0.754156    5.438400   -8.873242
      8          6           0       -0.848356    6.418839   -7.758100
      9          8           0       -1.065276    6.575461   -6.563915
     10          7           0       -1.834819    6.353106   -8.686222
     11          1           0       -1.603259    6.101948   -9.639466
     12          6           0       -3.229338    6.179821   -8.252877
     13          1           0       -3.376782    5.196751   -7.797343
     14          1           0       -3.865719    6.256917   -9.138922
     15          6           0       -3.685794    7.208279   -7.208479
     16          8           0       -4.423609    6.878779   -6.290486
     17          7           0       -3.271484    8.493758   -7.403121
     18          1           0       -2.512642    8.662025   -8.049170
     19          6           0       -3.457572    9.453235   -6.323451
     20          1           0       -3.225560   10.452951   -6.694479
     21          1           0       -4.501480    9.423464   -6.005538
     22          6           0       -2.493931    9.153203   -5.167631
     23          8           0       -1.305552    9.499016   -5.266675
     24          7           0       -3.015971    8.492186   -4.117891
     25          1           0       -3.922169    8.060284   -4.264604
     26          6           0       -2.303398    8.188816   -2.877667
     27          1           0       -1.606185    9.003359   -2.657709
     28          1           0       -3.030282    8.117799   -2.068271
     29          6           0       -1.504461    6.878021   -2.897450
     30          8           0       -1.693507    5.973867   -2.079218
     31          7           0       -0.530939    6.829378   -3.832362
     32          1           0       -0.527987    7.507077   -4.582592
     33          6           0        0.435829    5.755801   -3.877043
     34          1           0        1.349963    6.130962   -4.326718
     35          1           0        0.693145    5.461815   -2.862693
     36          6           0        0.006236    4.497988   -4.614144
     37          8           0        0.508568    4.164938   -5.711010
     38          7           0       -0.883158    3.740618   -3.959542
     39          1           0       -1.262424    4.126917   -3.095815
     40          6           0       -1.225061    2.395190   -4.387154
     41          1           0       -2.185414    2.113855   -3.947987
     42          1           0       -1.327162    2.368339   -5.473633
     43          6           0       -0.193487    1.313138   -4.016802
     44          8           0       -0.293876    0.203941   -4.520151
     45          7           0        0.780267    1.670876   -3.133775
     46          1           0        0.757442    2.562290   -2.654974
     47          6           0        1.734856    0.706838   -2.644591
     48          1           0        1.451485   -0.273780   -3.036861
     49          1           0        2.742759    0.933286   -3.023918
     50          6           0        1.797400    0.707026   -1.111474
     51          8           0        1.352740    1.636638   -0.438836
     52          7           0        2.422814   -0.375024   -0.596463
     53          1           0        2.835447   -1.071991   -1.208723
     54          6           0        2.767735   -0.530129    0.799725
     55          1           0        1.953061   -1.008376    1.361126
     56          1           0        2.961992    0.448533    1.244745
     57          6           0        4.026135   -1.400339    0.876641
     58          8           0        4.512920   -1.908005   -0.136369
     59          7           0        4.551113   -1.591882    2.108444
     60          1           0        4.113921   -1.149835    2.905401
     61          6           0        5.651467   -2.530081    2.320471
     62          1           0        5.813093   -2.625926    3.397544
     63          1           0        5.388982   -3.514543    1.925119
     64          6           0        6.986220   -2.156673    1.651117
     65          8           0        7.791343   -3.034953    1.383230
     66          7           0        7.193102   -0.828091    1.431090
     67          1           0        6.424865   -0.180977    1.575466
     68          6           0        8.284807   -0.353861    0.591399
     69          1           0        9.001926    0.250065    1.153627
     70          1           0        8.802051   -1.233699    0.194699
     71          6           0        7.725694    0.530381   -0.525983
     72          8           0        8.170213    1.641335   -0.774095
     73          7           0        6.638077    0.004815   -1.193003
     74          1           0        6.214132   -0.829313   -0.797202
     75          6           0        5.693435    0.955314   -1.720087
     76          1           0        4.923284    0.420308   -2.285320
     77          1           0        6.202050    1.648839   -2.395601
     78          6           0        5.022006    1.746963   -0.577962
     79          8           0        5.111751    1.411827    0.605012
     80          7           0        4.309407    2.834918   -0.951477
     81          1           0        4.174528    3.077292   -1.924925
     82          6           0        3.593962    3.618915    0.028683
     83          1           0        2.982573    2.959645    0.654234
     84          1           0        4.293997    4.153049    0.685005
     85          6           0        2.656901    4.591717   -0.665703
     86          8           0        2.410648    4.517436   -1.879188
     87          7           0        2.121962    5.545577    0.127112
     88          1           0        2.398373    5.564033    1.099909
     89          6           0        1.008516    6.404189   -0.266286
     90          1           0        0.539427    6.793013    0.638308
     91          1           0        0.247307    5.812582   -0.785101
     92          6           0        1.312568    7.639702   -1.131874
     93          8           0        0.592306    8.625095   -1.046298
     94          7           0        2.370852    7.563382   -1.995050
     95          1           0        2.786602    6.657802   -2.177126
     96          6           0        2.748645    8.705200   -2.820000
     97          1           0        3.765246    8.545981   -3.185630
     98          1           0        2.707009    9.609132   -2.209838
     99          6           0        1.815595    8.873009   -4.023239
    100          8           0        1.897346    8.166892   -5.030367
    101          8           0        0.915183    9.810810   -3.834351
    102          1           0        0.184252    9.769708   -4.508337
 ---------------------------------------------------------------------

 SCF Done:  E(RB3LYP) =  -2989.16051955     A.U. after    1 cycles

 Alpha  occ. eigenvalues --  -19.28820 -19.27010 -19.25434 -19.24611 -19.24298
 Alpha  occ. eigenvalues --  -19.23494 -19.22892 -19.22357 -19.20897 -19.20619
 Alpha  occ. eigenvalues --  -19.20178 -19.19935 -19.18764 -19.16934 -19.16206
 Alpha  occ. eigenvalues --  -14.56245 -14.51349 -14.48069 -14.47534 -14.47518
 Alpha  occ. eigenvalues --  -14.47192 -14.46185 -14.46135 -14.44948 -14.44844
 Alpha  occ. eigenvalues --  -14.44220 -14.43913 -14.41035 -14.40647 -10.44477
 Alpha  occ. eigenvalues --  -10.43258 -10.40960 -10.40433 -10.40428 -10.40328
 Alpha  occ. eigenvalues --  -10.40069 -10.39238 -10.38435 -10.37708 -10.37191
 Alpha  occ. eigenvalues --  -10.36976 -10.36692 -10.35623 -10.33949 -10.33901
 Alpha  occ. eigenvalues --  -10.33823 -10.33312 -10.32993 -10.32630 -10.32413
 Alpha  occ. eigenvalues --  -10.32096 -10.31990 -10.31036 -10.30896 -10.30019
 Alpha  occ. eigenvalues --  -10.29673 -10.27311  -1.20875  -1.19587  -1.15780
 Alpha  occ. eigenvalues --   -1.15624  -1.15067  -1.14745  -1.13881  -1.12917
 Alpha  occ. eigenvalues --   -1.12721  -1.12125  -1.11959  -1.11681  -1.11206
 Alpha  occ. eigenvalues --   -1.10808  -1.08851  -1.08207  -1.07143  -1.04223
 Alpha  occ. eigenvalues --   -1.03925  -1.03539  -1.03476  -1.02465  -1.01867
 Alpha  occ. eigenvalues --   -1.01039  -1.00950  -1.00518  -0.99896  -0.98329
 Alpha  occ. eigenvalues --   -0.96557  -0.90235  -0.87607  -0.86676  -0.85946
 Alpha  occ. eigenvalues --   -0.84720  -0.84162  -0.83749  -0.82155  -0.81416
 Alpha  occ. eigenvalues --   -0.80712  -0.79599  -0.78495  -0.76787  -0.74892
 Alpha  occ. eigenvalues --   -0.74109  -0.73204  -0.72232  -0.71411  -0.70817
 Alpha  occ. eigenvalues --   -0.69898  -0.69730  -0.69179  -0.68489  -0.68192
 Alpha  occ. eigenvalues --   -0.67888  -0.67626  -0.66812  -0.66297  -0.66255
 Alpha  occ. eigenvalues --   -0.65209  -0.64660  -0.64595  -0.63758  -0.63493
 Alpha  occ. eigenvalues --   -0.63364  -0.62945  -0.62761  -0.62273  -0.61573
 Alpha  occ. eigenvalues --   -0.61067  -0.60530  -0.60218  -0.59846  -0.59523
 Alpha  occ. eigenvalues --   -0.59278  -0.58835  -0.58343  -0.57918  -0.57707
 Alpha  occ. eigenvalues --   -0.57237  -0.56923  -0.56723  -0.56521  -0.56168
 Alpha  occ. eigenvalues --   -0.55792  -0.55637  -0.55386  -0.55205  -0.54646
 Alpha  occ. eigenvalues --   -0.54299  -0.54109  -0.53809  -0.53552  -0.53380
 Alpha  occ. eigenvalues --   -0.53092  -0.52650  -0.52536  -0.52367  -0.51884
 Alpha  occ. eigenvalues --   -0.51485  -0.51371  -0.51124  -0.50963  -0.50887
 Alpha  occ. eigenvalues --   -0.50438  -0.50345  -0.50165  -0.49847  -0.49726
 Alpha  occ. eigenvalues --   -0.49653  -0.49227  -0.49151  -0.48883  -0.48640
 Alpha  occ. eigenvalues --   -0.48479  -0.48246  -0.48048  -0.47839  -0.47537
 Alpha  occ. eigenvalues --   -0.47365  -0.47287  -0.46892  -0.46058  -0.45632
 Alpha  occ. eigenvalues --   -0.45051  -0.44936  -0.43943  -0.43630  -0.43095
 Alpha  occ. eigenvalues --   -0.42378  -0.42043  -0.41453  -0.40828  -0.40718
 Alpha  occ. eigenvalues --   -0.39981  -0.39715  -0.39555  -0.39173  -0.38493
 Alpha  occ. eigenvalues --   -0.38336  -0.37670  -0.36948  -0.35867  -0.35560
 Alpha  occ. eigenvalues --   -0.35372  -0.35190  -0.35154  -0.35086  -0.34579
 Alpha  occ. eigenvalues --   -0.34327  -0.34213  -0.33657  -0.33365  -0.32895
 Alpha  occ. eigenvalues --   -0.32267  -0.32255  -0.30727  -0.29923  -0.29487
 Alpha virt. eigenvalues --   -0.13283  -0.11075  -0.10748  -0.09865  -0.09499
 Alpha virt. eigenvalues --   -0.09106  -0.08504  -0.07820  -0.07106  -0.06419
 Alpha virt. eigenvalues --   -0.05896  -0.05862  -0.05707  -0.04906  -0.04000

 Mulliken charges:
               1
     1  N   -0.794647
     2  H    0.397358
     3  H    0.454468
     4  H    0.438745
     5  C   -0.276202
     6  H    0.231056
     7  H    0.227869
     8  C    0.632913
     9  O   -0.498147
    10  N   -0.617696
    11  H    0.356771
    12  C   -0.227572
    13  H    0.217858
    14  H    0.208225
    15  C    0.620258
    16  O   -0.509329
    17  N   -0.560800
    18  H    0.338575
    19  C   -0.234085
    20  H    0.200024
    21  H    0.203145
    22  C    0.624454
    23  O   -0.577269
    24  N   -0.559885
    25  H    0.378372
    26  C   -0.261588
    27  H    0.236303
    28  H    0.206458
    29  C    0.613414
    30  O   -0.534714
    31  N   -0.574837
    32  H    0.374174
    33  C   -0.291056
    34  H    0.167564
    35  H    0.224003
    36  C    0.661223
    37  O   -0.589009
    38  N   -0.595336
    39  H    0.385023
    40  C   -0.233599
    41  H    0.205268
    42  H    0.206370
    43  C    0.605032
    44  O   -0.501011
    45  N   -0.594365
    46  H    0.349540
    47  C   -0.236853
    48  H    0.217264
    49  H    0.170871
    50  C    0.616272
    51  O   -0.546099
    52  N   -0.603819
    53  H    0.359618
    54  C   -0.210873
    55  H    0.189806
    56  H    0.212353
    57  C    0.623230
    58  O   -0.537427
    59  N   -0.611433
    60  H    0.346379
    61  C   -0.228416
    62  H    0.189916
    63  H    0.212024
    64  C    0.600344
    65  O   -0.499739
    66  N   -0.617842
    67  H    0.366644
    68  C   -0.216279
    69  H    0.186686
    70  H    0.215067
    71  C    0.565790
    72  O   -0.507351
    73  N   -0.574887
    74  H    0.379348
    75  C   -0.257469
    76  H    0.172576
    77  H    0.197276
    78  C    0.643647
    79  O   -0.552318
    80  N   -0.615301
    81  H    0.345909
    82  C   -0.191702
    83  H    0.230653
    84  H    0.188268
    85  C    0.612321
    86  O   -0.567495
    87  N   -0.585768
    88  H    0.357029
    89  C   -0.265326
    90  H    0.204971
    91  H    0.236525
    92  C    0.602777
    93  O   -0.502146
    94  N   -0.601530
    95  H    0.359944
    96  C   -0.198292
    97  H    0.184857
    98  H    0.216767
    99  C    0.606180
   100  O   -0.539833
   101  O   -0.538273
   102  H    0.461846
 Sum of Mulliken charges =   1.00000

 Dipole moment (field-independent basis, Debye):
    X=             -1.2779    Y=             32.6662    Z=            -26.4112  Tot=             42.0269
 Quadrupole moment (field-independent basis, Debye-Ang):
   XX=           -344.9032   YY=           -111.6973   ZZ=            -50.2635
   XY=              7.0161   XZ=             21.4756   YZ=           -220.9242

 Normal termination of Gaussian 16 at Thu Aug 11 11:21:20 2022.
