 Gaussian 16, Revision C.01,
 Gaussian 16:  ES64L-G16RevC.01  3-Jul-2019

 ----------------------------------------------------------------------
 # B3LYP/6-31G* empiricaldispersion=gd3 guess=read geom=check nosymm in
 tegral(ultrafinegrid)
 ----------------------------------------------------------------------

 ------------------------------------------------------
 Candidate Structure: Conf:202 Charge calc in gas phase
 ------------------------------------------------------
 Structure from the checkpoint file:  "conf-202.chk"
 Charge =  1 Multiplicity = 1

                          Input orientation:
 ---------------------------------------------------------------------
 Center     Atomic      Atomic             Coordinates (Angstroms)
 Number     Number       Type             X           Y           Z
 ---------------------------------------------------------------------
      1          7           0        1.441504    9.607120    0.816883
      2          1           0        1.681254    9.597362   -0.198028
      3          1           0        0.690594    8.904235    0.925430
      4          1           0        2.316398    9.303863    1.293432
      5          6           0        1.025270   10.996256    1.192264
      6          1           0        0.918233   11.060900    2.274221
      7          1           0        1.809557   11.673514    0.846304
      8          6           0       -0.340002   11.260630    0.550320
      9          8           0       -1.364152   11.186514    1.226067
     10          7           0       -0.327067   11.473660   -0.790632
     11          1           0        0.527727   11.284979   -1.313416
     12          6           0       -1.576800   11.386442   -1.547994
     13          1           0       -1.437682   11.846002   -2.526319
     14          1           0       -2.359800   11.913460   -0.998747
     15          6           0       -1.900696    9.901525   -1.741402
     16          8           0       -1.604337    9.297267   -2.776898
     17          7           0       -2.424294    9.278371   -0.658133
     18          1           0       -2.505840    9.808928    0.204747
     19          6           0       -2.496207    7.828935   -0.622771
     20          1           0       -2.855848    7.526800    0.363936
     21          1           0       -3.210290    7.471337   -1.371581
     22          6           0       -1.105494    7.213694   -0.838882
     23          8           0       -0.133394    7.548077   -0.151063
     24          7           0       -1.011606    6.306945   -1.835271
     25          1           0       -1.809102    6.186342   -2.444491
     26          6           0        0.255921    5.704086   -2.214377
     27          1           0        0.760320    5.290016   -1.335784
     28          1           0        0.055585    4.869024   -2.891908
     29          6           0        1.254044    6.643938   -2.898035
     30          8           0        2.428740    6.282569   -3.039878
     31          7           0        0.806437    7.842247   -3.331399
     32          1           0       -0.135788    8.169053   -3.119571
     33          6           0        1.747538    8.829227   -3.844527
     34          1           0        2.380084    8.377869   -4.612982
     35          1           0        1.173920    9.650674   -4.277199
     36          6           0        2.570818    9.366206   -2.674500
     37          8           0        2.038611   10.113258   -1.822741
     38          7           0        3.833840    8.942673   -2.556929
     39          1           0        4.181583    8.184197   -3.143478
     40          6           0        4.585004    9.188311   -1.334258
     41          1           0        5.620426    8.909181   -1.526578
     42          1           0        4.533587   10.241292   -1.056117
     43          6           0        4.053321    8.376869   -0.142757
     44          8           0        4.069271    8.858955    1.002610
     45          7           0        3.529033    7.178128   -0.431488
     46          1           0        3.552588    6.835826   -1.389238
     47          6           0        3.032364    6.264547    0.595225
     48          1           0        3.594057    6.448535    1.515427
     49          1           0        1.964334    6.420672    0.771366
     50          6           0        3.214860    4.831233    0.089986
     51          8           0        2.244623    4.133824   -0.234613
     52          7           0        4.497252    4.441205   -0.030748
     53          1           0        5.241060    5.100047    0.227530
     54          6           0        4.852724    3.198467   -0.704817
     55          1           0        4.201653    2.395312   -0.347551
     56          1           0        5.886190    2.948326   -0.463381
     57          6           0        4.735579    3.359081   -2.230437
     58          8           0        5.706253    3.627526   -2.944239
     59          7           0        3.477288    3.215591   -2.701167
     60          1           0        2.727982    3.163725   -2.019529
     61          6           0        3.170093    3.412085   -4.096404
     62          1           0        2.098794    3.237221   -4.237996
     63          1           0        3.376804    4.448300   -4.391426
     64          6           0        3.955368    2.425791   -4.975801
     65          8           0        4.421616    1.379299   -4.542534
     66          7           0        4.103278    2.811573   -6.275327
     67          1           0        3.795033    3.730187   -6.564022
     68          6           0        4.937053    2.047185   -7.202580
     69          1           0        4.834238    0.988769   -6.948731
     70          1           0        4.597801    2.213166   -8.225364
     71          6           0        6.406410    2.494346   -7.115036
     72          8           0        6.989514    3.006151   -8.058198
     73          7           0        6.968340    2.333892   -5.875314
     74          1           0        6.426963    1.894096   -5.137286
     75          6           0        8.257120    2.911880   -5.566275
     76          1           0        8.900788    2.853321   -6.449211
     77          1           0        8.737673    2.350036   -4.761575
     78          6           0        8.230777    4.383717   -5.145970
     79          8           0        9.262911    4.948476   -4.773910
     80          7           0        7.032074    5.022018   -5.235521
     81          1           0        6.207870    4.435216   -5.186896
     82          6           0        6.893253    6.410687   -4.826650
     83          1           0        7.779062    6.953340   -5.169746
     84          1           0        6.002968    6.837963   -5.291769
     85          6           0        6.745842    6.520333   -3.307646
     86          8           0        5.681210    6.834741   -2.764276
     87          7           0        7.865623    6.196459   -2.607012
     88          1           0        8.635438    5.822977   -3.168898
     89          6           0        7.727556    5.707143   -1.242887
     90          1           0        8.708162    5.349710   -0.912378
     91          1           0        7.031614    4.866778   -1.226746
     92          6           0        7.238790    6.747052   -0.236237
     93          8           0        6.418930    6.450048    0.638408
     94          7           0        7.811686    7.968150   -0.328874
     95          1           0        8.448888    8.143743   -1.095562
     96          6           0        7.501296    9.057465    0.580754
     97          1           0        8.287694    9.177317    1.339275
     98          1           0        6.572681    8.832129    1.108851
     99          6           0        7.341542   10.399930   -0.112368
    100          8           0        6.766756   11.347792    0.364008
    101          8           0        7.943328   10.422700   -1.329474
    102          1           0        7.844599   11.328322   -1.680495
 ---------------------------------------------------------------------

 SCF Done:  E(RB3LYP) =  -2989.20850989     A.U. after    2 cycles

 Alpha  occ. eigenvalues --  -19.29729 -19.25465 -19.25009 -19.24322 -19.24079
 Alpha  occ. eigenvalues --  -19.23514 -19.23126 -19.22753 -19.22752 -19.22091
 Alpha  occ. eigenvalues --  -19.21539 -19.20627 -19.20090 -19.19952 -19.18329
 Alpha  occ. eigenvalues --  -14.54222 -14.49139 -14.48526 -14.48358 -14.47876
 Alpha  occ. eigenvalues --  -14.47393 -14.46880 -14.46432 -14.45410 -14.45305
 Alpha  occ. eigenvalues --  -14.44914 -14.44516 -14.44409 -14.42679 -10.41946
 Alpha  occ. eigenvalues --  -10.41939 -10.41862 -10.41658 -10.40847 -10.40436
 Alpha  occ. eigenvalues --  -10.39897 -10.39219 -10.38964 -10.38440 -10.37605
 Alpha  occ. eigenvalues --  -10.37376 -10.36935 -10.36849 -10.35538 -10.35133
 Alpha  occ. eigenvalues --  -10.34752 -10.34210 -10.33910 -10.33420 -10.32832
 Alpha  occ. eigenvalues --  -10.32331 -10.32299 -10.32082 -10.31983 -10.31502
 Alpha  occ. eigenvalues --  -10.30352 -10.29867  -1.20334  -1.17109  -1.16729
 Alpha  occ. eigenvalues --   -1.16333  -1.15316  -1.14826  -1.14541  -1.14224
 Alpha  occ. eigenvalues --   -1.13489  -1.13193  -1.12660  -1.11766  -1.11493
 Alpha  occ. eigenvalues --   -1.11366  -1.10159  -1.09784  -1.05392  -1.05171
 Alpha  occ. eigenvalues --   -1.04770  -1.03959  -1.03385  -1.03129  -1.02824
 Alpha  occ. eigenvalues --   -1.01806  -1.01396  -1.01192  -1.00780  -1.00644
 Alpha  occ. eigenvalues --   -0.98594  -0.88981  -0.87972  -0.86657  -0.86427
 Alpha  occ. eigenvalues --   -0.85578  -0.84575  -0.83740  -0.83119  -0.81930
 Alpha  occ. eigenvalues --   -0.81030  -0.80337  -0.79598  -0.78165  -0.76583
 Alpha  occ. eigenvalues --   -0.73052  -0.72112  -0.71821  -0.71450  -0.70422
 Alpha  occ. eigenvalues --   -0.69809  -0.69491  -0.69347  -0.69150  -0.68997
 Alpha  occ. eigenvalues --   -0.68421  -0.68163  -0.67053  -0.66556  -0.66382
 Alpha  occ. eigenvalues --   -0.65876  -0.65509  -0.65363  -0.64591  -0.64131
 Alpha  occ. eigenvalues --   -0.63215  -0.63071  -0.62665  -0.61949  -0.61905
 Alpha  occ. eigenvalues --   -0.61503  -0.61263  -0.60893  -0.60364  -0.59928
 Alpha  occ. eigenvalues --   -0.59477  -0.59093  -0.58772  -0.58292  -0.58160
 Alpha  occ. eigenvalues --   -0.57857  -0.57256  -0.56972  -0.56751  -0.56227
 Alpha  occ. eigenvalues --   -0.55994  -0.55720  -0.55579  -0.55233  -0.55052
 Alpha  occ. eigenvalues --   -0.54917  -0.54428  -0.54203  -0.54055  -0.53832
 Alpha  occ. eigenvalues --   -0.53508  -0.53437  -0.53136  -0.52968  -0.52716
 Alpha  occ. eigenvalues --   -0.52373  -0.52158  -0.51808  -0.51749  -0.51460
 Alpha  occ. eigenvalues --   -0.51230  -0.50848  -0.50629  -0.50605  -0.50256
 Alpha  occ. eigenvalues --   -0.50174  -0.49897  -0.49775  -0.49659  -0.49521
 Alpha  occ. eigenvalues --   -0.49372  -0.49074  -0.48892  -0.48476  -0.48366
 Alpha  occ. eigenvalues --   -0.48034  -0.47627  -0.47274  -0.47170  -0.47046
 Alpha  occ. eigenvalues --   -0.46901  -0.46432  -0.46271  -0.45795  -0.44429
 Alpha  occ. eigenvalues --   -0.44242  -0.43399  -0.41682  -0.40919  -0.40575
 Alpha  occ. eigenvalues --   -0.40337  -0.40003  -0.39735  -0.38322  -0.38122
 Alpha  occ. eigenvalues --   -0.37671  -0.37537  -0.37336  -0.37210  -0.36834
 Alpha  occ. eigenvalues --   -0.36547  -0.36397  -0.36075  -0.35832  -0.35725
 Alpha  occ. eigenvalues --   -0.35637  -0.35514  -0.35183  -0.34787  -0.34590
 Alpha  occ. eigenvalues --   -0.33576  -0.33532  -0.32774  -0.31505  -0.31200
 Alpha virt. eigenvalues --   -0.12458  -0.11980  -0.11301  -0.09687  -0.09509
 Alpha virt. eigenvalues --   -0.09408  -0.09164  -0.08802  -0.08235  -0.07827
 Alpha virt. eigenvalues --   -0.07278  -0.06483  -0.05713  -0.04489  -0.04050

 Mulliken charges:
               1
     1  N   -0.819037
     2  H    0.440506
     3  H    0.422746
     4  H    0.435693
     5  C   -0.252527
     6  H    0.234829
     7  H    0.226883
     8  C    0.583431
     9  O   -0.503868
    10  N   -0.583044
    11  H    0.384623
    12  C   -0.240281
    13  H    0.201830
    14  H    0.215258
    15  C    0.596423
    16  O   -0.543936
    17  N   -0.568711
    18  H    0.385166
    19  C   -0.230066
    20  H    0.209189
    21  H    0.187580
    22  C    0.618800
    23  O   -0.559036
    24  N   -0.578607
    25  H    0.358304
    26  C   -0.265453
    27  H    0.261415
    28  H    0.190851
    29  C    0.613873
    30  O   -0.555228
    31  N   -0.613669
    32  H    0.415943
    33  C   -0.221394
    34  H    0.187222
    35  H    0.200341
    36  C    0.616336
    37  O   -0.589213
    38  N   -0.577197
    39  H    0.389175
    40  C   -0.237496
    41  H    0.213776
    42  H    0.206248
    43  C    0.603786
    44  O   -0.578443
    45  N   -0.610352
    46  H    0.415399
    47  C   -0.221395
    48  H    0.214033
    49  H    0.190505
    50  C    0.564240
    51  O   -0.536178
    52  N   -0.599720
    53  H    0.416217
    54  C   -0.252013
    55  H    0.201866
    56  H    0.188101
    57  C    0.627949
    58  O   -0.553365
    59  N   -0.561817
    60  H    0.371714
    61  C   -0.234362
    62  H    0.177389
    63  H    0.183428
    64  C    0.622209
    65  O   -0.515566
    66  N   -0.594957
    67  H    0.334273
    68  C   -0.235282
    69  H    0.212147
    70  H    0.191627
    71  C    0.575593
    72  O   -0.488038
    73  N   -0.620407
    74  H    0.377275
    75  C   -0.217665
    76  H    0.227359
    77  H    0.191583
    78  C    0.608703
    79  O   -0.539155
    80  N   -0.563256
    81  H    0.356495
    82  C   -0.237341
    83  H    0.207436
    84  H    0.165130
    85  C    0.619983
    86  O   -0.555376
    87  N   -0.606538
    88  H    0.390952
    89  C   -0.250791
    90  H    0.198497
    91  H    0.201958
    92  C    0.636429
    93  O   -0.548714
    94  N   -0.588401
    95  H    0.362935
    96  C   -0.236664
    97  H    0.215198
    98  H    0.250480
    99  C    0.579472
   100  O   -0.443429
   101  O   -0.574326
   102  H    0.425510
 Sum of Mulliken charges =   1.00000

 Dipole moment (field-independent basis, Debye):
    X=              8.8039    Y=             39.5420    Z=             -8.1539  Tot=             41.3227
 Quadrupole moment (field-independent basis, Debye-Ang):
   XX=           -239.4400   YY=             29.8931   ZZ=           -302.6572
   XY=             78.0382   XZ=             -0.0225   YZ=            -65.2652

 Normal termination of Gaussian 16 at Thu Aug 11 11:22:06 2022.
