 Gaussian 16, Revision C.01,
 Gaussian 16:  ES64L-G16RevC.01  3-Jul-2019

 ----------------------------------------------------------------------
 # B3LYP/6-31G* empiricaldispersion=gd3 guess=read geom=check nosymm in
 tegral(ultrafinegrid)
 ----------------------------------------------------------------------

 ------------------------------------------------------
 Candidate Structure: Conf:497 Charge calc in gas phase
 ------------------------------------------------------
 Structure from the checkpoint file:  "conf-497.chk"
 Charge =  1 Multiplicity = 1

                          Input orientation:
 ---------------------------------------------------------------------
 Center     Atomic      Atomic             Coordinates (Angstroms)
 Number     Number       Type             X           Y           Z
 ---------------------------------------------------------------------
      1          7           0       -0.560419   -0.662565   -7.246987
      2          1           0       -1.570042   -0.557138   -7.121249
      3          1           0       -0.054680    0.098567   -6.735892
      4          1           0       -0.261292   -1.588148   -6.820296
      5          6           0       -0.171619   -0.577556   -8.690635
      6          1           0       -0.662267   -1.390994   -9.231499
      7          1           0       -0.510769    0.382055   -9.086392
      8          6           0        1.348398   -0.754972   -8.739211
      9          8           0        1.865096   -1.566421   -7.971985
     10          7           0        2.035557   -0.007575   -9.620873
     11          1           0        1.572577    0.773549  -10.068730
     12          6           0        3.503260    0.057763   -9.539448
     13          1           0        3.886553    0.485737  -10.465144
     14          1           0        3.886916   -0.957996   -9.413697
     15          6           0        3.853461    0.997865   -8.370916
     16          8           0        4.055077    2.186931   -8.545750
     17          7           0        3.832570    0.394271   -7.132526
     18          1           0        3.427223   -0.535337   -7.103851
     19          6           0        3.623123    1.214434   -5.962588
     20          1           0        4.054474    0.749194   -5.069879
     21          1           0        4.137869    2.167352   -6.117873
     22          6           0        2.132594    1.512095   -5.717198
     23          8           0        1.257636    1.216935   -6.551601
     24          7           0        1.870593    2.151460   -4.563328
     25          1           0        2.606043    2.149729   -3.854167
     26          6           0        0.545850    2.604609   -4.185343
     27          1           0        0.602502    3.625176   -3.793918
     28          1           0       -0.078155    2.638823   -5.081173
     29          6           0       -0.190319    1.772169   -3.129440
     30          8           0       -1.269893    2.165913   -2.697640
     31          7           0        0.397242    0.603103   -2.733300
     32          1           0        1.405283    0.505243   -2.866137
     33          6           0       -0.156199   -0.095415   -1.568340
     34          1           0       -1.245194   -0.072851   -1.633463
     35          1           0        0.203855   -1.124049   -1.552368
     36          6           0        0.389964    0.616126   -0.334655
     37          8           0        1.511871    0.328999    0.088398
     38          7           0       -0.362995    1.627210    0.170836
     39          1           0       -1.159840    1.905717   -0.394890
     40          6           0        0.237811    2.676621    1.001153
     41          1           0        0.794521    3.389459    0.384266
     42          1           0       -0.574958    3.214947    1.499156
     43          6           0        1.229446    2.162674    2.057956
     44          8           0        2.362179    2.627975    2.117201
     45          7           0        0.732591    1.241224    2.923511
     46          1           0       -0.199107    0.883099    2.759394
     47          6           0        1.524663    0.644823    3.986216
     48          1           0        2.431913    1.245390    4.100690
     49          1           0        0.975643    0.660093    4.931192
     50          6           0        1.995575   -0.789725    3.751018
     51          8           0        2.319982   -1.487036    4.714598
     52          7           0        2.074065   -1.207906    2.463643
     53          1           0        1.938524   -0.539334    1.710042
     54          6           0        2.749379   -2.457736    2.119982
     55          1           0        2.490483   -2.727344    1.095164
     56          1           0        2.424689   -3.238592    2.812917
     57          6           0        4.259460   -2.221203    2.212291
     58          8           0        4.957098   -1.967561    1.219866
     59          7           0        4.770209   -2.183148    3.466405
     60          1           0        4.082963   -2.152742    4.220682
     61          6           0        6.008427   -1.447313    3.653818
     62          1           0        6.231098   -1.409470    4.723613
     63          1           0        6.830998   -1.960973    3.147981
     64          6           0        5.832359   -0.010161    3.130448
     65          8           0        4.790016    0.613001    3.322420
     66          7           0        6.895392    0.520443    2.472955
     67          1           0        7.620091   -0.101775    2.141496
     68          6           0        6.808582    1.841688    1.861524
     69          1           0        6.277493    2.497939    2.555713
     70          1           0        7.817473    2.222815    1.697463
     71          6           0        6.107673    1.803509    0.494425
     72          8           0        6.736108    1.792215   -0.557764
     73          7           0        4.741310    1.761204    0.528404
     74          1           0        4.237369    1.829208    1.409951
     75          6           0        4.006868    1.909592   -0.704607
     76          1           0        4.487584    2.656577   -1.346054
     77          1           0        2.998513    2.246093   -0.460396
     78          6           0        3.873866    0.655128   -1.558279
     79          8           0        3.414071    0.744828   -2.727207
     80          7           0        4.235236   -0.509089   -1.032064
     81          1           0        4.529698   -0.583427   -0.058681
     82          6           0        4.190256   -1.751553   -1.776752
     83          1           0        4.794961   -1.659794   -2.686033
     84          1           0        4.620300   -2.516143   -1.129131
     85          6           0        2.762192   -2.199291   -2.122982
     86          8           0        2.005243   -2.709617   -1.309642
     87          7           0        2.426759   -2.027498   -3.449650
     88          1           0        2.961347   -1.319675   -3.939833
     89          6           0        1.116418   -2.365929   -3.970508
     90          1           0        0.478928   -1.481673   -4.085731
     91          1           0        0.632120   -3.026217   -3.243371
     92          6           0        1.168143   -3.063236   -5.328395
     93          8           0        0.192962   -3.010095   -6.095073
     94          7           0        2.304376   -3.729030   -5.592352
     95          1           0        3.032362   -3.651815   -4.891447
     96          6           0        2.688807   -4.199692   -6.908103
     97          1           0        1.837944   -4.093665   -7.580145
     98          1           0        2.972690   -5.257931   -6.877400
     99          6           0        3.857656   -3.419161   -7.501144
    100          8           0        4.225639   -3.511173   -8.644733
    101          8           0        4.467177   -2.623765   -6.578017
    102          1           0        5.225914   -2.198813   -7.022650
 ---------------------------------------------------------------------

 SCF Done:  E(RB3LYP) =  -2989.19238642     A.U. after    1 cycles

 Alpha  occ. eigenvalues --  -19.30594 -19.25336 -19.24932 -19.24247 -19.24072
 Alpha  occ. eigenvalues --  -19.22887 -19.22764 -19.22659 -19.22378 -19.21502
 Alpha  occ. eigenvalues --  -19.20100 -19.19857 -19.19138 -19.18375 -19.18254
 Alpha  occ. eigenvalues --  -14.56234 -14.49823 -14.48202 -14.47782 -14.47400
 Alpha  occ. eigenvalues --  -14.47120 -14.47082 -14.45482 -14.45194 -14.44830
 Alpha  occ. eigenvalues --  -14.44050 -14.42774 -14.42604 -14.42511 -10.43050
 Alpha  occ. eigenvalues --  -10.42792 -10.41339 -10.41262 -10.39978 -10.39807
 Alpha  occ. eigenvalues --  -10.39653 -10.38954 -10.38677 -10.38492 -10.37963
 Alpha  occ. eigenvalues --  -10.36263 -10.36234 -10.35682 -10.35354 -10.34083
 Alpha  occ. eigenvalues --  -10.34074 -10.34062 -10.33615 -10.33097 -10.32908
 Alpha  occ. eigenvalues --  -10.32739 -10.32143 -10.30569 -10.30211 -10.29698
 Alpha  occ. eigenvalues --  -10.29643 -10.29409  -1.21055  -1.17998  -1.16083
 Alpha  occ. eigenvalues --   -1.15662  -1.15238  -1.14530  -1.14282  -1.13410
 Alpha  occ. eigenvalues --   -1.13116  -1.12170  -1.12050  -1.11878  -1.11124
 Alpha  occ. eigenvalues --   -1.10762  -1.10088  -1.09983  -1.05652  -1.05229
 Alpha  occ. eigenvalues --   -1.04797  -1.03314  -1.03018  -1.02560  -1.02151
 Alpha  occ. eigenvalues --   -1.01898  -1.00976  -0.99903  -0.99479  -0.98690
 Alpha  occ. eigenvalues --   -0.98485  -0.89053  -0.87866  -0.87468  -0.85455
 Alpha  occ. eigenvalues --   -0.84900  -0.83868  -0.83426  -0.82440  -0.81565
 Alpha  occ. eigenvalues --   -0.80446  -0.79533  -0.78769  -0.77387  -0.75499
 Alpha  occ. eigenvalues --   -0.72804  -0.72503  -0.72170  -0.71592  -0.70859
 Alpha  occ. eigenvalues --   -0.70288  -0.69822  -0.69264  -0.68633  -0.68350
 Alpha  occ. eigenvalues --   -0.67899  -0.67092  -0.67049  -0.66098  -0.65863
 Alpha  occ. eigenvalues --   -0.65288  -0.64956  -0.64912  -0.64418  -0.63746
 Alpha  occ. eigenvalues --   -0.63057  -0.62542  -0.62124  -0.61757  -0.61553
 Alpha  occ. eigenvalues --   -0.60820  -0.60689  -0.60037  -0.59659  -0.59464
 Alpha  occ. eigenvalues --   -0.59002  -0.58855  -0.58778  -0.58275  -0.57727
 Alpha  occ. eigenvalues --   -0.57442  -0.57163  -0.56770  -0.56509  -0.56176
 Alpha  occ. eigenvalues --   -0.56089  -0.55733  -0.55674  -0.55060  -0.54920
 Alpha  occ. eigenvalues --   -0.54402  -0.54289  -0.53958  -0.53721  -0.53544
 Alpha  occ. eigenvalues --   -0.53256  -0.52997  -0.52762  -0.52482  -0.52231
 Alpha  occ. eigenvalues --   -0.51887  -0.51582  -0.51438  -0.51162  -0.50905
 Alpha  occ. eigenvalues --   -0.50806  -0.50405  -0.50309  -0.50172  -0.50102
 Alpha  occ. eigenvalues --   -0.49895  -0.49513  -0.48940  -0.48798  -0.48386
 Alpha  occ. eigenvalues --   -0.48309  -0.48050  -0.47910  -0.47778  -0.47551
 Alpha  occ. eigenvalues --   -0.47529  -0.47115  -0.46941  -0.46889  -0.46296
 Alpha  occ. eigenvalues --   -0.46015  -0.45576  -0.45066  -0.44686  -0.43767
 Alpha  occ. eigenvalues --   -0.43262  -0.42946  -0.42473  -0.40658  -0.40154
 Alpha  occ. eigenvalues --   -0.39807  -0.39613  -0.39109  -0.38881  -0.38702
 Alpha  occ. eigenvalues --   -0.38048  -0.37454  -0.37276  -0.36515  -0.36364
 Alpha  occ. eigenvalues --   -0.36131  -0.35681  -0.35660  -0.35105  -0.34985
 Alpha  occ. eigenvalues --   -0.34802  -0.34472  -0.34347  -0.34166  -0.34002
 Alpha  occ. eigenvalues --   -0.32556  -0.32226  -0.31972  -0.31160  -0.30708
 Alpha virt. eigenvalues --   -0.12666  -0.10566  -0.10382  -0.10195  -0.09331
 Alpha virt. eigenvalues --   -0.09202  -0.08712  -0.07907  -0.07325  -0.07249
 Alpha virt. eigenvalues --   -0.07155  -0.06668  -0.05964  -0.04941  -0.04319

 Mulliken charges:
               1
     1  N   -0.794849
     2  H    0.397237
     3  H    0.429117
     4  H    0.465547
     5  C   -0.266910
     6  H    0.241134
     7  H    0.210629
     8  C    0.658231
     9  O   -0.537007
    10  N   -0.572103
    11  H    0.359151
    12  C   -0.264278
    13  H    0.208746
    14  H    0.217368
    15  C    0.584279
    16  O   -0.478563
    17  N   -0.599423
    18  H    0.371627
    19  C   -0.275959
    20  H    0.207995
    21  H    0.237203
    22  C    0.605043
    23  O   -0.581461
    24  N   -0.590253
    25  H    0.375206
    26  C   -0.229880
    27  H    0.211439
    28  H    0.207115
    29  C    0.572641
    30  O   -0.514568
    31  N   -0.630100
    32  H    0.392690
    33  C   -0.253846
    34  H    0.193410
    35  H    0.216715
    36  C    0.595065
    37  O   -0.531420
    38  N   -0.588620
    39  H    0.370188
    40  C   -0.234838
    41  H    0.194145
    42  H    0.195215
    43  C    0.616096
    44  O   -0.519629
    45  N   -0.586341
    46  H    0.340311
    47  C   -0.243245
    48  H    0.250988
    49  H    0.192375
    50  C    0.613994
    51  O   -0.541153
    52  N   -0.621208
    53  H    0.409324
    54  C   -0.261817
    55  H    0.207981
    56  H    0.192382
    57  C    0.597854
    58  O   -0.562209
    59  N   -0.555610
    60  H    0.386807
    61  C   -0.234075
    62  H    0.198625
    63  H    0.176702
    64  C    0.620681
    65  O   -0.534469
    66  N   -0.579254
    67  H    0.346423
    68  C   -0.229699
    69  H    0.198773
    70  H    0.189099
    71  C    0.579023
    72  O   -0.507845
    73  N   -0.628645
    74  H    0.408921
    75  C   -0.216551
    76  H    0.191440
    77  H    0.187164
    78  C    0.656159
    79  O   -0.620872
    80  N   -0.564642
    81  H    0.406994
    82  C   -0.231720
    83  H    0.167598
    84  H    0.222197
    85  C    0.599608
    86  O   -0.484872
    87  N   -0.626668
    88  H    0.353773
    89  C   -0.235476
    90  H    0.177481
    91  H    0.233572
    92  C    0.631100
    93  O   -0.578216
    94  N   -0.556595
    95  H    0.362205
    96  C   -0.229381
    97  H    0.233103
    98  H    0.215942
    99  C    0.618902
   100  O   -0.442967
   101  O   -0.590447
   102  H    0.426949
 Sum of Mulliken charges =   1.00000

 Dipole moment (field-independent basis, Debye):
    X=              4.5898    Y=             -2.2324    Z=            -22.4442  Tot=             23.0172
 Quadrupole moment (field-independent basis, Debye-Ang):
   XX=           -278.0033   YY=           -312.2466   ZZ=           -129.1698
   XY=            -22.9132   XZ=             10.2822   YZ=             23.7769

 Normal termination of Gaussian 16 at Thu Aug 11 11:21:27 2022.
