 Gaussian 16, Revision C.01,
 Gaussian 16:  ES64L-G16RevC.01  3-Jul-2019

 ----------------------------------------------------------------------
 # B3LYP/6-31G* empiricaldispersion=gd3 guess=read geom=check nosymm in
 tegral(ultrafinegrid)
 ----------------------------------------------------------------------

 ------------------------------------------------------
 Candidate Structure: Conf:578 Charge calc in gas phase
 ------------------------------------------------------
 Structure from the checkpoint file:  "conf-578.chk"
 Charge =  1 Multiplicity = 1

                          Input orientation:
 ---------------------------------------------------------------------
 Center     Atomic      Atomic             Coordinates (Angstroms)
 Number     Number       Type             X           Y           Z
 ---------------------------------------------------------------------
      1          7           0       -1.631970    7.242904    3.297646
      2          1           0       -0.754579    7.014916    2.767699
      3          1           0       -1.527535    8.052821    3.912834
      4          1           0       -2.347390    7.527394    2.586908
      5          6           0       -2.074128    6.039701    4.073768
      6          1           0       -1.864660    5.164468    3.461952
      7          1           0       -1.490947    5.992050    4.996440
      8          6           0       -3.564214    6.213111    4.381855
      9          8           0       -3.961948    7.275630    4.858272
     10          7           0       -4.336998    5.162993    4.033365
     11          1           0       -3.918426    4.449444    3.432150
     12          6           0       -5.784925    5.326737    3.909290
     13          1           0       -6.176401    5.823503    4.799419
     14          1           0       -6.242168    4.342912    3.802068
     15          6           0       -6.012143    6.135799    2.627363
     16          8           0       -5.963057    5.621650    1.511679
     17          7           0       -6.145681    7.482388    2.807277
     18          1           0       -5.823317    7.856251    3.694443
     19          6           0       -5.994886    8.322400    1.632894
     20          1           0       -6.759328    8.057732    0.898158
     21          1           0       -6.137688    9.365898    1.925602
     22          6           0       -4.581180    8.180350    1.062068
     23          8           0       -3.597647    8.365198    1.792509
     24          7           0       -4.466647    7.873851   -0.243437
     25          1           0       -5.299301    7.611395   -0.753660
     26          6           0       -3.177743    7.829830   -0.912157
     27          1           0       -3.323068    8.027654   -1.976735
     28          1           0       -2.551402    8.630372   -0.510623
     29          6           0       -2.347538    6.542282   -0.810745
     30          8           0       -1.277392    6.521052   -1.408733
     31          7           0       -2.838966    5.511627   -0.072650
     32          1           0       -3.772566    5.546568    0.326143
     33          6           0       -2.129670    4.242978   -0.057370
     34          1           0       -2.646599    3.508207   -0.692127
     35          1           0       -1.137590    4.406486   -0.472911
     36          6           0       -2.073929    3.643454    1.339755
     37          8           0       -3.075891    3.648213    2.067152
     38          7           0       -0.908570    3.059184    1.696040
     39          1           0       -0.076122    3.257677    1.140362
     40          6           0       -0.751033    2.326636    2.944595
     41          1           0       -0.364104    2.960925    3.748462
     42          1           0       -1.737088    1.964686    3.251916
     43          6           0        0.229119    1.150858    2.829786
     44          8           0        0.890248    0.787924    3.789385
     45          7           0        0.265420    0.544849    1.601721
     46          1           0       -0.277638    0.978142    0.866688
     47          6           0        1.378539   -0.314068    1.219432
     48          1           0        1.690855   -0.890654    2.089232
     49          1           0        1.054428   -0.997185    0.427407
     50          6           0        2.578971    0.533164    0.764106
     51          8           0        3.647084    0.510774    1.371305
     52          7           0        2.349869    1.308319   -0.331675
     53          1           0        1.396480    1.352821   -0.672812
     54          6           0        3.079622    2.532076   -0.594710
     55          1           0        3.562394    2.508040   -1.579879
     56          1           0        3.852448    2.664942    0.161931
     57          6           0        2.097889    3.707473   -0.531085
     58          8           0        0.878877    3.501847   -0.549098
     59          7           0        2.640880    4.941967   -0.487175
     60          1           0        3.627162    5.005933   -0.244396
     61          6           0        1.789827    6.097557   -0.211111
     62          1           0        2.366072    7.006408   -0.409358
     63          1           0        0.907991    6.088971   -0.853367
     64          6           0        1.296459    6.090445    1.243506
     65          8           0        0.092655    6.245555    1.511185
     66          7           0        2.240105    5.885093    2.184264
     67          1           0        3.196335    5.729347    1.864695
     68          6           0        1.930137    5.255941    3.459165
     69          1           0        2.384404    5.807200    4.280967
     70          1           0        0.843685    5.241459    3.576464
     71          6           0        2.429030    3.800320    3.374606
     72          8           0        2.181287    3.132687    2.367244
     73          7           0        3.131115    3.365647    4.444216
     74          1           0        3.501227    4.092470    5.053838
     75          6           0        3.901520    2.116045    4.412955
     76          1           0        3.362992    1.383398    3.811232
     77          1           0        4.020528    1.746689    5.432592
     78          6           0        5.265752    2.517137    3.839496
     79          8           0        6.114003    3.083140    4.539073
     80          7           0        5.370144    2.391787    2.495290
     81          1           0        4.682306    1.823637    1.994772
     82          6           0        6.336166    3.163831    1.731292
     83          1           0        7.357006    2.976157    2.079919
     84          1           0        6.265284    2.872674    0.682115
     85          6           0        5.945868    4.644318    1.875656
     86          8           0        4.999750    5.138876    1.244395
     87          7           0        6.665832    5.309718    2.806744
     88          1           0        7.232545    4.706828    3.395874
     89          6           0        6.212314    6.542555    3.449507
     90          1           0        5.411944    6.975838    2.851053
     91          1           0        7.042062    7.254296    3.517606
     92          6           0        5.670224    6.146172    4.830438
     93          8           0        4.476382    5.892996    5.011174
     94          7           0        6.606834    5.982345    5.782363
     95          1           0        7.588970    6.165237    5.602274
     96          6           0        6.331709    5.243832    6.998584
     97          1           0        5.886595    4.272959    6.748525
     98          1           0        5.636434    5.780512    7.652760
     99          6           0        7.644549    5.011464    7.719595
    100          8           0        8.727330    5.343630    7.286592
    101          8           0        7.450076    4.383684    8.888311
    102          1           0        8.325588    4.246187    9.298296
 ---------------------------------------------------------------------

 SCF Done:  E(RB3LYP) =  -2989.20107901     A.U. after    3 cycles

 Alpha  occ. eigenvalues --  -19.28401 -19.23331 -19.23319 -19.23203 -19.23090
 Alpha  occ. eigenvalues --  -19.22407 -19.22233 -19.21851 -19.21841 -19.21316
 Alpha  occ. eigenvalues --  -19.21160 -19.21133 -19.20516 -19.19534 -19.19416
 Alpha  occ. eigenvalues --  -14.53599 -14.47655 -14.46989 -14.45999 -14.45998
 Alpha  occ. eigenvalues --  -14.45977 -14.45747 -14.45550 -14.45412 -14.45216
 Alpha  occ. eigenvalues --  -14.45015 -14.44772 -14.44633 -14.44149 -10.41287
 Alpha  occ. eigenvalues --  -10.40157 -10.39927 -10.39765 -10.39700 -10.39060
 Alpha  occ. eigenvalues --  -10.39035 -10.38716 -10.38202 -10.38188 -10.38019
 Alpha  occ. eigenvalues --  -10.37432 -10.37299 -10.37163 -10.35750 -10.33044
 Alpha  occ. eigenvalues --  -10.32890 -10.32602 -10.32438 -10.32235 -10.32233
 Alpha  occ. eigenvalues --  -10.32144 -10.32121 -10.31910 -10.31591 -10.31228
 Alpha  occ. eigenvalues --  -10.30628 -10.30368  -1.19532  -1.15217  -1.14839
 Alpha  occ. eigenvalues --   -1.14595  -1.14450  -1.13923  -1.13545  -1.13490
 Alpha  occ. eigenvalues --   -1.12988  -1.12936  -1.12611  -1.11857  -1.11617
 Alpha  occ. eigenvalues --   -1.11371  -1.10758  -1.08655  -1.03672  -1.03601
 Alpha  occ. eigenvalues --   -1.03227  -1.02776  -1.02373  -1.02134  -1.01773
 Alpha  occ. eigenvalues --   -1.01674  -1.01539  -1.01392  -1.00625  -1.00411
 Alpha  occ. eigenvalues --   -0.99922  -0.87048  -0.86857  -0.86297  -0.85644
 Alpha  occ. eigenvalues --   -0.84858  -0.84139  -0.83227  -0.82271  -0.81424
 Alpha  occ. eigenvalues --   -0.80342  -0.79322  -0.78449  -0.77493  -0.76884
 Alpha  occ. eigenvalues --   -0.71355  -0.70752  -0.70607  -0.69832  -0.69361
 Alpha  occ. eigenvalues --   -0.68760  -0.68677  -0.68287  -0.68236  -0.67732
 Alpha  occ. eigenvalues --   -0.67461  -0.67422  -0.67176  -0.66701  -0.66514
 Alpha  occ. eigenvalues --   -0.66376  -0.64554  -0.64021  -0.63513  -0.63170
 Alpha  occ. eigenvalues --   -0.62935  -0.62619  -0.61486  -0.61369  -0.60412
 Alpha  occ. eigenvalues --   -0.59893  -0.59433  -0.59318  -0.59066  -0.58891
 Alpha  occ. eigenvalues --   -0.58486  -0.58069  -0.57943  -0.57711  -0.57477
 Alpha  occ. eigenvalues --   -0.57384  -0.57093  -0.56812  -0.56784  -0.56227
 Alpha  occ. eigenvalues --   -0.56043  -0.55907  -0.55103  -0.55039  -0.54956
 Alpha  occ. eigenvalues --   -0.54271  -0.53973  -0.53587  -0.53521  -0.53259
 Alpha  occ. eigenvalues --   -0.52972  -0.52654  -0.52469  -0.52053  -0.51846
 Alpha  occ. eigenvalues --   -0.51413  -0.51358  -0.51187  -0.50964  -0.50838
 Alpha  occ. eigenvalues --   -0.50630  -0.50287  -0.49964  -0.49757  -0.49421
 Alpha  occ. eigenvalues --   -0.49208  -0.49039  -0.48770  -0.48521  -0.48312
 Alpha  occ. eigenvalues --   -0.48005  -0.47806  -0.47571  -0.47556  -0.47498
 Alpha  occ. eigenvalues --   -0.47291  -0.47226  -0.47097  -0.46633  -0.46455
 Alpha  occ. eigenvalues --   -0.46342  -0.45879  -0.45470  -0.45316  -0.44952
 Alpha  occ. eigenvalues --   -0.44607  -0.43956  -0.40650  -0.39224  -0.38803
 Alpha  occ. eigenvalues --   -0.38686  -0.38120  -0.38067  -0.37582  -0.37454
 Alpha  occ. eigenvalues --   -0.37189  -0.36993  -0.36660  -0.36532  -0.36461
 Alpha  occ. eigenvalues --   -0.36160  -0.35879  -0.35799  -0.35489  -0.35273
 Alpha  occ. eigenvalues --   -0.34920  -0.34508  -0.34158  -0.33895  -0.33755
 Alpha  occ. eigenvalues --   -0.33504  -0.33102  -0.32995  -0.32545  -0.32490
 Alpha virt. eigenvalues --   -0.10383  -0.10248  -0.10045  -0.09590  -0.08767
 Alpha virt. eigenvalues --   -0.07962  -0.07786  -0.07584  -0.07503  -0.07298
 Alpha virt. eigenvalues --   -0.06715  -0.05896  -0.05721  -0.05224  -0.03970

 Mulliken charges:
               1
     1  N   -0.777774
     2  H    0.428484
     3  H    0.398033
     4  H    0.448045
     5  C   -0.292147
     6  H    0.228731
     7  H    0.215700
     8  C    0.604497
     9  O   -0.524974
    10  N   -0.597295
    11  H    0.411895
    12  C   -0.236881
    13  H    0.197877
    14  H    0.203922
    15  C    0.581840
    16  O   -0.520595
    17  N   -0.552680
    18  H    0.371393
    19  C   -0.231389
    20  H    0.188588
    21  H    0.202576
    22  C    0.620668
    23  O   -0.567733
    24  N   -0.575302
    25  H    0.361436
    26  C   -0.236511
    27  H    0.204784
    28  H    0.210879
    29  C    0.620042
    30  O   -0.513953
    31  N   -0.626132
    32  H    0.368858
    33  C   -0.240605
    34  H    0.186249
    35  H    0.248981
    36  C    0.610683
    37  O   -0.565425
    38  N   -0.651510
    39  H    0.416034
    40  C   -0.218963
    41  H    0.171828
    42  H    0.209678
    43  C    0.630442
    44  O   -0.512443
    45  N   -0.589572
    46  H    0.333037
    47  C   -0.248400
    48  H    0.223782
    49  H    0.186048
    50  C    0.633627
    51  O   -0.525989
    52  N   -0.561792
    53  H    0.336677
    54  C   -0.236260
    55  H    0.198901
    56  H    0.190541
    57  C    0.644321
    58  O   -0.555895
    59  N   -0.600707
    60  H    0.378439
    61  C   -0.280551
    62  H    0.192043
    63  H    0.267432
    64  C    0.614915
    65  O   -0.573435
    66  N   -0.576923
    67  H    0.392917
    68  C   -0.261017
    69  H    0.213195
    70  H    0.170397
    71  C    0.607763
    72  O   -0.553691
    73  N   -0.587071
    74  H    0.376118
    75  C   -0.240881
    76  H    0.236888
    77  H    0.185654
    78  C    0.580830
    79  O   -0.545548
    80  N   -0.614422
    81  H    0.435154
    82  C   -0.227083
    83  H    0.190890
    84  H    0.188129
    85  C    0.596586
    86  O   -0.553052
    87  N   -0.544948
    88  H    0.367034
    89  C   -0.237057
    90  H    0.202461
    91  H    0.187357
    92  C    0.617566
    93  O   -0.545383
    94  N   -0.589048
    95  H    0.360994
    96  C   -0.188768
    97  H    0.225223
    98  H    0.207521
    99  C    0.574968
   100  O   -0.457092
   101  O   -0.553206
   102  H    0.430553
 Sum of Mulliken charges =   1.00000

 Dipole moment (field-independent basis, Debye):
    X=              3.3854    Y=             28.5169    Z=             11.8450  Tot=             31.0641
 Quadrupole moment (field-independent basis, Debye-Ang):
   XX=           -193.9569   YY=           -125.1855   ZZ=           -247.2841
   XY=             -4.8054   XZ=             40.4584   YZ=             78.1828

 Normal termination of Gaussian 16 at Thu Aug 11 11:22:33 2022.
