 Gaussian 16, Revision C.01,
 Gaussian 16:  ES64L-G16RevC.01  3-Jul-2019

 -------------------------------------------------------------------
 # B3LYP/6-31G* guess=read geom=check nosymm integral(ultrafinegrid)
 -------------------------------------------------------------------

 ------------------------------------------------------
 Candidate Structure: Conf:584 Charge calc in gas phase
 ------------------------------------------------------
 Structure from the checkpoint file:  "conf-584.chk"
 Charge =  1 Multiplicity = 1

                          Input orientation:
 ---------------------------------------------------------------------
 Center     Atomic      Atomic             Coordinates (Angstroms)
 Number     Number       Type             X           Y           Z
 ---------------------------------------------------------------------
      1          7           0      -13.403617   13.943216    1.819812
      2          1           0      -14.330902   13.642277    2.131120
      3          1           0      -13.493266   14.861645    1.377353
      4          1           0      -12.725981   13.996483    2.658992
      5          6           0      -12.693518   12.928306    0.966987
      6          1           0      -13.338275   12.062156    0.808905
      7          1           0      -12.440175   13.368956    0.001322
      8          6           0      -11.431191   12.577908    1.803779
      9          8           0      -11.308691   13.166173    2.891804
     10          7           0      -10.604036   11.691249    1.287175
     11          1           0      -10.752665   11.221143    0.384250
     12          6           0       -9.373583   11.226167    1.911432
     13          1           0       -9.589155   10.724585    2.861625
     14          1           0       -8.693502   12.057436    2.121335
     15          6           0       -8.766235   10.236142    0.892855
     16          8           0       -9.395983    9.972064   -0.137362
     17          7           0       -7.580088    9.722497    1.223092
     18          1           0       -7.077046   10.013039    2.062135
     19          6           0       -6.850553    8.787737    0.383176
     20          1           0       -7.475186    7.920883    0.141318
     21          1           0       -6.546220    9.265633   -0.554741
     22          6           0       -5.591454    8.383466    1.157932
     23          8           0       -5.263363    8.985486    2.184271
     24          7           0       -4.892703    7.364972    0.635332
     25          1           0       -5.194043    6.855909   -0.191168
     26          6           0       -3.614276    6.942341    1.164670
     27          1           0       -2.947192    7.799495    1.298769
     28          1           0       -3.730304    6.477684    2.153598
     29          6           0       -3.033064    5.907325    0.195292
     30          8           0       -3.755359    5.352065   -0.632201
     31          7           0       -1.712272    5.660702    0.348409
     32          1           0       -1.171128    6.181432    1.036273
     33          6           0       -1.050158    4.573333   -0.343607
     34          1           0       -1.799530    4.057867   -0.947912
     35          1           0       -0.276433    4.958143   -1.023431
     36          6           0       -0.371148    3.643829    0.666373
     37          8           0        0.140672    4.096960    1.699179
     38          7           0       -0.359989    2.337752    0.352659
     39          1           0       -0.725587    2.002550   -0.533189
     40          6           0        0.330258    1.340910    1.147109
     41          1           0        1.212761    1.774318    1.624038
     42          1           0       -0.321360    0.952448    1.942086
     43          6           0        0.749330    0.189597    0.237057
     44          8           0        0.322756    0.094941   -0.917365
     45          7           0        1.578301   -0.715212    0.816170
     46          1           0        2.153951   -0.369681    1.580903
     47          6           0        2.116492   -1.836666    0.048004
     48          1           0        2.311458   -2.676571    0.716437
     49          1           0        1.368162   -2.121803   -0.694834
     50          6           0        3.444123   -1.435662   -0.605193
     51          8           0        4.521751   -1.869900   -0.196395
     52          7           0        3.337133   -0.508310   -1.593714
     53          1           0        2.415148   -0.128379   -1.785945
     54          6           0        4.508483    0.231280   -2.061346
     55          1           0        4.262176    0.728639   -2.999801
     56          1           0        5.321845   -0.480318   -2.227684
     57          6           0        4.914532    1.309910   -1.039444
     58          8           0        4.665325    2.499056   -1.200564
     59          7           0        5.535537    0.823243    0.075610
     60          1           0        5.530021   -0.184851    0.210590
     61          6           0        5.738103    1.689014    1.215269
     62          1           0        6.309056    1.135081    1.967536
     63          1           0        6.330101    2.558752    0.913615
     64          6           0        4.412382    2.146281    1.854551
     65          8           0        3.434852    1.396671    1.936414
     66          7           0        4.433384    3.402112    2.350795
     67          1           0        5.217708    4.014966    2.154912
     68          6           0        3.264108    4.080874    2.879353
     69          1           0        2.354902    3.598997    2.518709
     70          1           0        3.248019    4.046423    3.978518
     71          6           0        3.345415    5.547093    2.450016
     72          8           0        4.432262    6.115422    2.365364
     73          7           0        2.155577    6.159234    2.205121
     74          1           0        1.316212    5.590169    2.079093
     75          6           0        2.155537    7.527366    1.725750
     76          1           0        2.231131    7.568217    0.627119
     77          1           0        3.047829    8.016445    2.122839
     78          6           0        0.872066    8.251093    2.109884
     79          8           0       -0.247973    7.767531    1.882256
     80          7           0        1.022460    9.476557    2.656379
     81          1           0        1.957782    9.831595    2.799921
     82          6           0       -0.098891   10.313830    3.076877
     83          1           0       -0.855429    9.673931    3.543798
     84          1           0        0.257785   11.030935    3.816056
     85          6           0       -0.765989   11.121344    1.952549
     86          8           0       -0.915365   12.339579    2.045408
     87          7           0       -1.197667   10.394562    0.891033
     88          1           0       -1.130963    9.382378    0.948131
     89          6           0       -1.885706   11.011518   -0.238536
     90          1           0       -1.815589   10.348896   -1.101766
     91          1           0       -1.389342   11.959742   -0.468256
     92          6           0       -3.379106   11.250742    0.045806
     93          8           0       -4.259533   10.617461   -0.528951
     94          7           0       -3.612896   12.220310    0.977831
     95          1           0       -2.803190   12.582318    1.482263
     96          6           0       -4.920063   12.388845    1.557531
     97          1           0       -5.639326   11.858366    0.931022
     98          1           0       -5.211080   13.448228    1.578218
     99          6           0       -4.983546   11.865821    2.985156
    100          8           0       -4.043460   11.621009    3.695822
    101          8           0       -6.280104   11.760860    3.412227
    102          1           0       -6.224883   11.448754    4.336282
 ---------------------------------------------------------------------

 SCF Done:  E(RB3LYP) =  -2988.99491862     A.U. after    3 cycles

 Alpha  occ. eigenvalues --  -19.28122 -19.27733 -19.21779 -19.21497 -19.21161
 Alpha  occ. eigenvalues --  -19.19088 -19.18798 -19.18674 -19.18514 -19.18264
 Alpha  occ. eigenvalues --  -19.18029 -19.17217 -19.16910 -19.16862 -19.15519
 Alpha  occ. eigenvalues --  -14.61576 -14.50283 -14.45749 -14.44990 -14.43340
 Alpha  occ. eigenvalues --  -14.42837 -14.42684 -14.42030 -14.42024 -14.41917
 Alpha  occ. eigenvalues --  -14.41644 -14.41150 -14.41147 -14.39476 -10.44875
 Alpha  occ. eigenvalues --  -10.42052 -10.39558 -10.38955 -10.38056 -10.36225
 Alpha  occ. eigenvalues --  -10.36089 -10.35801 -10.35416 -10.35328 -10.35313
 Alpha  occ. eigenvalues --  -10.34472 -10.34438 -10.34003 -10.33851 -10.32507
 Alpha  occ. eigenvalues --  -10.30729 -10.30497 -10.30397 -10.30085 -10.29606
 Alpha  occ. eigenvalues --  -10.29385 -10.29319 -10.28406 -10.27886 -10.27723
 Alpha  occ. eigenvalues --  -10.27587 -10.27182  -1.20567  -1.18010  -1.15143
 Alpha  occ. eigenvalues --   -1.13707  -1.12747  -1.10927  -1.10876  -1.10631
 Alpha  occ. eigenvalues --   -1.10024  -1.09778  -1.09596  -1.09350  -1.09178
 Alpha  occ. eigenvalues --   -1.08691  -1.08305  -1.07014  -1.06793  -1.01467
 Alpha  occ. eigenvalues --   -1.01427  -0.99509  -0.99170  -0.98982  -0.98597
 Alpha  occ. eigenvalues --   -0.98490  -0.98457  -0.98055  -0.97305  -0.97001
 Alpha  occ. eigenvalues --   -0.95802  -0.91398  -0.85684  -0.84468  -0.83401
 Alpha  occ. eigenvalues --   -0.82691  -0.82142  -0.81073  -0.80296  -0.79132
 Alpha  occ. eigenvalues --   -0.78096  -0.77000  -0.75968  -0.75556  -0.75350
 Alpha  occ. eigenvalues --   -0.74488  -0.72982  -0.72606  -0.69505  -0.68453
 Alpha  occ. eigenvalues --   -0.68043  -0.67171  -0.66367  -0.65758  -0.65616
 Alpha  occ. eigenvalues --   -0.65037  -0.64562  -0.64238  -0.64210  -0.64155
 Alpha  occ. eigenvalues --   -0.63505  -0.63358  -0.62137  -0.62042  -0.61903
 Alpha  occ. eigenvalues --   -0.61454  -0.60462  -0.60164  -0.59153  -0.58639
 Alpha  occ. eigenvalues --   -0.58512  -0.58284  -0.58010  -0.57298  -0.56846
 Alpha  occ. eigenvalues --   -0.56698  -0.56122  -0.55880  -0.55456  -0.55300
 Alpha  occ. eigenvalues --   -0.55145  -0.54571  -0.54203  -0.54175  -0.54031
 Alpha  occ. eigenvalues --   -0.53714  -0.53479  -0.53256  -0.52882  -0.52701
 Alpha  occ. eigenvalues --   -0.52541  -0.52137  -0.52116  -0.51649  -0.51505
 Alpha  occ. eigenvalues --   -0.51177  -0.50788  -0.50702  -0.50265  -0.49826
 Alpha  occ. eigenvalues --   -0.49630  -0.49248  -0.49124  -0.48896  -0.48399
 Alpha  occ. eigenvalues --   -0.47869  -0.47746  -0.47464  -0.47429  -0.47097
 Alpha  occ. eigenvalues --   -0.46873  -0.46828  -0.46353  -0.46088  -0.45937
 Alpha  occ. eigenvalues --   -0.45711  -0.45294  -0.45195  -0.44893  -0.44573
 Alpha  occ. eigenvalues --   -0.44304  -0.44259  -0.43991  -0.43820  -0.43525
 Alpha  occ. eigenvalues --   -0.43317  -0.43248  -0.42682  -0.42185  -0.41935
 Alpha  occ. eigenvalues --   -0.41584  -0.41306  -0.40232  -0.40208  -0.39667
 Alpha  occ. eigenvalues --   -0.36434  -0.36390  -0.35563  -0.35399  -0.34892
 Alpha  occ. eigenvalues --   -0.34626  -0.33910  -0.33589  -0.33454  -0.33093
 Alpha  occ. eigenvalues --   -0.32532  -0.32347  -0.32259  -0.32185  -0.32062
 Alpha  occ. eigenvalues --   -0.31838  -0.31704  -0.31404  -0.31337  -0.30919
 Alpha  occ. eigenvalues --   -0.30731  -0.30034  -0.29561  -0.29253  -0.28051
 Alpha virt. eigenvalues --   -0.13122  -0.12906  -0.07665  -0.07474  -0.06893
 Alpha virt. eigenvalues --   -0.06250  -0.05812  -0.05672  -0.05213  -0.04740
 Alpha virt. eigenvalues --   -0.04495  -0.03844  -0.03502  -0.03004  -0.02926

 Mulliken charges:
               1
     1  N   -0.751592
     2  H    0.422240
     3  H    0.422203
     4  H    0.440379
     5  C   -0.276847
     6  H    0.248730
     7  H    0.248975
     8  C    0.639780
     9  O   -0.528637
    10  N   -0.604327
    11  H    0.381408
    12  C   -0.216922
    13  H    0.209282
    14  H    0.221459
    15  C    0.615151
    16  O   -0.538268
    17  N   -0.637738
    18  H    0.384475
    19  C   -0.206661
    20  H    0.189106
    21  H    0.229070
    22  C    0.640128
    23  O   -0.558648
    24  N   -0.619721
    25  H    0.361966
    26  C   -0.197160
    27  H    0.187673
    28  H    0.198496
    29  C    0.588058
    30  O   -0.528991
    31  N   -0.624632
    32  H    0.391568
    33  C   -0.242390
    34  H    0.204746
    35  H    0.189769
    36  C    0.624481
    37  O   -0.545202
    38  N   -0.591431
    39  H    0.360544
    40  C   -0.237031
    41  H    0.245034
    42  H    0.193852
    43  C    0.595764
    44  O   -0.543494
    45  N   -0.588528
    46  H    0.376987
    47  C   -0.236243
    48  H    0.190686
    49  H    0.201705
    50  C    0.593493
    51  O   -0.526957
    52  N   -0.575816
    53  H    0.362759
    54  C   -0.237030
    55  H    0.182715
    56  H    0.194881
    57  C    0.587841
    58  O   -0.519100
    59  N   -0.579631
    60  H    0.375259
    61  C   -0.234918
    62  H    0.186064
    63  H    0.180799
    64  C    0.628774
    65  O   -0.556348
    66  N   -0.590187
    67  H    0.358202
    68  C   -0.224982
    69  H    0.218328
    70  H    0.186145
    71  C    0.595999
    72  O   -0.527467
    73  N   -0.641687
    74  H    0.397702
    75  C   -0.206906
    76  H    0.189089
    77  H    0.194131
    78  C    0.617543
    79  O   -0.557551
    80  N   -0.576165
    81  H    0.356667
    82  C   -0.248256
    83  H    0.218513
    84  H    0.199694
    85  C    0.612545
    86  O   -0.523376
    87  N   -0.599095
    88  H    0.383023
    89  C   -0.239553
    90  H    0.185515
    91  H    0.197615
    92  C    0.601864
    93  O   -0.525350
    94  N   -0.583564
    95  H    0.384216
    96  C   -0.231201
    97  H    0.201823
    98  H    0.186893
    99  C    0.618438
   100  O   -0.442149
   101  O   -0.598405
   102  H    0.419915
 Sum of Mulliken charges =   1.00000

 Dipole moment (field-independent basis, Debye):
    X=            -47.3612    Y=             56.8243    Z=              8.9275  Tot=             74.5103
 Quadrupole moment (field-independent basis, Debye-Ang):
   XX=            335.2072   YY=            423.2307   ZZ=           -307.3633
   XY=           -662.9733   XZ=            -74.9128   YZ=             94.0834

 Normal termination of Gaussian 16 at Thu Aug 11 11:21:26 2022.
