 Gaussian 16, Revision C.01,
 Gaussian 16:  ES64L-G16RevC.01  3-Jul-2019

 ----------------------------------------------------------------------
 # B3LYP/6-31G* empiricaldispersion=gd3 guess=read geom=check nosymm in
 tegral(ultrafinegrid)
 ----------------------------------------------------------------------

 ------------------------------------------------------
 Candidate Structure: Conf:172 Charge calc in gas phase
 ------------------------------------------------------
 Structure from the checkpoint file:  "conf-172.chk"
 Charge =  1 Multiplicity = 1

                          Input orientation:
 ---------------------------------------------------------------------
 Center     Atomic      Atomic             Coordinates (Angstroms)
 Number     Number       Type             X           Y           Z
 ---------------------------------------------------------------------
      1          7           0        1.808646    7.768108   -0.348851
      2          1           0        1.921750    7.828396    0.665282
      3          1           0        0.761764    7.673521   -0.539270
      4          1           0        2.147298    8.649785   -0.799333
      5          6           0        2.534795    6.581328   -0.903526
      6          1           0        3.567285    6.585287   -0.549173
      7          1           0        2.027195    5.669581   -0.576263
      8          6           0        2.436796    6.644037   -2.426465
      9          8           0        1.336080    6.823501   -2.965605
     10          7           0        3.597471    6.505551   -3.075389
     11          1           0        4.467663    6.376471   -2.543529
     12          6           0        3.691214    6.520097   -4.519027
     13          1           0        4.731917    6.320862   -4.783458
     14          1           0        3.447209    7.511009   -4.902735
     15          6           0        2.787356    5.461715   -5.140268
     16          8           0        2.573969    4.371443   -4.602422
     17          7           0        2.278280    5.804265   -6.345306
     18          1           0        2.396229    6.763528   -6.645114
     19          6           0        1.290844    4.969202   -7.005199
     20          1           0        1.318805    5.163588   -8.082536
     21          1           0        1.538895    3.921551   -6.837404
     22          6           0       -0.148137    5.175117   -6.507337
     23          8           0       -0.924660    4.235477   -6.443944
     24          7           0       -0.495268    6.468294   -6.200465
     25          1           0        0.187252    7.211938   -6.293798
     26          6           0       -1.878780    6.814675   -5.950492
     27          1           0       -2.300890    7.417469   -6.765752
     28          1           0       -2.447409    5.881789   -5.916348
     29          6           0       -2.167114    7.563488   -4.658747
     30          8           0       -3.322523    7.811054   -4.334910
     31          7           0       -1.083920    7.990014   -3.913044
     32          1           0       -0.221019    7.448272   -3.992051
     33          6           0       -1.319597    8.570454   -2.582876
     34          1           0       -0.436526    9.143320   -2.298824
     35          1           0       -2.180425    9.240209   -2.655030
     36          6           0       -1.567140    7.491137   -1.526620
     37          8           0       -0.777018    7.298165   -0.582795
     38          7           0       -2.639280    6.710154   -1.718589
     39          1           0       -3.237410    6.924166   -2.513289
     40          6           0       -2.781287    5.419308   -1.059249
     41          1           0       -2.385014    5.497201   -0.043629
     42          1           0       -3.837271    5.153444   -0.995973
     43          6           0       -2.060309    4.255425   -1.766963
     44          8           0       -2.452288    3.113359   -1.597716
     45          7           0       -1.007376    4.588167   -2.589077
     46          1           0       -0.507237    5.446408   -2.388689
     47          6           0       -0.158086    3.523499   -3.076275
     48          1           0       -0.782220    2.644654   -3.255154
     49          1           0        0.302849    3.815289   -4.022963
     50          6           0        0.947048    3.188642   -2.069380
     51          8           0        1.148723    3.858776   -1.057330
     52          7           0        1.712702    2.108103   -2.382093
     53          1           0        1.510030    1.593429   -3.228296
     54          6           0        2.737460    1.612433   -1.482957
     55          1           0        2.869845    0.537601   -1.630121
     56          1           0        2.407373    1.765963   -0.451271
     57          6           0        4.119594    2.257061   -1.601864
     58          8           0        5.057105    1.820829   -0.929632
     59          7           0        4.249742    3.311789   -2.442560
     60          1           0        3.495968    3.608018   -3.063911
     61          6           0        5.572137    3.867232   -2.666427
     62          1           0        6.296622    3.058592   -2.810075
     63          1           0        5.547415    4.474725   -3.571422
     64          6           0        6.036682    4.765612   -1.512858
     65          8           0        5.839556    5.998586   -1.505071
     66          7           0        6.682853    4.148324   -0.515059
     67          1           0        6.653242    3.132055   -0.496191
     68          6           0        7.321731    4.912209    0.531257
     69          1           0        6.583234    5.488628    1.102731
     70          1           0        7.815013    4.217045    1.216260
     71          6           0        8.380492    5.850928   -0.077717
     72          8           0        8.975091    5.566344   -1.113663
     73          7           0        8.624729    6.990406    0.619022
     74          1           0        8.022768    7.248608    1.388417
     75          6           0        9.594237    7.974119    0.140207
     76          1           0       10.484366    7.441124   -0.204666
     77          1           0        9.862143    8.638574    0.961875
     78          6           0        8.997068    8.835627   -0.983346
     79          8           0        8.589153    9.981386   -0.768446
     80          7           0        8.923116    8.228403   -2.193139
     81          1           0        9.102410    7.225832   -2.222540
     82          6           0        8.332312    8.885594   -3.353031
     83          1           0        8.693525    9.918978   -3.388675
     84          1           0        8.647408    8.362794   -4.256188
     85          6           0        6.798807    8.868169   -3.306244
     86          8           0        6.113319    8.216854   -4.096597
     87          7           0        6.252302    9.635029   -2.322503
     88          1           0        6.918804   10.080933   -1.687710
     89          6           0        4.924040    9.364480   -1.804077
     90          1           0        4.820164    9.909562   -0.862251
     91          1           0        4.826091    8.298305   -1.579470
     92          6           0        3.699091    9.773757   -2.624119
     93          8           0        2.588807    9.794155   -2.063930
     94          7           0        3.847500   10.125004   -3.913438
     95          1           0        4.712670    9.877171   -4.378753
     96          6           0        2.758494   10.744682   -4.655121
     97          1           0        3.166880   11.124310   -5.595442
     98          1           0        2.358464   11.580753   -4.078447
     99          6           0        1.608175    9.792075   -4.994024
    100          8           0        1.740087    8.746732   -5.612904
    101          8           0        0.441138   10.260465   -4.568916
    102          1           0       -0.246281    9.556616   -4.689478
 ---------------------------------------------------------------------

 SCF Done:  E(RB3LYP) =  -2989.21820248     A.U. after    3 cycles

 Alpha  occ. eigenvalues --  -19.30336 -19.26132 -19.25004 -19.23898 -19.23726
 Alpha  occ. eigenvalues --  -19.23714 -19.23026 -19.22833 -19.22700 -19.22412
 Alpha  occ. eigenvalues --  -19.22106 -19.20626 -19.20569 -19.20449 -19.18852
 Alpha  occ. eigenvalues --  -14.53585 -14.48762 -14.47539 -14.47253 -14.46999
 Alpha  occ. eigenvalues --  -14.46967 -14.46760 -14.46385 -14.46346 -14.46036
 Alpha  occ. eigenvalues --  -14.45584 -14.45217 -14.44908 -14.43172 -10.44155
 Alpha  occ. eigenvalues --  -10.41770 -10.40999 -10.40112 -10.39926 -10.39826
 Alpha  occ. eigenvalues --  -10.39811 -10.39701 -10.39696 -10.38993 -10.38029
 Alpha  occ. eigenvalues --  -10.37625 -10.37492 -10.36254 -10.35264 -10.35172
 Alpha  occ. eigenvalues --  -10.34789 -10.34096 -10.33481 -10.33024 -10.32967
 Alpha  occ. eigenvalues --  -10.32839 -10.32696 -10.32394 -10.32200 -10.31549
 Alpha  occ. eigenvalues --  -10.31143 -10.29763  -1.22033  -1.16538  -1.15842
 Alpha  occ. eigenvalues --   -1.15385  -1.15280  -1.14704  -1.14532  -1.14272
 Alpha  occ. eigenvalues --   -1.14205  -1.13383  -1.13056  -1.12712  -1.12561
 Alpha  occ. eigenvalues --   -1.12098  -1.10767  -1.08727  -1.04885  -1.04045
 Alpha  occ. eigenvalues --   -1.03768  -1.03427  -1.03317  -1.03191  -1.03090
 Alpha  occ. eigenvalues --   -1.02592  -1.01941  -1.01870  -1.01014  -1.00510
 Alpha  occ. eigenvalues --   -0.99348  -0.88209  -0.87741  -0.87134  -0.86274
 Alpha  occ. eigenvalues --   -0.85473  -0.84625  -0.84184  -0.82944  -0.82119
 Alpha  occ. eigenvalues --   -0.80899  -0.80195  -0.79169  -0.78658  -0.76964
 Alpha  occ. eigenvalues --   -0.74549  -0.71912  -0.71201  -0.70606  -0.70212
 Alpha  occ. eigenvalues --   -0.69935  -0.69568  -0.69174  -0.68802  -0.68620
 Alpha  occ. eigenvalues --   -0.68072  -0.67911  -0.67731  -0.67220  -0.66805
 Alpha  occ. eigenvalues --   -0.65671  -0.65334  -0.64408  -0.64037  -0.64001
 Alpha  occ. eigenvalues --   -0.63597  -0.63464  -0.62797  -0.62443  -0.62236
 Alpha  occ. eigenvalues --   -0.61674  -0.61451  -0.61218  -0.60617  -0.59979
 Alpha  occ. eigenvalues --   -0.59813  -0.59142  -0.58638  -0.58406  -0.58224
 Alpha  occ. eigenvalues --   -0.57863  -0.57747  -0.57384  -0.57132  -0.57054
 Alpha  occ. eigenvalues --   -0.56487  -0.56384  -0.55887  -0.55244  -0.55163
 Alpha  occ. eigenvalues --   -0.54798  -0.54472  -0.54272  -0.54034  -0.53480
 Alpha  occ. eigenvalues --   -0.53199  -0.53100  -0.52718  -0.52597  -0.52514
 Alpha  occ. eigenvalues --   -0.52058  -0.51937  -0.51767  -0.51657  -0.51506
 Alpha  occ. eigenvalues --   -0.51265  -0.51193  -0.51128  -0.50839  -0.50617
 Alpha  occ. eigenvalues --   -0.50274  -0.50080  -0.49852  -0.49745  -0.49583
 Alpha  occ. eigenvalues --   -0.49196  -0.49156  -0.48872  -0.48589  -0.48262
 Alpha  occ. eigenvalues --   -0.48013  -0.47839  -0.47609  -0.47361  -0.47201
 Alpha  occ. eigenvalues --   -0.46648  -0.46550  -0.46002  -0.45591  -0.44950
 Alpha  occ. eigenvalues --   -0.43958  -0.43374  -0.43242  -0.40975  -0.40194
 Alpha  occ. eigenvalues --   -0.39746  -0.38913  -0.38636  -0.38481  -0.38242
 Alpha  occ. eigenvalues --   -0.38217  -0.38023  -0.37722  -0.37572  -0.37451
 Alpha  occ. eigenvalues --   -0.37352  -0.36948  -0.36463  -0.36260  -0.36102
 Alpha  occ. eigenvalues --   -0.36002  -0.35025  -0.34641  -0.34528  -0.34450
 Alpha  occ. eigenvalues --   -0.34156  -0.33610  -0.33248  -0.32992  -0.31538
 Alpha virt. eigenvalues --   -0.11625  -0.11178  -0.10570  -0.10358  -0.10143
 Alpha virt. eigenvalues --   -0.09632  -0.08987  -0.08496  -0.08453  -0.07605
 Alpha virt. eigenvalues --   -0.06959  -0.06418  -0.06064  -0.05114  -0.04825

 Mulliken charges:
               1
     1  N   -0.803432
     2  H    0.389116
     3  H    0.458813
     4  H    0.426504
     5  C   -0.323051
     6  H    0.196122
     7  H    0.288010
     8  C    0.640653
     9  O   -0.573896
    10  N   -0.634511
    11  H    0.428975
    12  C   -0.262775
    13  H    0.218263
    14  H    0.203869
    15  C    0.649686
    16  O   -0.548311
    17  N   -0.598834
    18  H    0.361626
    19  C   -0.250100
    20  H    0.198390
    21  H    0.216924
    22  C    0.618565
    23  O   -0.493760
    24  N   -0.637023
    25  H    0.349663
    26  C   -0.224655
    27  H    0.203853
    28  H    0.244736
    29  C    0.594764
    30  O   -0.501146
    31  N   -0.690408
    32  H    0.414742
    33  C   -0.244577
    34  H    0.192150
    35  H    0.219196
    36  C    0.604418
    37  O   -0.575337
    38  N   -0.563621
    39  H    0.389189
    40  C   -0.254508
    41  H    0.219984
    42  H    0.208348
    43  C    0.599623
    44  O   -0.487911
    45  N   -0.605558
    46  H    0.358635
    47  C   -0.269635
    48  H    0.213571
    49  H    0.215316
    50  C    0.620219
    51  O   -0.541658
    52  N   -0.602715
    53  H    0.352172
    54  C   -0.223287
    55  H    0.200375
    56  H    0.218366
    57  C    0.606661
    58  O   -0.538973
    59  N   -0.630578
    60  H    0.419450
    61  C   -0.249587
    62  H    0.201248
    63  H    0.176762
    64  C    0.633121
    65  O   -0.578819
    66  N   -0.549826
    67  H    0.388639
    68  C   -0.225853
    69  H    0.167458
    70  H    0.211532
    71  C    0.637536
    72  O   -0.525036
    73  N   -0.588594
    74  H    0.343572
    75  C   -0.232707
    76  H    0.209203
    77  H    0.199467
    78  C    0.594662
    79  O   -0.532274
    80  N   -0.578006
    81  H    0.387804
    82  C   -0.240351
    83  H    0.205515
    84  H    0.196273
    85  C    0.589321
    86  O   -0.538939
    87  N   -0.599551
    88  H    0.390286
    89  C   -0.250695
    90  H    0.193649
    91  H    0.203702
    92  C    0.646938
    93  O   -0.563878
    94  N   -0.576795
    95  H    0.379164
    96  C   -0.221567
    97  H    0.206427
    98  H    0.218914
    99  C    0.611130
   100  O   -0.491838
   101  O   -0.551402
   102  H    0.442710
 Sum of Mulliken charges =   1.00000

 Dipole moment (field-independent basis, Debye):
    X=             20.8474    Y=             38.2234    Z=            -11.4768  Tot=             45.0262
 Quadrupole moment (field-independent basis, Debye-Ang):
   XX=           -202.7674   YY=             -6.6276   ZZ=           -236.2527
   XY=            144.6575   XZ=            -29.5839   YZ=            -97.1375

 Normal termination of Gaussian 16 at Thu Aug 11 11:22:45 2022.
