 Gaussian 16, Revision C.01,
 Gaussian 16:  ES64L-G16RevC.01  3-Jul-2019

 ----------------------------------------------------------------------
 # B3LYP/6-31G* empiricaldispersion=gd3 guess=read geom=check nosymm in
 tegral(ultrafinegrid)
 ----------------------------------------------------------------------

 -----------------------------------------------------
 Candidate Structure: Conf:12 Charge calc in gas phase
 -----------------------------------------------------
 Structure from the checkpoint file:  "conf-12.chk"
 Charge =  1 Multiplicity = 1

                          Input orientation:
 ---------------------------------------------------------------------
 Center     Atomic      Atomic             Coordinates (Angstroms)
 Number     Number       Type             X           Y           Z
 ---------------------------------------------------------------------
      1          7           0        4.490322    8.107289    1.153477
      2          1           0        3.680955    8.732813    1.234236
      3          1           0        4.181808    7.220253    1.599189
      4          1           0        4.715454    7.900176    0.159980
      5          6           0        5.639331    8.650367    1.944145
      6          1           0        5.835056    9.674577    1.628560
      7          1           0        5.336596    8.618721    2.990608
      8          6           0        6.880369    7.814594    1.625347
      9          8           0        7.632461    8.175580    0.717622
     10          7           0        7.033751    6.662465    2.315208
     11          1           0        6.309083    6.331551    2.950307
     12          6           0        8.068825    5.702953    1.933450
     13          1           0        8.254517    5.038661    2.774224
     14          1           0        8.974825    6.251759    1.662881
     15          6           0        7.565139    4.855279    0.757688
     16          8           0        7.286315    3.659706    0.900882
     17          7           0        7.374499    5.537920   -0.398367
     18          1           0        7.570986    6.538590   -0.390245
     19          6           0        6.521958    5.039682   -1.460507
     20          1           0        6.971421    5.268362   -2.433586
     21          1           0        6.442688    3.957572   -1.374843
     22          6           0        5.162236    5.750283   -1.431873
     23          8           0        5.127788    6.985874   -1.352613
     24          7           0        4.063980    4.983016   -1.590811
     25          1           0        4.067591    3.991019   -1.364276
     26          6           0        2.752252    5.562959   -1.775643
     27          1           0        2.870123    6.510459   -2.311436
     28          1           0        2.162963    4.884014   -2.398429
     29          6           0        2.024306    5.858432   -0.460761
     30          8           0        2.626755    6.120778    0.579940
     31          7           0        0.671676    5.902438   -0.567266
     32          1           0        0.243771    5.405684   -1.339510
     33          6           0       -0.164475    6.030209    0.619639
     34          1           0        0.335245    6.686563    1.333365
     35          1           0       -1.123181    6.470729    0.330773
     36          6           0       -0.413124    4.631599    1.189477
     37          8           0       -0.828077    3.727985    0.456374
     38          7           0       -0.112928    4.469276    2.493204
     39          1           0        0.307418    5.241101    3.016882
     40          6           0       -0.220820    3.162084    3.120239
     41          1           0       -0.203463    3.284767    4.204329
     42          1           0       -1.165301    2.695134    2.825822
     43          6           0        0.970014    2.282018    2.721376
     44          8           0        1.977893    2.189439    3.439417
     45          7           0        0.839364    1.653674    1.535871
     46          1           0        0.101131    1.995414    0.921444
     47          6           0        1.891560    0.823062    0.995954
     48          1           0        2.372106    0.286287    1.819247
     49          1           0        1.440894    0.082785    0.326068
     50          6           0        2.946491    1.600495    0.193924
     51          8           0        2.707794    2.675960   -0.373949
     52          7           0        4.138539    0.985063    0.132432
     53          1           0        4.324769    0.185701    0.729704
     54          6           0        5.253793    1.558572   -0.600621
     55          1           0        5.551249    2.506596   -0.144886
     56          1           0        4.954254    1.733674   -1.641475
     57          6           0        6.403479    0.555504   -0.575342
     58          8           0        6.185863   -0.638966   -0.796709
     59          7           0        7.614494    1.061985   -0.248645
     60          1           0        7.645867    2.012867    0.123474
     61          6           0        8.725881    0.169775    0.094862
     62          1           0        8.759159   -0.650686   -0.625991
     63          1           0        9.660077    0.730037    0.066490
     64          6           0        8.480904   -0.324850    1.529474
     65          8           0        9.056009    0.161152    2.501491
     66          7           0        7.474742   -1.239586    1.626510
     67          1           0        6.969108   -1.454523    0.769628
     68          6           0        6.775945   -1.436602    2.887912
     69          1           0        6.071903   -2.261726    2.772059
     70          1           0        7.498848   -1.689932    3.667819
     71          6           0        5.968655   -0.184411    3.280770
     72          8           0        4.780415   -0.037070    2.961388
     73          7           0        6.668450    0.726199    3.995084
     74          1           0        7.681109    0.630776    3.990386
     75          6           0        6.065559    1.875197    4.650199
     76          1           0        6.744747    2.212266    5.434148
     77          1           0        5.126818    1.546422    5.112189
     78          6           0        5.757580    3.104690    3.783035
     79          8           0        6.318162    4.186536    3.976388
     80          7           0        4.757647    2.954185    2.882858
     81          1           0        4.239801    2.079659    2.867852
     82          6           0        4.222429    4.130139    2.225362
     83          1           0        4.974913    4.590595    1.585713
     84          1           0        3.378121    3.844139    1.599782
     85          6           0        3.770363    5.190756    3.228206
     86          8           0        4.162102    6.371204    3.185312
     87          7           0        2.915605    4.794451    4.186191
     88          1           0        2.563847    3.832840    4.181376
     89          6           0        2.529026    5.739955    5.210041
     90          1           0        3.414010    6.082666    5.758433
     91          1           0        1.866581    5.232533    5.918082
     92          6           0        1.754759    6.930764    4.631768
     93          8           0        0.843585    6.789784    3.814809
     94          7           0        2.050897    8.148265    5.150832
     95          1           0        2.924870    8.275404    5.640972
     96          6           0        1.304137    9.311138    4.731463
     97          1           0        1.488931   10.136400    5.426553
     98          1           0        0.234176    9.090776    4.757371
     99          6           0        1.656554    9.785326    3.325732
    100          8           0        2.663708    9.486986    2.715566
    101          8           0        0.715596   10.616020    2.862389
    102          1           0        0.994312   10.942863    1.985802
 ---------------------------------------------------------------------

 SCF Done:  E(RB3LYP) =  -2989.24072845     A.U. after    1 cycles

 Alpha  occ. eigenvalues --  -19.31630 -19.26637 -19.24050 -19.22940 -19.22580
 Alpha  occ. eigenvalues --  -19.22464 -19.22223 -19.22175 -19.21864 -19.21778
 Alpha  occ. eigenvalues --  -19.21128 -19.20867 -19.20836 -19.20571 -19.19992
 Alpha  occ. eigenvalues --  -14.51848 -14.48414 -14.46747 -14.46445 -14.46329
 Alpha  occ. eigenvalues --  -14.46026 -14.45648 -14.45568 -14.45402 -14.45071
 Alpha  occ. eigenvalues --  -14.44884 -14.44759 -14.44202 -14.43615 -10.44610
 Alpha  occ. eigenvalues --  -10.40971 -10.39791 -10.39456 -10.39417 -10.39268
 Alpha  occ. eigenvalues --  -10.38950 -10.38763 -10.38517 -10.38123 -10.37917
 Alpha  occ. eigenvalues --  -10.37701 -10.37297 -10.36827 -10.35223 -10.34461
 Alpha  occ. eigenvalues --  -10.34365 -10.33097 -10.33000 -10.32275 -10.32108
 Alpha  occ. eigenvalues --  -10.32074 -10.32074 -10.31492 -10.31426 -10.31407
 Alpha  occ. eigenvalues --  -10.30917 -10.30913  -1.22845  -1.16064  -1.14865
 Alpha  occ. eigenvalues --   -1.14450  -1.14231  -1.13945  -1.13891  -1.13740
 Alpha  occ. eigenvalues --   -1.13343  -1.13270  -1.12780  -1.12518  -1.12406
 Alpha  occ. eigenvalues --   -1.11908  -1.11299  -1.07453  -1.04542  -1.03091
 Alpha  occ. eigenvalues --   -1.02929  -1.02575  -1.02558  -1.02069  -1.01977
 Alpha  occ. eigenvalues --   -1.01554  -1.01320  -1.01284  -1.01172  -1.00455
 Alpha  occ. eigenvalues --   -0.99857  -0.88102  -0.87094  -0.86539  -0.85718
 Alpha  occ. eigenvalues --   -0.85208  -0.84408  -0.83516  -0.82718  -0.81586
 Alpha  occ. eigenvalues --   -0.80433  -0.79551  -0.78512  -0.77669  -0.76696
 Alpha  occ. eigenvalues --   -0.74582  -0.70906  -0.70532  -0.70002  -0.69441
 Alpha  occ. eigenvalues --   -0.69284  -0.68911  -0.68432  -0.68025  -0.67766
 Alpha  occ. eigenvalues --   -0.67577  -0.67304  -0.66802  -0.66518  -0.65944
 Alpha  occ. eigenvalues --   -0.65465  -0.64592  -0.64147  -0.63737  -0.63114
 Alpha  occ. eigenvalues --   -0.62645  -0.62403  -0.61994  -0.61934  -0.61367
 Alpha  occ. eigenvalues --   -0.61315  -0.60483  -0.60190  -0.60079  -0.59300
 Alpha  occ. eigenvalues --   -0.59241  -0.58553  -0.58332  -0.57952  -0.57704
 Alpha  occ. eigenvalues --   -0.57691  -0.57097  -0.56821  -0.56604  -0.56441
 Alpha  occ. eigenvalues --   -0.56386  -0.56306  -0.55655  -0.55468  -0.55034
 Alpha  occ. eigenvalues --   -0.54828  -0.54405  -0.54041  -0.53841  -0.53619
 Alpha  occ. eigenvalues --   -0.53241  -0.52751  -0.52584  -0.52078  -0.52021
 Alpha  occ. eigenvalues --   -0.51510  -0.51416  -0.51139  -0.50776  -0.50683
 Alpha  occ. eigenvalues --   -0.50536  -0.50412  -0.50354  -0.50112  -0.49912
 Alpha  occ. eigenvalues --   -0.49791  -0.49686  -0.49503  -0.49150  -0.48784
 Alpha  occ. eigenvalues --   -0.48522  -0.48330  -0.48191  -0.48046  -0.47841
 Alpha  occ. eigenvalues --   -0.47357  -0.47073  -0.46968  -0.46807  -0.46450
 Alpha  occ. eigenvalues --   -0.46351  -0.46181  -0.46076  -0.45894  -0.45282
 Alpha  occ. eigenvalues --   -0.45063  -0.44558  -0.44067  -0.40800  -0.39039
 Alpha  occ. eigenvalues --   -0.38491  -0.38114  -0.37920  -0.37811  -0.37804
 Alpha  occ. eigenvalues --   -0.37475  -0.37282  -0.37104  -0.36792  -0.36470
 Alpha  occ. eigenvalues --   -0.36417  -0.36309  -0.35798  -0.35650  -0.35319
 Alpha  occ. eigenvalues --   -0.35060  -0.34690  -0.34594  -0.34315  -0.34291
 Alpha  occ. eigenvalues --   -0.33689  -0.33377  -0.32953  -0.32595  -0.32250
 Alpha virt. eigenvalues --   -0.11188  -0.10180  -0.09875  -0.09756  -0.09063
 Alpha virt. eigenvalues --   -0.08906  -0.08501  -0.08147  -0.07764  -0.07643
 Alpha virt. eigenvalues --   -0.07098  -0.06774  -0.06526  -0.05502  -0.03630

 Mulliken charges:
               1
     1  N   -0.813310
     2  H    0.405867
     3  H    0.464575
     4  H    0.442057
     5  C   -0.230767
     6  H    0.214987
     7  H    0.210248
     8  C    0.575405
     9  O   -0.514052
    10  N   -0.593434
    11  H    0.400865
    12  C   -0.232075
    13  H    0.219458
    14  H    0.206265
    15  C    0.589972
    16  O   -0.535775
    17  N   -0.574275
    18  H    0.392047
    19  C   -0.243549
    20  H    0.209652
    21  H    0.181064
    22  C    0.615139
    23  O   -0.557628
    24  N   -0.588792
    25  H    0.389124
    26  C   -0.244974
    27  H    0.214911
    28  H    0.186887
    29  C    0.632103
    30  O   -0.552561
    31  N   -0.566560
    32  H    0.353424
    33  C   -0.257761
    34  H    0.205509
    35  H    0.193683
    36  C    0.617633
    37  O   -0.545735
    38  N   -0.616308
    39  H    0.407884
    40  C   -0.241110
    41  H    0.178137
    42  H    0.202301
    43  C    0.607702
    44  O   -0.552707
    45  N   -0.560094
    46  H    0.387746
    47  C   -0.271426
    48  H    0.224124
    49  H    0.206027
    50  C    0.623903
    51  O   -0.568663
    52  N   -0.588247
    53  H    0.370851
    54  C   -0.213804
    55  H    0.201873
    56  H    0.188845
    57  C    0.565404
    58  O   -0.530883
    59  N   -0.607585
    60  H    0.402561
    61  C   -0.239672
    62  H    0.203946
    63  H    0.193977
    64  C    0.586534
    65  O   -0.520571
    66  N   -0.580880
    67  H    0.380598
    68  C   -0.227715
    69  H    0.192588
    70  H    0.194603
    71  C    0.582779
    72  O   -0.548904
    73  N   -0.569555
    74  H    0.383884
    75  C   -0.239556
    76  H    0.192379
    77  H    0.193147
    78  C    0.617626
    79  O   -0.544904
    80  N   -0.602076
    81  H    0.393300
    82  C   -0.246263
    83  H    0.168622
    84  H    0.217910
    85  C    0.654674
    86  O   -0.611390
    87  N   -0.593265
    88  H    0.398559
    89  C   -0.238155
    90  H    0.182408
    91  H    0.200388
    92  C    0.658312
    93  O   -0.532591
    94  N   -0.569718
    95  H    0.354619
    96  C   -0.235378
    97  H    0.215675
    98  H    0.230116
    99  C    0.608701
   100  O   -0.485408
   101  O   -0.532374
   102  H    0.426871
 Sum of Mulliken charges =   1.00000

 Dipole moment (field-independent basis, Debye):
    X=             14.7849    Y=             28.3322    Z=             10.9524  Tot=             33.7825
 Quadrupole moment (field-independent basis, Debye-Ang):
   XX=           -252.6987   YY=            -83.9130   ZZ=           -248.9031
   XY=             63.7630   XZ=             25.9229   YZ=             75.4350

 Normal termination of Gaussian 16 at Thu Aug 11 11:21:50 2022.
