 Gaussian 16, Revision C.01,
 Gaussian 16:  ES64L-G16RevC.01  3-Jul-2019

 -------------------------------------------------------------------
 # B3LYP/6-31G* guess=read geom=check nosymm integral(ultrafinegrid)
 -------------------------------------------------------------------

 ------------------------------------------------------
 Candidate Structure: Conf:156 Charge calc in gas phase
 ------------------------------------------------------
 Structure from the checkpoint file:  "conf-156.chk"
 Charge =  1 Multiplicity = 1

                          Input orientation:
 ---------------------------------------------------------------------
 Center     Atomic      Atomic             Coordinates (Angstroms)
 Number     Number       Type             X           Y           Z
 ---------------------------------------------------------------------
      1          7           0       10.709738    1.836304   -2.468853
      2          1           0       11.633928    1.440937   -2.289630
      3          1           0       10.132047    1.777933   -1.586796
      4          1           0       10.776172    2.839349   -2.752404
      5          6           0        9.988685    1.183537   -3.606014
      6          1           0       10.717355    0.742892   -4.290971
      7          1           0        9.316325    0.403463   -3.247204
      8          6           0        9.232912    2.333664   -4.297537
      9          8           0        9.582190    3.495962   -4.042144
     10          7           0        8.255659    1.981697   -5.130954
     11          1           0        7.929593    1.010315   -5.146581
     12          6           0        7.420262    2.982687   -5.773569
     13          1           0        7.902389    3.362548   -6.684540
     14          1           0        7.275154    3.825006   -5.092723
     15          6           0        6.089473    2.339006   -6.152052
     16          8           0        5.986894    1.125200   -6.304019
     17          7           0        5.072185    3.217415   -6.384603
     18          1           0        5.130535    4.134740   -5.958142
     19          6           0        3.730482    2.719057   -6.609352
     20          1           0        3.252400    3.282466   -7.420854
     21          1           0        3.818108    1.676339   -6.919689
     22          6           0        2.854716    2.888625   -5.366701
     23          8           0        2.873322    3.928430   -4.707364
     24          7           0        2.023476    1.853789   -5.073767
     25          1           0        2.084409    1.008688   -5.624281
     26          6           0        0.903480    1.984821   -4.147801
     27          1           0        0.414557    2.950857   -4.325079
     28          1           0        0.185875    1.191227   -4.357240
     29          6           0        1.224749    1.897107   -2.645855
     30          8           0        0.597711    1.104843   -1.923805
     31          7           0        2.134702    2.770170   -2.174379
     32          1           0        2.589862    3.387845   -2.850227
     33          6           0        2.316554    3.006092   -0.743473
     34          1           0        2.921624    3.905680   -0.630627
     35          1           0        1.337926    3.179338   -0.279971
     36          6           0        3.050596    1.870868   -0.006202
     37          8           0        4.264773    1.911709    0.188944
     38          7           0        2.250928    0.859688    0.413995
     39          1           0        1.278326    0.914563    0.130921
     40          6           0        2.751707   -0.377162    0.981886
     41          1           0        3.842734   -0.313132    1.021135
     42          1           0        2.395598   -0.520070    2.008285
     43          6           0        2.386672   -1.641679    0.202184
     44          8           0        2.670572   -2.748395    0.668921
     45          7           0        1.758893   -1.497806   -0.987213
     46          1           0        1.491793   -0.583906   -1.345361
     47          6           0        1.377497   -2.676749   -1.741876
     48          1           0        0.677824   -3.289823   -1.161816
     49          1           0        0.868765   -2.343667   -2.649914
     50          6           0        2.612872   -3.489677   -2.156200
     51          8           0        3.520372   -2.978702   -2.810473
     52          7           0        2.609209   -4.789734   -1.765706
     53          1           0        1.877749   -5.093079   -1.136951
     54          6           0        3.751318   -5.658970   -1.962397
     55          1           0        4.250369   -5.378721   -2.890855
     56          1           0        3.408726   -6.692623   -2.076336
     57          6           0        4.803534   -5.660429   -0.843591
     58          8           0        5.857022   -6.299475   -1.012523
     59          7           0        4.514860   -5.011452    0.295315
     60          1           0        3.733988   -4.356628    0.331161
     61          6           0        5.387229   -5.068295    1.465440
     62          1           0        4.774697   -4.931711    2.357163
     63          1           0        5.850622   -6.059227    1.492217
     64          6           0        6.483247   -3.992794    1.514398
     65          8           0        6.578569   -3.213737    2.460027
     66          7           0        7.352798   -3.972225    0.474039
     67          1           0        7.276410   -4.614228   -0.308051
     68          6           0        8.425838   -3.005821    0.472866
     69          1           0        9.128410   -3.203715    1.292608
     70          1           0        8.954875   -3.108070   -0.477524
     71          6           0        7.901924   -1.570193    0.558161
     72          8           0        7.010365   -1.153292   -0.183275
     73          7           0        8.540269   -0.755725    1.438679
     74          1           0        9.098933   -1.180191    2.165648
     75          6           0        8.063383    0.598815    1.650013
     76          1           0        8.702109    1.069654    2.402445
     77          1           0        7.032301    0.595196    2.023978
     78          6           0        8.172259    1.423228    0.362338
     79          8           0        9.259173    1.488656   -0.233285
     80          7           0        7.048706    2.055073   -0.011163
     81          1           0        6.179310    1.841846    0.470983
     82          6           0        6.873182    2.786591   -1.250905
     83          1           0        6.278646    3.682386   -1.062351
     84          1           0        7.848790    3.109628   -1.623850
     85          6           0        6.158650    2.007859   -2.371305
     86          8           0        5.668434    2.637007   -3.310909
     87          7           0        6.163700    0.662021   -2.261106
     88          1           0        6.513083    0.216707   -1.413939
     89          6           0        5.579814   -0.215595   -3.255359
     90          1           0        5.204877    0.404484   -4.073578
     91          1           0        4.744137   -0.779634   -2.827777
     92          6           0        6.630268   -1.167428   -3.841249
     93          8           0        7.763094   -0.781266   -4.156663
     94          7           0        6.204625   -2.436378   -4.020185
     95          1           0        5.287321   -2.700260   -3.664147
     96          6           0        7.080833   -3.493094   -4.509502
     97          1           0        8.027494   -3.028904   -4.787814
     98          1           0        6.636907   -3.990630   -5.375923
     99          6           0        7.308084   -4.492539   -3.375922
    100          8           0        8.014827   -4.268752   -2.412411
    101          8           0        6.568849   -5.597983   -3.528235
    102          1           0        6.548141   -6.092497   -2.663789
 ---------------------------------------------------------------------

 SCF Done:  E(RB3LYP) =  -2989.05964763     A.U. after    2 cycles

 Alpha  occ. eigenvalues --  -19.26133 -19.22716 -19.22537 -19.22501 -19.22357
 Alpha  occ. eigenvalues --  -19.22128 -19.22042 -19.21488 -19.21432 -19.21176
 Alpha  occ. eigenvalues --  -19.20754 -19.20536 -19.20155 -19.19437 -19.18331
 Alpha  occ. eigenvalues --  -14.53992 -14.47162 -14.46840 -14.46071 -14.46065
 Alpha  occ. eigenvalues --  -14.45885 -14.45856 -14.45386 -14.45340 -14.44930
 Alpha  occ. eigenvalues --  -14.44714 -14.44429 -14.43593 -14.42501 -10.39663
 Alpha  occ. eigenvalues --  -10.39593 -10.39490 -10.39425 -10.39384 -10.39176
 Alpha  occ. eigenvalues --  -10.39075 -10.38792 -10.38244 -10.37866 -10.37671
 Alpha  occ. eigenvalues --  -10.37290 -10.36985 -10.35459 -10.34921 -10.33323
 Alpha  occ. eigenvalues --  -10.33196 -10.32870 -10.32613 -10.32285 -10.32195
 Alpha  occ. eigenvalues --  -10.32023 -10.31599 -10.31395 -10.30705 -10.30342
 Alpha  occ. eigenvalues --  -10.30220 -10.30110  -1.17476  -1.14716  -1.14445
 Alpha  occ. eigenvalues --   -1.14293  -1.14150  -1.13828  -1.13330  -1.12982
 Alpha  occ. eigenvalues --   -1.12629  -1.12444  -1.12401  -1.11777  -1.10984
 Alpha  occ. eigenvalues --   -1.10067  -1.08628  -1.08573  -1.03222  -1.03148
 Alpha  occ. eigenvalues --   -1.02986  -1.02685  -1.02107  -1.02039  -1.01396
 Alpha  occ. eigenvalues --   -1.01276  -1.01102  -1.00666  -1.00515  -0.99633
 Alpha  occ. eigenvalues --   -0.98736  -0.87056  -0.86327  -0.85880  -0.85592
 Alpha  occ. eigenvalues --   -0.84340  -0.83907  -0.82782  -0.82062  -0.81017
 Alpha  occ. eigenvalues --   -0.79980  -0.78911  -0.78024  -0.77814  -0.76524
 Alpha  occ. eigenvalues --   -0.71005  -0.70342  -0.70105  -0.69439  -0.69326
 Alpha  occ. eigenvalues --   -0.69098  -0.68405  -0.68285  -0.68017  -0.67656
 Alpha  occ. eigenvalues --   -0.67322  -0.67076  -0.67058  -0.66588  -0.66167
 Alpha  occ. eigenvalues --   -0.65738  -0.64675  -0.64033  -0.63468  -0.63036
 Alpha  occ. eigenvalues --   -0.62668  -0.61662  -0.61283  -0.60898  -0.59960
 Alpha  occ. eigenvalues --   -0.59392  -0.59289  -0.59231  -0.58688  -0.58386
 Alpha  occ. eigenvalues --   -0.57953  -0.57551  -0.57414  -0.57391  -0.57244
 Alpha  occ. eigenvalues --   -0.56672  -0.56590  -0.56453  -0.55966  -0.55556
 Alpha  occ. eigenvalues --   -0.55088  -0.54929  -0.54770  -0.54629  -0.53785
 Alpha  occ. eigenvalues --   -0.53349  -0.53325  -0.53178  -0.52969  -0.52571
 Alpha  occ. eigenvalues --   -0.52486  -0.52355  -0.52096  -0.51801  -0.51506
 Alpha  occ. eigenvalues --   -0.51463  -0.51070  -0.51047  -0.50672  -0.50453
 Alpha  occ. eigenvalues --   -0.50316  -0.50074  -0.49835  -0.49637  -0.49471
 Alpha  occ. eigenvalues --   -0.49346  -0.48876  -0.48555  -0.48465  -0.48013
 Alpha  occ. eigenvalues --   -0.47922  -0.47570  -0.47409  -0.47247  -0.47188
 Alpha  occ. eigenvalues --   -0.46967  -0.46759  -0.46555  -0.46307  -0.45766
 Alpha  occ. eigenvalues --   -0.45327  -0.44987  -0.44819  -0.44452  -0.44337
 Alpha  occ. eigenvalues --   -0.43765  -0.42862  -0.39226  -0.38556  -0.38474
 Alpha  occ. eigenvalues --   -0.38263  -0.37704  -0.37431  -0.37374  -0.37214
 Alpha  occ. eigenvalues --   -0.37209  -0.36833  -0.36338  -0.35848  -0.35759
 Alpha  occ. eigenvalues --   -0.35218  -0.35150  -0.35066  -0.34951  -0.34836
 Alpha  occ. eigenvalues --   -0.34588  -0.34339  -0.34233  -0.33802  -0.33469
 Alpha  occ. eigenvalues --   -0.33158  -0.32820  -0.32718  -0.32103  -0.31358
 Alpha virt. eigenvalues --   -0.09272  -0.08678  -0.08509  -0.08450  -0.08337
 Alpha virt. eigenvalues --   -0.08185  -0.07926  -0.07542  -0.07078  -0.06601
 Alpha virt. eigenvalues --   -0.06423  -0.05463  -0.05111  -0.04601  -0.04507

 Mulliken charges:
               1
     1  N   -0.777098
     2  H    0.396243
     3  H    0.457241
     4  H    0.409804
     5  C   -0.289981
     6  H    0.222871
     7  H    0.266005
     8  C    0.615845
     9  O   -0.543525
    10  N   -0.614514
    11  H    0.410488
    12  C   -0.194988
    13  H    0.200970
    14  H    0.203148
    15  C    0.629237
    16  O   -0.531071
    17  N   -0.578542
    18  H    0.354534
    19  C   -0.245600
    20  H    0.201393
    21  H    0.195387
    22  C    0.640258
    23  O   -0.533508
    24  N   -0.587478
    25  H    0.351448
    26  C   -0.236128
    27  H    0.211534
    28  H    0.190591
    29  C    0.596916
    30  O   -0.552582
    31  N   -0.576982
    32  H    0.402799
    33  C   -0.230335
    34  H    0.196839
    35  H    0.189125
    36  C    0.607776
    37  O   -0.534041
    38  N   -0.593203
    39  H    0.361460
    40  C   -0.228154
    41  H    0.227469
    42  H    0.206635
    43  C    0.611155
    44  O   -0.547418
    45  N   -0.608846
    46  H    0.394029
    47  C   -0.225039
    48  H    0.175658
    49  H    0.190919
    50  C    0.620901
    51  O   -0.521658
    52  N   -0.584463
    53  H    0.350502
    54  C   -0.249656
    55  H    0.220247
    56  H    0.206540
    57  C    0.620861
    58  O   -0.569275
    59  N   -0.609217
    60  H    0.408292
    61  C   -0.243827
    62  H    0.195362
    63  H    0.204556
    64  C    0.605834
    65  O   -0.528143
    66  N   -0.589031
    67  H    0.382424
    68  C   -0.217484
    69  H    0.160989
    70  H    0.210866
    71  C    0.638467
    72  O   -0.548609
    73  N   -0.570232
    74  H    0.352019
    75  C   -0.221848
    76  H    0.193178
    77  H    0.187235
    78  C    0.627508
    79  O   -0.576961
    80  N   -0.590863
    81  H    0.393400
    82  C   -0.236973
    83  H    0.198411
    84  H    0.185757
    85  C    0.606872
    86  O   -0.555108
    87  N   -0.617775
    88  H    0.412443
    89  C   -0.273160
    90  H    0.217975
    91  H    0.184389
    92  C    0.647654
    93  O   -0.564564
    94  N   -0.620918
    95  H    0.397482
    96  C   -0.193876
    97  H    0.209642
    98  H    0.187001
    99  C    0.566019
   100  O   -0.467535
   101  O   -0.580552
   102  H    0.450157
 Sum of Mulliken charges =   1.00000

 Dipole moment (field-independent basis, Debye):
    X=             26.1180    Y=              0.7509    Z=            -10.8720  Tot=             28.3004
 Quadrupole moment (field-independent basis, Debye-Ang):
   XX=            -65.1414   YY=           -280.0673   ZZ=           -260.6631
   XY=             27.5723   XZ=            -46.5174   YZ=             -8.2480

 Normal termination of Gaussian 16 at Thu Aug 11 11:21:41 2022.
