 Gaussian 16, Revision C.01,
 Gaussian 16:  ES64L-G16RevC.01  3-Jul-2019

 -------------------------------------------------------------------
 # B3LYP/6-31G* guess=read geom=check nosymm integral(ultrafinegrid)
 -------------------------------------------------------------------

 ------------------------------------------------------
 Candidate Structure: Conf:702 Charge calc in gas phase
 ------------------------------------------------------
 Structure from the checkpoint file:  "conf-702.chk"
 Charge =  1 Multiplicity = 1

                          Input orientation:
 ---------------------------------------------------------------------
 Center     Atomic      Atomic             Coordinates (Angstroms)
 Number     Number       Type             X           Y           Z
 ---------------------------------------------------------------------
      1          7           0       -4.785867    5.428684   -3.785715
      2          1           0       -4.502358    5.179411   -4.736418
      3          1           0       -5.142800    6.387956   -3.794354
      4          1           0       -5.551649    4.767770   -3.427423
      5          6           0       -3.711162    5.201259   -2.753591
      6          1           0       -2.871171    4.687681   -3.224958
      7          1           0       -3.357666    6.146125   -2.343108
      8          6           0       -4.414443    4.316116   -1.693221
      9          8           0       -5.551541    3.910122   -1.985507
     10          7           0       -3.761936    4.062967   -0.560749
     11          1           0       -2.869227    4.544317   -0.396223
     12          6           0       -4.444777    3.386993    0.546457
     13          1           0       -5.270520    2.807677    0.125196
     14          1           0       -4.874785    4.126759    1.228191
     15          6           0       -3.585082    2.466743    1.414164
     16          8           0       -3.920008    2.315210    2.590553
     17          7           0       -2.534191    1.829308    0.851289
     18          1           0       -2.160120    2.101335   -0.055228
     19          6           0       -1.653217    0.997238    1.675054
     20          1           0       -2.268884    0.444265    2.388718
     21          1           0       -1.119362    0.304042    1.026864
     22          6           0       -0.620766    1.880468    2.390031
     23          8           0        0.571324    1.900787    2.066064
     24          7           0       -1.143332    2.712073    3.322972
     25          1           0       -2.150143    2.675441    3.470650
     26          6           0       -0.398551    3.846546    3.848862
     27          1           0       -0.869767    4.193235    4.768812
     28          1           0        0.621584    3.520104    4.078526
     29          6           0       -0.322834    5.053551    2.893128
     30          8           0       -0.545629    6.191733    3.275279
     31          7           0        0.032790    4.748237    1.596274
     32          1           0        0.419416    3.822236    1.426968
     33          6           0        0.436061    5.810606    0.706025
     34          1           0        0.077865    6.747005    1.150502
     35          1           0        1.529657    5.872573    0.641323
     36          6           0       -0.147350    5.722138   -0.699992
     37          8           0       -1.358109    5.563465   -0.945698
     38          7           0        0.759154    5.934167   -1.682341
     39          1           0        1.725581    5.723351   -1.455397
     40          6           0        0.412008    6.012707   -3.095213
     41          1           0       -0.583945    6.456835   -3.170797
     42          1           0        1.127990    6.660103   -3.604446
     43          6           0        0.462285    4.634648   -3.777473
     44          8           0        1.321563    4.353487   -4.596977
     45          7           0       -0.532984    3.769109   -3.365470
     46          1           0       -0.960660    4.040926   -2.480618
     47          6           0       -0.289787    2.318421   -3.421642
     48          1           0       -1.230532    1.791962   -3.608519
     49          1           0        0.411409    2.112655   -4.231178
     50          6           0        0.246520    1.962771   -2.029987
     51          8           0       -0.439495    2.262681   -1.040414
     52          7           0        1.486633    1.455486   -1.973287
     53          1           0        1.971508    1.233153   -2.845611
     54          6           0        2.293169    1.490163   -0.759667
     55          1           0        2.857828    0.559719   -0.673796
     56          1           0        1.635497    1.596503    0.107721
     57          6           0        3.240004    2.699095   -0.854794
     58          8           0        2.817035    3.848361   -1.064413
     59          7           0        4.554453    2.404461   -0.742251
     60          1           0        4.829383    1.422457   -0.840107
     61          6           0        5.575533    3.383966   -1.105109
     62          1           0        5.264392    4.370510   -0.756799
     63          1           0        6.522133    3.110495   -0.636886
     64          6           0        5.731786    3.312839   -2.629100
     65          8           0        6.497369    2.514039   -3.161454
     66          7           0        4.898203    4.132373   -3.342856
     67          1           0        4.161832    4.563087   -2.791489
     68          6           0        4.503115    3.798472   -4.716144
     69          1           0        3.810633    2.952285   -4.727224
     70          1           0        3.964181    4.657828   -5.126690
     71          6           0        5.653014    3.450173   -5.652649
     72          8           0        5.509163    2.545500   -6.494654
     73          7           0        6.763938    4.206797   -5.597625
     74          1           0        6.868609    4.819095   -4.798993
     75          6           0        7.966954    3.872998   -6.359252
     76          1           0        8.625475    4.741838   -6.355312
     77          1           0        7.667410    3.654894   -7.387707
     78          6           0        8.769923    2.694471   -5.762085
     79          8           0        9.800166    2.879559   -5.129847
     80          7           0        8.240555    1.461643   -6.019301
     81          1           0        7.349947    1.420730   -6.502411
     82          6           0        8.919964    0.225330   -5.672179
     83          1           0        9.024256   -0.413152   -6.553440
     84          1           0        9.915543    0.501527   -5.311309
     85          6           0        8.208641   -0.622116   -4.609391
     86          8           0        7.949315   -1.811824   -4.811237
     87          7           0        7.926962   -0.005307   -3.432259
     88          1           0        7.913711    1.008063   -3.385933
     89          6           0        7.290435   -0.726697   -2.337796
     90          1           0        7.507782   -0.215918   -1.398905
     91          1           0        7.711059   -1.736064   -2.304384
     92          6           0        5.767029   -0.797176   -2.499072
     93          8           0        4.985205   -0.209055   -1.741184
     94          7           0        5.342852   -1.524648   -3.560591
     95          1           0        6.065946   -1.888791   -4.184062
     96          6           0        3.982787   -1.381299   -4.053930
     97          1           0        3.275352   -1.446447   -3.227345
     98          1           0        3.782561   -2.186751   -4.766232
     99          6           0        3.805463   -0.030753   -4.753915
    100          8           0        2.964086    0.803697   -4.441034
    101          8           0        4.695551    0.134081   -5.718610
    102          1           0        4.717069    1.074178   -6.060010
 ---------------------------------------------------------------------

 SCF Done:  E(RB3LYP) =  -2989.01101675     A.U. after    3 cycles

 Alpha  occ. eigenvalues --  -19.27474 -19.26602 -19.24312 -19.23130 -19.23005
 Alpha  occ. eigenvalues --  -19.22061 -19.22006 -19.21829 -19.21585 -19.20793
 Alpha  occ. eigenvalues --  -19.20751 -19.20146 -19.19400 -19.18772 -19.18101
 Alpha  occ. eigenvalues --  -14.60757 -14.49731 -14.47864 -14.46525 -14.45952
 Alpha  occ. eigenvalues --  -14.45663 -14.45345 -14.45268 -14.45254 -14.43900
 Alpha  occ. eigenvalues --  -14.43894 -14.43527 -14.42976 -14.42679 -10.44202
 Alpha  occ. eigenvalues --  -10.40919 -10.40738 -10.40437 -10.39791 -10.38888
 Alpha  occ. eigenvalues --  -10.38821 -10.38697 -10.38535 -10.38497 -10.37231
 Alpha  occ. eigenvalues --  -10.37064 -10.36452 -10.35750 -10.35539 -10.34157
 Alpha  occ. eigenvalues --  -10.33552 -10.32650 -10.32163 -10.31888 -10.31600
 Alpha  occ. eigenvalues --  -10.31533 -10.30975 -10.30634 -10.30623 -10.30380
 Alpha  occ. eigenvalues --  -10.30251 -10.29038  -1.19901  -1.18458  -1.15495
 Alpha  occ. eigenvalues --   -1.14536  -1.14346  -1.14140  -1.13381  -1.13112
 Alpha  occ. eigenvalues --   -1.13000  -1.12532  -1.12104  -1.11829  -1.11021
 Alpha  occ. eigenvalues --   -1.10498  -1.09874  -1.09646  -1.06197  -1.04169
 Alpha  occ. eigenvalues --   -1.02500  -1.02474  -1.01826  -1.01605  -1.01272
 Alpha  occ. eigenvalues --   -1.00971  -1.00565  -1.00440  -0.99505  -0.99395
 Alpha  occ. eigenvalues --   -0.98237  -0.90261  -0.87191  -0.85848  -0.85050
 Alpha  occ. eigenvalues --   -0.84369  -0.83909  -0.82910  -0.82032  -0.80873
 Alpha  occ. eigenvalues --   -0.79886  -0.79039  -0.77761  -0.77066  -0.76225
 Alpha  occ. eigenvalues --   -0.74851  -0.74396  -0.72138  -0.70825  -0.70200
 Alpha  occ. eigenvalues --   -0.69261  -0.69002  -0.68513  -0.67990  -0.67587
 Alpha  occ. eigenvalues --   -0.67164  -0.66786  -0.66629  -0.66463  -0.65677
 Alpha  occ. eigenvalues --   -0.65252  -0.64958  -0.64718  -0.63490  -0.63296
 Alpha  occ. eigenvalues --   -0.62383  -0.61679  -0.61583  -0.61195  -0.60742
 Alpha  occ. eigenvalues --   -0.60645  -0.60493  -0.59877  -0.59797  -0.59207
 Alpha  occ. eigenvalues --   -0.58656  -0.58318  -0.58050  -0.57517  -0.57230
 Alpha  occ. eigenvalues --   -0.57152  -0.56750  -0.56574  -0.56288  -0.55840
 Alpha  occ. eigenvalues --   -0.55418  -0.55271  -0.54990  -0.54854  -0.54594
 Alpha  occ. eigenvalues --   -0.54092  -0.54001  -0.53873  -0.53428  -0.53029
 Alpha  occ. eigenvalues --   -0.52339  -0.52298  -0.51894  -0.51685  -0.51546
 Alpha  occ. eigenvalues --   -0.51183  -0.50983  -0.50834  -0.50402  -0.50374
 Alpha  occ. eigenvalues --   -0.49996  -0.49838  -0.49381  -0.49268  -0.49104
 Alpha  occ. eigenvalues --   -0.48841  -0.48717  -0.48617  -0.48406  -0.48325
 Alpha  occ. eigenvalues --   -0.48085  -0.47761  -0.47471  -0.47403  -0.46974
 Alpha  occ. eigenvalues --   -0.46846  -0.46521  -0.46271  -0.45981  -0.45768
 Alpha  occ. eigenvalues --   -0.45502  -0.45227  -0.45112  -0.44678  -0.44230
 Alpha  occ. eigenvalues --   -0.44216  -0.43641  -0.42426  -0.40105  -0.39653
 Alpha  occ. eigenvalues --   -0.39521  -0.38348  -0.38163  -0.37846  -0.37696
 Alpha  occ. eigenvalues --   -0.37048  -0.36786  -0.36414  -0.36369  -0.35935
 Alpha  occ. eigenvalues --   -0.35857  -0.35615  -0.35508  -0.34847  -0.34638
 Alpha  occ. eigenvalues --   -0.34220  -0.34024  -0.33991  -0.33554  -0.33250
 Alpha  occ. eigenvalues --   -0.32666  -0.31870  -0.31505  -0.31191  -0.30949
 Alpha virt. eigenvalues --   -0.12865  -0.11908  -0.10817  -0.10109  -0.09017
 Alpha virt. eigenvalues --   -0.08664  -0.08459  -0.07952  -0.07693  -0.06889
 Alpha virt. eigenvalues --   -0.06683  -0.06629  -0.05996  -0.05213  -0.04926

 Mulliken charges:
               1
     1  N   -0.753885
     2  H    0.419160
     3  H    0.419323
     4  H    0.438018
     5  C   -0.288422
     6  H    0.246766
     7  H    0.252460
     8  C    0.618599
     9  O   -0.528884
    10  N   -0.620422
    11  H    0.408997
    12  C   -0.224313
    13  H    0.232637
    14  H    0.214344
    15  C    0.596809
    16  O   -0.528696
    17  N   -0.596464
    18  H    0.374349
    19  C   -0.232609
    20  H    0.206128
    21  H    0.189297
    22  C    0.593836
    23  O   -0.531320
    24  N   -0.577114
    25  H    0.382575
    26  C   -0.246909
    27  H    0.198795
    28  H    0.207082
    29  C    0.581518
    30  O   -0.488708
    31  N   -0.609244
    32  H    0.379925
    33  C   -0.228007
    34  H    0.227572
    35  H    0.173504
    36  C    0.629649
    37  O   -0.587002
    38  N   -0.569424
    39  H    0.381025
    40  C   -0.238689
    41  H    0.172039
    42  H    0.196377
    43  C    0.583626
    44  O   -0.481233
    45  N   -0.613882
    46  H    0.360507
    47  C   -0.240658
    48  H    0.171678
    49  H    0.218903
    50  C    0.593871
    51  O   -0.561195
    52  N   -0.595165
    53  H    0.405002
    54  C   -0.293919
    55  H    0.201240
    56  H    0.259037
    57  C    0.611487
    58  O   -0.583814
    59  N   -0.583555
    60  H    0.398545
    61  C   -0.233365
    62  H    0.186492
    63  H    0.195685
    64  C    0.586477
    65  O   -0.519140
    66  N   -0.603745
    67  H    0.352363
    68  C   -0.248209
    69  H    0.224935
    70  H    0.204518
    71  C    0.642782
    72  O   -0.582377
    73  N   -0.550851
    74  H    0.353285
    75  C   -0.243719
    76  H    0.195325
    77  H    0.197620
    78  C    0.595754
    79  O   -0.500109
    80  N   -0.599538
    81  H    0.362898
    82  C   -0.225803
    83  H    0.190638
    84  H    0.218156
    85  C    0.590361
    86  O   -0.533645
    87  N   -0.576601
    88  H    0.388403
    89  C   -0.236328
    90  H    0.178188
    91  H    0.207882
    92  C    0.610228
    93  O   -0.553521
    94  N   -0.575760
    95  H    0.390331
    96  C   -0.212494
    97  H    0.194471
    98  H    0.199357
    99  C    0.598061
   100  O   -0.497980
   101  O   -0.573342
   102  H    0.461173
 Sum of Mulliken charges =   1.00000

 Dipole moment (field-independent basis, Debye):
    X=             -5.8028    Y=             22.2858    Z=            -17.4066  Tot=             28.8673
 Quadrupole moment (field-independent basis, Debye-Ang):
   XX=           -241.2875   YY=           -194.5124   ZZ=           -258.7827
   XY=            -45.5349   XZ=             38.2065   YZ=            -96.3529

 Normal termination of Gaussian 16 at Thu Aug 11 11:22:01 2022.
