 Gaussian 16, Revision C.01,
 Gaussian 16:  ES64L-G16RevC.01  3-Jul-2019

 ----------------------------------------------------------------------
 # B3LYP/6-31G* empiricaldispersion=gd3 guess=read geom=check nosymm in
 tegral(ultrafinegrid)
 ----------------------------------------------------------------------

 ------------------------------------------------------
 Candidate Structure: Conf:558 Charge calc in gas phase
 ------------------------------------------------------
 Structure from the checkpoint file:  "conf-558.chk"
 Charge =  1 Multiplicity = 1

                          Input orientation:
 ---------------------------------------------------------------------
 Center     Atomic      Atomic             Coordinates (Angstroms)
 Number     Number       Type             X           Y           Z
 ---------------------------------------------------------------------
      1          7           0        5.526541    1.557951    5.922367
      2          1           0        4.880926    0.741095    5.963740
      3          1           0        5.042157    2.358156    5.429255
      4          1           0        5.809609    1.880063    6.854250
      5          6           0        6.742369    1.292186    5.098474
      6          1           0        7.267670    0.420029    5.498456
      7          1           0        6.404358    1.104870    4.076179
      8          6           0        7.620949    2.537743    5.209462
      9          8           0        7.612673    3.200340    6.247660
     10          7           0        8.391499    2.804911    4.135087
     11          1           0        8.160632    2.364590    3.252266
     12          6           0        9.218047    4.011699    4.093872
     13          1           0       10.004688    3.874098    3.351377
     14          1           0        9.663861    4.151783    5.080834
     15          6           0        8.361995    5.210153    3.663424
     16          8           0        8.250562    5.504554    2.471788
     17          7           0        7.716963    5.857516    4.664502
     18          1           0        7.680855    5.403745    5.571375
     19          6           0        6.773350    6.941151    4.389166
     20          1           0        6.639081    7.533070    5.294673
     21          1           0        7.202059    7.568335    3.602131
     22          6           0        5.398748    6.402130    3.965206
     23          8           0        4.405020    6.479568    4.674629
     24          7           0        5.388530    5.785827    2.743406
     25          1           0        6.283293    5.634672    2.283102
     26          6           0        4.266154    4.950066    2.409260
     27          1           0        3.351319    5.546996    2.319389
     28          1           0        4.457168    4.470019    1.443820
     29          6           0        4.044476    3.849866    3.454179
     30          8           0        4.943981    3.509110    4.234532
     31          7           0        2.836325    3.258881    3.447068
     32          1           0        2.091289    3.575783    2.836775
     33          6           0        2.520879    2.180938    4.353113
     34          1           0        3.324699    1.443292    4.355125
     35          1           0        2.396481    2.546537    5.381648
     36          6           0        1.252769    1.467621    3.905972
     37          8           0        0.651339    1.770589    2.878336
     38          7           0        0.835483    0.494238    4.759672
     39          1           0        1.525419    0.097169    5.391132
     40          6           0       -0.334403   -0.284361    4.420949
     41          1           0       -0.647102   -0.849388    5.305891
     42          1           0       -1.146429    0.395657    4.149401
     43          6           0       -0.056909   -1.288736    3.299946
     44          8           0        1.049488   -1.843703    3.203879
     45          7           0       -1.090973   -1.602774    2.498269
     46          1           0       -1.881125   -0.972562    2.459127
     47          6           0       -0.924334   -2.562024    1.406693
     48          1           0       -0.584385   -3.519620    1.803470
     49          1           0       -1.894662   -2.693475    0.923241
     50          6           0        0.059147   -2.002270    0.377552
     51          8           0       -0.148514   -0.904912   -0.148134
     52          7           0        1.150950   -2.757006    0.130177
     53          1           0        1.330066   -3.568408    0.719134
     54          6           0        2.164346   -2.319003   -0.819815
     55          1           0        1.662162   -1.922933   -1.709500
     56          1           0        2.771976   -3.176777   -1.109727
     57          6           0        3.110963   -1.239693   -0.272001
     58          8           0        4.342194   -1.369161   -0.299756
     59          7           0        2.530382   -0.145065    0.265346
     60          1           0        1.519300   -0.039334    0.173683
     61          6           0        3.339481    0.904483    0.856977
     62          1           0        4.027147    1.341598    0.127304
     63          1           0        2.661234    1.680042    1.220130
     64          6           0        4.215713    0.443857    2.029739
     65          8           0        5.225611    1.080884    2.329397
     66          7           0        3.764113   -0.632387    2.723529
     67          1           0        2.902310   -1.078682    2.426589
     68          6           0        4.607987   -1.382666    3.631956
     69          1           0        4.853887   -2.353862    3.199925
     70          1           0        5.547561   -0.840368    3.741206
     71          6           0        3.945542   -1.547414    4.997133
     72          8           0        3.618525   -0.567196    5.707272
     73          7           0        3.741953   -2.820355    5.349750
     74          1           0        4.015039   -3.548501    4.685870
     75          6           0        3.005125   -3.272631    6.522875
     76          1           0        2.495302   -2.413714    6.967564
     77          1           0        3.671590   -3.720180    7.264273
     78          6           0        2.022964   -4.360552    6.059585
     79          8           0        2.090295   -5.515318    6.470375
     80          7           0        1.129047   -3.941013    5.121426
     81          1           0        1.306627   -3.061295    4.637757
     82          6           0        0.353105   -4.910103    4.355110
     83          1           0        0.031044   -5.707482    5.028782
     84          1           0       -0.523940   -4.416360    3.935963
     85          6           0        1.212109   -5.460547    3.208479
     86          8           0        1.123320   -5.047754    2.049803
     87          7           0        2.106871   -6.408902    3.587168
     88          1           0        2.225607   -6.561352    4.585566
     89          6           0        3.167631   -6.806417    2.694644
     90          1           0        2.758173   -6.901160    1.684086
     91          1           0        3.549757   -7.785990    2.999083
     92          6           0        4.321914   -5.789674    2.678011
     93          8           0        4.337829   -4.796548    3.408998
     94          7           0        5.335678   -6.069163    1.833455
     95          1           0        5.223017   -6.804371    1.148911
     96          6           0        6.475182   -5.169817    1.724321
     97          1           0        7.205144   -5.623654    1.048016
     98          1           0        6.942315   -5.038181    2.701997
     99          6           0        6.118560   -3.776034    1.200885
    100          8           0        6.639446   -2.770117    1.636697
    101          8           0        5.212822   -3.819504    0.223689
    102          1           0        5.002392   -2.881497   -0.063446
 ---------------------------------------------------------------------

 SCF Done:  E(RB3LYP) =  -2989.22397767     A.U. after    3 cycles

 Alpha  occ. eigenvalues --  -19.25678 -19.24406 -19.24187 -19.23532 -19.23199
 Alpha  occ. eigenvalues --  -19.23191 -19.22971 -19.22653 -19.22436 -19.22122
 Alpha  occ. eigenvalues --  -19.21542 -19.21242 -19.21103 -19.20273 -19.18598
 Alpha  occ. eigenvalues --  -14.53353 -14.48333 -14.47792 -14.47415 -14.47287
 Alpha  occ. eigenvalues --  -14.46838 -14.46835 -14.46190 -14.45898 -14.45766
 Alpha  occ. eigenvalues --  -14.45723 -14.45503 -14.44671 -14.42597 -10.40965
 Alpha  occ. eigenvalues --  -10.40902 -10.40441 -10.40148 -10.40060 -10.39670
 Alpha  occ. eigenvalues --  -10.39466 -10.39369 -10.39215 -10.38930 -10.38733
 Alpha  occ. eigenvalues --  -10.38487 -10.37409 -10.35572 -10.35200 -10.34386
 Alpha  occ. eigenvalues --  -10.33556 -10.33428 -10.33380 -10.32829 -10.32770
 Alpha  occ. eigenvalues --  -10.32569 -10.32562 -10.32526 -10.32110 -10.32068
 Alpha  occ. eigenvalues --  -10.31801 -10.30134  -1.17326  -1.16087  -1.15472
 Alpha  occ. eigenvalues --   -1.15345  -1.15168  -1.15012  -1.14358  -1.14214
 Alpha  occ. eigenvalues --   -1.14182  -1.13551  -1.13159  -1.12882  -1.12139
 Alpha  occ. eigenvalues --   -1.10325  -1.08528  -1.08497  -1.04582  -1.04079
 Alpha  occ. eigenvalues --   -1.03460  -1.03396  -1.03281  -1.03154  -1.03012
 Alpha  occ. eigenvalues --   -1.02799  -1.02050  -1.01790  -1.01042  -1.00607
 Alpha  occ. eigenvalues --   -0.99305  -0.88066  -0.87717  -0.86577  -0.86339
 Alpha  occ. eigenvalues --   -0.85987  -0.84659  -0.83495  -0.82744  -0.81821
 Alpha  occ. eigenvalues --   -0.80696  -0.79837  -0.79062  -0.78233  -0.77106
 Alpha  occ. eigenvalues --   -0.71935  -0.71536  -0.70682  -0.70256  -0.69849
 Alpha  occ. eigenvalues --   -0.69511  -0.69334  -0.69191  -0.68862  -0.68542
 Alpha  occ. eigenvalues --   -0.68493  -0.68192  -0.67925  -0.67277  -0.67157
 Alpha  occ. eigenvalues --   -0.65848  -0.65172  -0.64809  -0.64329  -0.63570
 Alpha  occ. eigenvalues --   -0.63089  -0.62825  -0.62217  -0.61657  -0.61363
 Alpha  occ. eigenvalues --   -0.60653  -0.60151  -0.59860  -0.59689  -0.59650
 Alpha  occ. eigenvalues --   -0.59080  -0.58697  -0.58515  -0.58442  -0.57686
 Alpha  occ. eigenvalues --   -0.57586  -0.57312  -0.56905  -0.56504  -0.56325
 Alpha  occ. eigenvalues --   -0.56067  -0.55610  -0.55472  -0.55366  -0.55202
 Alpha  occ. eigenvalues --   -0.54764  -0.54553  -0.54496  -0.53981  -0.53762
 Alpha  occ. eigenvalues --   -0.53649  -0.53184  -0.52960  -0.52450  -0.52281
 Alpha  occ. eigenvalues --   -0.52072  -0.51993  -0.51849  -0.51623  -0.51297
 Alpha  occ. eigenvalues --   -0.51021  -0.50926  -0.50638  -0.50441  -0.50253
 Alpha  occ. eigenvalues --   -0.50233  -0.49766  -0.49599  -0.49013  -0.48954
 Alpha  occ. eigenvalues --   -0.48741  -0.48394  -0.48321  -0.48003  -0.47813
 Alpha  occ. eigenvalues --   -0.47624  -0.47486  -0.47349  -0.47131  -0.46774
 Alpha  occ. eigenvalues --   -0.46452  -0.46404  -0.46301  -0.45770  -0.45632
 Alpha  occ. eigenvalues --   -0.44816  -0.43461  -0.39313  -0.39225  -0.39166
 Alpha  occ. eigenvalues --   -0.38853  -0.38554  -0.38268  -0.38233  -0.38100
 Alpha  occ. eigenvalues --   -0.37913  -0.37794  -0.37678  -0.37455  -0.37156
 Alpha  occ. eigenvalues --   -0.37020  -0.36666  -0.36037  -0.35924  -0.35567
 Alpha  occ. eigenvalues --   -0.35523  -0.35051  -0.35022  -0.34558  -0.34308
 Alpha  occ. eigenvalues --   -0.34150  -0.33818  -0.33352  -0.32916  -0.31395
 Alpha virt. eigenvalues --   -0.10995  -0.10755  -0.09640  -0.09490  -0.09064
 Alpha virt. eigenvalues --   -0.08949  -0.08837  -0.07910  -0.07669  -0.07391
 Alpha virt. eigenvalues --   -0.06976  -0.06927  -0.06800  -0.04793  -0.03708

 Mulliken charges:
               1
     1  N   -0.799274
     2  H    0.431904
     3  H    0.444845
     4  H    0.398341
     5  C   -0.323576
     6  H    0.215741
     7  H    0.267309
     8  C    0.657983
     9  O   -0.534795
    10  N   -0.583339
    11  H    0.366751
    12  C   -0.238983
    13  H    0.203505
    14  H    0.203312
    15  C    0.600201
    16  O   -0.525032
    17  N   -0.569175
    18  H    0.367981
    19  C   -0.246964
    20  H    0.193269
    21  H    0.204339
    22  C    0.602272
    23  O   -0.510905
    24  N   -0.584025
    25  H    0.377992
    26  C   -0.240312
    27  H    0.195782
    28  H    0.194718
    29  C    0.687932
    30  O   -0.580227
    31  N   -0.607341
    32  H    0.362747
    33  C   -0.229896
    34  H    0.201955
    35  H    0.196157
    36  C    0.601985
    37  O   -0.525657
    38  N   -0.590252
    39  H    0.369846
    40  C   -0.251846
    41  H    0.201463
    42  H    0.199772
    43  C    0.644050
    44  O   -0.573238
    45  N   -0.561379
    46  H    0.362764
    47  C   -0.266275
    48  H    0.217391
    49  H    0.199304
    50  C    0.618275
    51  O   -0.540695
    52  N   -0.598122
    53  H    0.402152
    54  C   -0.247548
    55  H    0.215384
    56  H    0.195049
    57  C    0.604552
    58  O   -0.541912
    59  N   -0.612775
    60  H    0.400185
    61  C   -0.227239
    62  H    0.207421
    63  H    0.192894
    64  C    0.630042
    65  O   -0.542665
    66  N   -0.600431
    67  H    0.384116
    68  C   -0.269556
    69  H    0.221892
    70  H    0.199395
    71  C    0.622489
    72  O   -0.601240
    73  N   -0.613104
    74  H    0.427693
    75  C   -0.217695
    76  H    0.194941
    77  H    0.206995
    78  C    0.572888
    79  O   -0.508831
    80  N   -0.604381
    81  H    0.386361
    82  C   -0.246536
    83  H    0.209214
    84  H    0.180271
    85  C    0.609707
    86  O   -0.535290
    87  N   -0.564146
    88  H    0.377431
    89  C   -0.257722
    90  H    0.211400
    91  H    0.202756
    92  C    0.631952
    93  O   -0.543715
    94  N   -0.570190
    95  H    0.352661
    96  C   -0.218471
    97  H    0.197741
    98  H    0.201720
    99  C    0.597355
   100  O   -0.476654
   101  O   -0.611686
   102  H    0.466555
 Sum of Mulliken charges =   1.00000

 Dipole moment (field-independent basis, Debye):
    X=             16.4566    Y=             -8.8695    Z=             18.0933  Tot=             26.0164
 Quadrupole moment (field-independent basis, Debye-Ang):
   XX=           -201.5998   YY=           -238.8632   ZZ=           -237.6173
   XY=            -13.3168   XZ=             73.6020   YZ=             -6.2234

 Normal termination of Gaussian 16 at Thu Aug 11 11:22:23 2022.
