 Gaussian 16, Revision C.01,
 Gaussian 16:  ES64L-G16RevC.01  3-Jul-2019

 ----------------------------------------------------------------------
 # B3LYP/6-31G* empiricaldispersion=gd3bj guess=read geom=check nosymm
 integral(ultrafinegrid)
 ----------------------------------------------------------------------

 ------------------------------------------------------
 Candidate Structure: Conf:535 Charge calc in gas phase
 ------------------------------------------------------
 Structure from the checkpoint file:  "conf-535.chk"
 Charge =  1 Multiplicity = 1

                          Input orientation:
 ---------------------------------------------------------------------
 Center     Atomic      Atomic             Coordinates (Angstroms)
 Number     Number       Type             X           Y           Z
 ---------------------------------------------------------------------
      1          7           0       -3.518824   -3.782400    1.070089
      2          1           0       -3.126756   -3.785486    2.013825
      3          1           0       -4.000309   -2.854251    0.892872
      4          1           0       -2.767602   -3.867132    0.363594
      5          6           0       -4.475311   -4.916581    0.811789
      6          1           0       -4.000310   -5.822119    1.204891
      7          6           0       -4.474668   -5.022562   -0.729236
      8          6           0       -5.817130   -4.672019    1.489015
      9          1           0       -6.472218   -5.535745    1.345562
     10          1           0       -6.307004   -3.782888    1.084204
     11          1           0       -5.687569   -4.541067    2.568077
     12          8           0       -3.447269   -4.672348   -1.328958
     13          7           0       -5.589469   -5.473402   -1.299552
     14          1           0       -6.317877   -5.938293   -0.745431
     15          6           0       -5.698205   -5.714311   -2.743932
     16          1           0       -4.760302   -6.162304   -3.088490
     17          6           0       -5.926930   -4.342451   -3.440782
     18          6           0       -6.902503   -6.623998   -3.043259
     19          1           0       -6.786086   -7.022858   -4.054550
     20          1           0       -7.790675   -5.981086   -3.056781
     21          8           0       -7.059171   -3.933404   -3.678193
     22          6           0       -7.155720   -7.724629   -2.024302
     23          7           0       -7.334654   -8.970182   -2.513342
     24          1           0       -7.602501   -9.705699   -1.872333
     25          1           0       -7.351892   -9.166486   -3.502840
     26          8           0       -7.227879   -7.485265   -0.811606
     27          7           0       -4.799743   -3.649350   -3.699051
     28          1           0       -3.894332   -3.985791   -3.377935
     29          6           0       -4.829645   -2.260418   -4.120617
     30          1           0       -5.475915   -2.164124   -4.998946
     31          6           0       -3.384232   -1.872795   -4.444624
     32          6           0       -5.382772   -1.340812   -3.001484
     33          1           0       -5.512367   -0.324854   -3.385594
     34          1           0       -6.375662   -1.717626   -2.743771
     35          8           0       -2.443748   -2.515573   -3.981354
     36          6           0       -4.445692   -1.314899   -1.776917
     37          1           0       -3.660335   -0.565044   -1.953150
     38          1           0       -3.951320   -2.277827   -1.638187
     39          6           0       -5.118085   -0.952447   -0.492310
     40          8           0       -4.928078   -1.501457    0.597837
     41          8           0       -5.961859    0.071184   -0.595764
     42          7           0       -3.215387   -0.753685   -5.189621
     43          1           0       -4.026110   -0.177771   -5.377137
     44          6           0       -1.918346   -0.078746   -5.180840
     45          1           0       -1.180440   -0.770503   -5.594272
     46          6           0       -1.562499    0.263441   -3.723776
     47          6           0       -2.005004    1.197047   -6.027632
     48          1           0       -2.794166    1.828346   -5.597085
     49          1           0       -2.323752    0.915594   -7.040273
     50          8           0       -2.404293    0.771969   -2.974507
     51          6           0       -0.704765    2.015455   -6.111161
     52          1           0       -0.416130    2.300552   -5.090111
     53          6           0        0.451610    1.219868   -6.730815
     54          1           0        0.179021    0.843740   -7.724989
     55          1           0        0.751201    0.364179   -6.116713
     56          1           0        1.335914    1.855174   -6.846300
     57          6           0       -0.962240    3.303020   -6.903921
     58          1           0       -1.245551    3.075119   -7.939173
     59          1           0       -1.769657    3.893693   -6.456453
     60          1           0       -0.064032    3.928670   -6.935147
     61          7           0       -0.301270   -0.000804   -3.350221
     62          1           0        0.355030   -0.483470   -3.955976
     63          6           0        0.184072    0.231185   -2.003739
     64          1           0       -0.117420    1.236867   -1.697819
     65          6           0        1.712804    0.126297   -2.085175
     66          6           0       -0.414132   -0.809889   -1.026482
     67          1           0       -1.490995   -0.823837   -1.222404
     68          1           0       -0.027077   -1.797356   -1.307762
     69          8           0        2.257291   -0.450549   -3.028048
     70          6           0       -0.195769   -0.564023    0.476752
     71          1           0        0.869788   -0.661981    0.715697
     72          6           0       -0.665602    0.827440    0.923393
     73          1           0       -1.707860    0.999823    0.625769
     74          1           0       -0.067122    1.635595    0.490366
     75          1           0       -0.595255    0.930069    2.011079
     76          6           0       -0.951038   -1.640856    1.269013
     77          1           0       -2.033010   -1.509967    1.125262
     78          1           0       -0.663756   -2.647939    0.936932
     79          1           0       -0.742790   -1.563382    2.341812
     80          7           0        2.380825    0.678546   -1.054952
     81          1           0        1.890466    1.056877   -0.252725
     82          6           0        3.812569    0.528236   -0.862522
     83          1           0        4.115725   -0.402898   -1.348613
     84          6           0        4.015228    0.427653    0.651672
     85          6           0        4.584379    1.714064   -1.517102
     86          1           0        4.211326    1.719399   -2.550217
     87          8           0        3.140526    0.795716    1.437110
     88          6           0        6.110582    1.520850   -1.577748
     89          1           0        6.512775    2.365063   -2.151398
     90          1           0        6.535539    1.630572   -0.572540
     91          6           0        4.235383    3.050835   -0.852605
     92          1           0        4.643307    3.104992    0.161419
     93          1           0        3.152617    3.205872   -0.803540
     94          1           0        4.663456    3.878137   -1.428555
     95          6           0        6.575147    0.219167   -2.242509
     96          1           0        7.659986    0.223920   -2.390822
     97          1           0        6.102208    0.085705   -3.222317
     98          1           0        6.336215   -0.676090   -1.652619
     99          7           0        5.196616   -0.099130    1.074216
    100          1           0        5.943336   -0.139083    0.393315
    101          6           0        5.590827    0.098069    2.462045
    102          1           0        4.788768   -0.277358    3.098165
    103          6           0        5.805235    1.605433    2.716757
    104          6           0        6.875616   -0.680006    2.752752
    105          1           0        7.718091   -0.225105    2.216380
    106          1           0        6.767410   -1.707467    2.381635
    107          8           0        6.318334    2.317063    1.852426
    108          6           0        7.170410   -0.743587    4.252801
    109          7           0        8.438065   -1.110939    4.572419
    110          1           0        9.157606   -1.238595    3.876989
    111          1           0        8.694025   -1.163737    5.549133
    112          8           0        6.316373   -0.514537    5.103739
    113          7           0        5.400470    2.038392    3.924892
    114          1           0        5.121326    1.350567    4.617138
    115          6           0        5.611023    3.405770    4.391645
    116          1           0        6.280118    3.882236    3.669011
    117          6           0        6.280115    3.238881    5.758258
    118          6           0        4.296255    4.200461    4.483124
    119          1           0        3.669975    3.685353    5.222656
    120          8           0        5.658325    2.773542    6.711014
    121          6           0        4.579017    5.619573    4.989980
    122          1           0        5.243864    6.156808    4.301505
    123          1           0        3.649472    6.192977    5.067865
    124          1           0        5.048087    5.609449    5.979602
    125          6           0        3.572763    4.216726    3.132434
    126          1           0        4.182689    4.714346    2.368507
    127          1           0        2.627408    4.764708    3.215723
    128          1           0        3.351075    3.205157    2.779377
    129          7           0        7.599736    3.539288    5.814028
    130          1           0        8.104037    3.897692    5.012080
    131          6           0        8.405143    3.149941    6.954735
    132          1           0        7.856001    3.408534    7.867798
    133          6           0        9.715336    3.927256    6.870858
    134          6           0        8.661432    1.622169    6.940974
    135          1           0        9.237298    1.387565    6.036195
    136          1           0        7.679057    1.151540    6.831219
    137          8           0       10.422704    4.035176    8.016345
    138          6           0        9.357629    1.067353    8.184521
    139          1           0        8.825922    1.384184    9.090746
    140          1           0       10.383975    1.450051    8.259955
    141          6           0        9.406978   -0.463918    8.185249
    142          1           0        8.391182   -0.858503    8.029195
    143          1           0       10.020839   -0.818178    7.343107
    144          6           0        9.981945   -1.049953    9.478979
    145          1           0       10.077074   -2.144276    9.364468
    146          1           0       10.996886   -0.660523    9.627858
    147          7           0        9.175743   -0.637174   10.631885
    148          1           0        9.623849   -0.935767   11.495732
    149          1           0        8.271092   -1.106221   10.603551
    150          1           0        9.939066    3.621669    8.751509
    151          8           0       10.137430    4.387973    5.836993
    152          1           0       -6.328772    0.254740    0.290974
 ---------------------------------------------------------------------

 SCF Done:  E(RB3LYP) =  -3474.10532523     A.U. after    3 cycles

 Alpha  occ. eigenvalues --  -19.30817 -19.26415 -19.24834 -19.24568 -19.22047
 Alpha  occ. eigenvalues --  -19.20446 -19.20347 -19.19021 -19.18813 -19.18537
 Alpha  occ. eigenvalues --  -19.18397 -19.18307 -19.16812 -19.15949 -14.55854
 Alpha  occ. eigenvalues --  -14.47576 -14.46011 -14.44280 -14.44232 -14.42832
 Alpha  occ. eigenvalues --  -14.42706 -14.42695 -14.42281 -14.40972 -14.40907
 Alpha  occ. eigenvalues --  -14.35940 -10.43913 -10.41537 -10.39731 -10.38451
 Alpha  occ. eigenvalues --  -10.37630 -10.37131 -10.37088 -10.36363 -10.35595
 Alpha  occ. eigenvalues --  -10.35430 -10.35373 -10.34370 -10.33842 -10.33146
 Alpha  occ. eigenvalues --  -10.32202 -10.31052 -10.30473 -10.30127 -10.29795
 Alpha  occ. eigenvalues --  -10.29740 -10.29239 -10.29112 -10.28527 -10.28342
 Alpha  occ. eigenvalues --  -10.27463 -10.27319 -10.26614 -10.26593 -10.25749
 Alpha  occ. eigenvalues --  -10.25713 -10.25679 -10.25244 -10.24732 -10.24529
 Alpha  occ. eigenvalues --  -10.23866 -10.23810 -10.23275 -10.23160 -10.23140
 Alpha  occ. eigenvalues --  -10.23116 -10.23104 -10.22877 -10.21589 -10.21296
 Alpha  occ. eigenvalues --  -10.20785  -1.22327  -1.16879  -1.15356  -1.13751
 Alpha  occ. eigenvalues --   -1.13022  -1.12872  -1.12117  -1.11222  -1.10611
 Alpha  occ. eigenvalues --   -1.10526  -1.10313  -1.09721  -1.08757  -1.08026
 Alpha  occ. eigenvalues --   -1.07168  -1.04569  -1.01223  -1.00776  -1.00756
 Alpha  occ. eigenvalues --   -0.99621  -0.99436  -0.99078  -0.97768  -0.97559
 Alpha  occ. eigenvalues --   -0.97392  -0.92782  -0.91378  -0.89723  -0.88984
 Alpha  occ. eigenvalues --   -0.87843  -0.87738  -0.87083  -0.85723  -0.85152
 Alpha  occ. eigenvalues --   -0.84009  -0.83959  -0.82776  -0.80592  -0.80554
 Alpha  occ. eigenvalues --   -0.79617  -0.79041  -0.77361  -0.77050  -0.76334
 Alpha  occ. eigenvalues --   -0.76247  -0.74495  -0.74283  -0.74119  -0.73557
 Alpha  occ. eigenvalues --   -0.72518  -0.72028  -0.71712  -0.71611  -0.70881
 Alpha  occ. eigenvalues --   -0.70183  -0.69113  -0.68773  -0.68496  -0.67718
 Alpha  occ. eigenvalues --   -0.67434  -0.67075  -0.66561  -0.66099  -0.65697
 Alpha  occ. eigenvalues --   -0.65491  -0.65224  -0.64412  -0.63844  -0.63632
 Alpha  occ. eigenvalues --   -0.63466  -0.63402  -0.63341  -0.62977  -0.62369
 Alpha  occ. eigenvalues --   -0.61988  -0.61782  -0.61246  -0.60957  -0.60673
 Alpha  occ. eigenvalues --   -0.60032  -0.59607  -0.59532  -0.59000  -0.58450
 Alpha  occ. eigenvalues --   -0.58097  -0.57207  -0.56946  -0.56534  -0.56160
 Alpha  occ. eigenvalues --   -0.55860  -0.55185  -0.54672  -0.54618  -0.54514
 Alpha  occ. eigenvalues --   -0.54096  -0.53942  -0.53671  -0.53289  -0.53211
 Alpha  occ. eigenvalues --   -0.52958  -0.52898  -0.52812  -0.52490  -0.52432
 Alpha  occ. eigenvalues --   -0.52045  -0.51833  -0.51733  -0.51528  -0.51363
 Alpha  occ. eigenvalues --   -0.51187  -0.50910  -0.50643  -0.50437  -0.50233
 Alpha  occ. eigenvalues --   -0.49780  -0.49591  -0.49541  -0.49474  -0.49196
 Alpha  occ. eigenvalues --   -0.49001  -0.48848  -0.48624  -0.48551  -0.48453
 Alpha  occ. eigenvalues --   -0.48314  -0.48147  -0.48012  -0.47867  -0.47582
 Alpha  occ. eigenvalues --   -0.47520  -0.47145  -0.47060  -0.46988  -0.46654
 Alpha  occ. eigenvalues --   -0.46441  -0.46346  -0.45987  -0.45560  -0.45354
 Alpha  occ. eigenvalues --   -0.45321  -0.45267  -0.44923  -0.44738  -0.44426
 Alpha  occ. eigenvalues --   -0.44264  -0.44219  -0.44065  -0.43962  -0.43665
 Alpha  occ. eigenvalues --   -0.43615  -0.43359  -0.43279  -0.43100  -0.42906
 Alpha  occ. eigenvalues --   -0.42842  -0.42536  -0.42201  -0.42154  -0.41852
 Alpha  occ. eigenvalues --   -0.41730  -0.41291  -0.40895  -0.40635  -0.40442
 Alpha  occ. eigenvalues --   -0.40224  -0.39996  -0.39833  -0.39281  -0.39174
 Alpha  occ. eigenvalues --   -0.39029  -0.38864  -0.38753  -0.38614  -0.38559
 Alpha  occ. eigenvalues --   -0.38481  -0.38400  -0.38245  -0.37928  -0.37438
 Alpha  occ. eigenvalues --   -0.37329  -0.36985  -0.36864  -0.36327  -0.36054
 Alpha  occ. eigenvalues --   -0.35306  -0.34382  -0.33904  -0.33833  -0.33752
 Alpha  occ. eigenvalues --   -0.33488  -0.33064  -0.32856  -0.32634  -0.32378
 Alpha  occ. eigenvalues --   -0.31897  -0.31733  -0.31259  -0.31194  -0.30392
 Alpha  occ. eigenvalues --   -0.30159  -0.28761  -0.28122
 Alpha virt. eigenvalues --   -0.11175  -0.10671  -0.08018  -0.06970  -0.06715
 Alpha virt. eigenvalues --   -0.06122  -0.05678  -0.05012  -0.04477  -0.04238
 Alpha virt. eigenvalues --   -0.03643  -0.03575  -0.02370  -0.02045  -0.01835

 Mulliken charges:
               1
     1  N   -0.787823
     2  H    0.400385
     3  H    0.463589
     4  H    0.418725
     5  C   -0.112472
     6  H    0.222742
     7  C    0.650206
     8  C   -0.487145
     9  H    0.216520
    10  H    0.196964
    11  H    0.180613
    12  O   -0.546193
    13  N   -0.626352
    14  H    0.403968
    15  C   -0.059547
    16  H    0.189787
    17  C    0.630680
    18  C   -0.412074
    19  H    0.172931
    20  H    0.237957
    21  O   -0.518973
    22  C    0.627122
    23  N   -0.736292
    24  H    0.363458
    25  H    0.359389
    26  O   -0.545932
    27  N   -0.619946
    28  H    0.388439
    29  C   -0.067557
    30  H    0.188138
    31  C    0.639967
    32  C   -0.282100
    33  H    0.172157
    34  H    0.192765
    35  O   -0.541026
    36  C   -0.425146
    37  H    0.274897
    38  H    0.177168
    39  C    0.608776
    40  O   -0.539542
    41  O   -0.516384
    42  N   -0.607363
    43  H    0.339404
    44  C   -0.029499
    45  H    0.173510
    46  C    0.646290
    47  C   -0.296480
    48  H    0.150758
    49  H    0.152273
    50  O   -0.576382
    51  C   -0.084976
    52  H    0.141986
    53  C   -0.452114
    54  H    0.147131
    55  H    0.141873
    56  H    0.158464
    57  C   -0.445037
    58  H    0.146409
    59  H    0.147407
    60  H    0.154060
    61  N   -0.607863
    62  H    0.368156
    63  C   -0.054313
    64  H    0.179037
    65  C    0.616980
    66  C   -0.263800
    67  H    0.154628
    68  H    0.149664
    69  O   -0.545411
    70  C   -0.091259
    71  H    0.159587
    72  C   -0.454248
    73  H    0.145500
    74  H    0.153371
    75  H    0.160090
    76  C   -0.478393
    77  H    0.118697
    78  H    0.130319
    79  H    0.162253
    80  N   -0.624006
    81  H    0.371119
    82  C   -0.083558
    83  H    0.185500
    84  C    0.641393
    85  C   -0.065740
    86  H    0.150441
    87  O   -0.547667
    88  C   -0.297116
    89  H    0.150001
    90  H    0.169645
    91  C   -0.484982
    92  H    0.195863
    93  H    0.136046
    94  H    0.150509
    95  C   -0.468658
    96  H    0.157264
    97  H    0.165175
    98  H    0.127571
    99  N   -0.616664
   100  H    0.351105
   101  C   -0.032039
   102  H    0.192706
   103  C    0.619722
   104  C   -0.412524
   105  H    0.175921
   106  H    0.191968
   107  O   -0.542266
   108  C    0.625461
   109  N   -0.761753
   110  H    0.346642
   111  H    0.366279
   112  O   -0.517208
   113  N   -0.600613
   114  H    0.373164
   115  C   -0.036407
   116  H    0.166937
   117  C    0.623125
   118  C   -0.067698
   119  H    0.147051
   120  O   -0.541732
   121  C   -0.462054
   122  H    0.143305
   123  H    0.151425
   124  H    0.159481
   125  C   -0.470499
   126  H    0.148847
   127  H    0.138459
   128  H    0.172476
   129  N   -0.618340
   130  H    0.354824
   131  C   -0.072233
   132  H    0.178535
   133  C    0.610446
   134  C   -0.281126
   135  H    0.135025
   136  H    0.199367
   137  O   -0.559555
   138  C   -0.289649
   139  H    0.168641
   140  H    0.141880
   141  C   -0.277850
   142  H    0.144020
   143  H    0.120791
   144  C   -0.138372
   145  H    0.120822
   146  H    0.145978
   147  N   -0.715931
   148  H    0.306467
   149  H    0.298522
   150  H    0.424317
   151  O   -0.451708
   152  H    0.430171
 Sum of Mulliken charges =   1.00000

 Dipole moment (field-independent basis, Debye):
    X=            -10.2742    Y=            -20.8933    Z=              1.1319  Tot=             23.3103
 Quadrupole moment (field-independent basis, Debye-Ang):
   XX=           -243.0125   YY=           -295.2041   ZZ=           -326.1893
   XY=             57.3268   XZ=             75.2642   YZ=            -11.1756

 Normal termination of Gaussian 16 at Mon Jul 18 04:51:43 2022.
