 Gaussian 16, Revision C.01,
 Gaussian 16:  ES64L-G16RevC.01  3-Jul-2019

 ----------------------------------------------------------------------
 # B3LYP/6-31G* empiricaldispersion=gd3bj guess=read geom=check nosymm
 integral(ultrafinegrid)
 ----------------------------------------------------------------------

 ------------------------------------------------------
 Candidate Structure: Conf:684 Charge calc in gas phase
 ------------------------------------------------------
 Structure from the checkpoint file:  "conf-684.chk"
 Charge =  1 Multiplicity = 1

                          Input orientation:
 ---------------------------------------------------------------------
 Center     Atomic      Atomic             Coordinates (Angstroms)
 Number     Number       Type             X           Y           Z
 ---------------------------------------------------------------------
      1          7           0       -8.261263   -1.663561  -10.925728
      2          1           0       -7.812164   -0.719036  -11.040413
      3          1           0       -9.201859   -1.691761  -11.327365
      4          1           0       -7.641062   -2.338394  -11.396701
      5          6           0       -8.225507   -1.999351   -9.449967
      6          1           0       -8.745682   -1.189302   -8.935075
      7          6           0       -6.710019   -1.966119   -9.175248
      8          6           0       -8.858565   -3.358300   -9.187900
      9          1           0       -8.833490   -3.567264   -8.114625
     10          1           0       -8.302304   -4.149375   -9.700402
     11          1           0       -9.905713   -3.383614   -9.507051
     12          8           0       -5.966728   -2.499906   -9.995538
     13          7           0       -6.315372   -1.285023   -8.081311
     14          1           0       -7.019442   -0.776655   -7.535887
     15          6           0       -4.991702   -0.663083   -8.063573
     16          1           0       -4.309232   -1.329575   -8.598983
     17          6           0       -4.504543   -0.471160   -6.616720
     18          6           0       -5.037575    0.727084   -8.748511
     19          1           0       -4.042217    1.170476   -8.684181
     20          1           0       -5.720470    1.364594   -8.179187
     21          8           0       -3.793659    0.482573   -6.311026
     22          6           0       -5.555040    0.672053  -10.174700
     23          7           0       -4.649834    0.839853  -11.153243
     24          1           0       -4.952561    0.839403  -12.118596
     25          1           0       -3.679202    1.039886  -10.959063
     26          8           0       -6.761212    0.482865  -10.416645
     27          7           0       -4.957381   -1.381517   -5.727150
     28          1           0       -5.474180   -2.177883   -6.072819
     29          6           0       -4.899289   -1.142202   -4.284375
     30          1           0       -4.811533   -0.055848   -4.176101
     31          6           0       -3.638740   -1.760631   -3.645909
     32          6           0       -6.176230   -1.627762   -3.591726
     33          1           0       -6.106801   -2.703323   -3.405729
     34          1           0       -6.219831   -1.151875   -2.609370
     35          8           0       -3.706580   -2.615574   -2.771385
     36          6           0       -7.472321   -1.334858   -4.381171
     37          1           0       -8.326854   -1.460187   -3.706331
     38          1           0       -7.608327   -2.037773   -5.207049
     39          6           0       -7.545171    0.053389   -4.970959
     40          8           0       -7.685920    0.316814   -6.159342
     41          8           0       -7.433927    1.008222   -4.041981
     42          7           0       -2.477002   -1.271508   -4.149387
     43          1           0       -2.536623   -0.423419   -4.705149
     44          6           0       -1.230201   -1.523831   -3.440958
     45          1           0       -1.098017   -2.606674   -3.369196
     46          6           0       -1.317748   -0.907481   -2.033835
     47          6           0       -0.067469   -0.877777   -4.212056
     48          1           0       -0.290278    0.194019   -4.300512
     49          1           0       -0.054334   -1.293508   -5.228841
     50          8           0       -1.803183    0.208906   -1.868262
     51          6           0        1.323161   -1.043572   -3.572260
     52          1           0        1.279001   -0.648585   -2.549293
     53          6           0        1.770299   -2.508358   -3.498299
     54          1           0        1.829173   -2.946478   -4.502941
     55          1           0        1.095891   -3.128090   -2.899920
     56          1           0        2.759226   -2.585979   -3.035684
     57          6           0        2.351281   -0.208825   -4.345491
     58          1           0        2.432843   -0.550239   -5.385337
     59          1           0        2.076752    0.852024   -4.358508
     60          1           0        3.343720   -0.295127   -3.889917
     61          7           0       -0.786705   -1.667614   -1.049672
     62          1           0       -0.310845   -2.529293   -1.288861
     63          6           0       -0.444375   -1.145012    0.264074
     64          1           0       -0.721153   -0.088952    0.262904
     65          6           0        1.075421   -1.313718    0.382923
     66          6           0       -1.177211   -1.898615    1.385504
     67          1           0       -0.794069   -2.926943    1.409010
     68          1           0       -0.903961   -1.438091    2.345672
     69          8           0        1.619192   -2.348608   -0.010428
     70          6           0       -2.707536   -1.919249    1.233794
     71          1           0       -2.937627   -2.387213    0.267236
     72          6           0       -3.325444   -2.777394    2.344281
     73          1           0       -3.130411   -2.341213    3.332599
     74          1           0       -2.915662   -3.794234    2.341077
     75          1           0       -4.412134   -2.851829    2.223425
     76          6           0       -3.309784   -0.507856    1.227598
     77          1           0       -3.037687    0.038533    2.140991
     78          1           0       -2.975663    0.072132    0.362037
     79          1           0       -4.404327   -0.559958    1.190316
     80          7           0        1.752781   -0.268474    0.898258
     81          1           0        1.286811    0.575162    1.212958
     82          6           0        3.203098   -0.237880    0.954705
     83          1           0        3.551588   -1.199551    1.341305
     84          6           0        3.573682    0.888019    1.917601
     85          6           0        3.806410   -0.023462   -0.469914
     86          1           0        3.311155   -0.790069   -1.077392
     87          8           0        2.769854    1.771911    2.224190
     88          6           0        5.319554   -0.287399   -0.567148
     89          1           0        5.589599   -0.189093   -1.626587
     90          1           0        5.884915    0.497017   -0.048903
     91          6           0        3.445643    1.355762   -1.030236
     92          1           0        3.936276    2.158849   -0.467901
     93          1           0        2.366100    1.534054   -0.996633
     94          1           0        3.766930    1.437417   -2.073490
     95          6           0        5.764759   -1.668107   -0.073315
     96          1           0        6.812252   -1.851368   -0.330856
     97          1           0        5.155184   -2.461797   -0.520766
     98          1           0        5.684752   -1.774531    1.015414
     99          7           0        4.845532    0.873584    2.373937
    100          1           0        5.526322    0.181024    2.075759
    101          6           0        5.416966    1.994049    3.080793
    102          1           0        4.941421    2.908202    2.710665
    103          6           0        6.923651    2.000907    2.749602
    104          6           0        5.147232    1.862718    4.608332
    105          1           0        5.473991    0.878737    4.948447
    106          1           0        4.063085    1.943278    4.750726
    107          8           0        7.486321    0.962498    2.404313
    108          6           0        5.867966    2.896986    5.444742
    109          7           0        5.599702    4.210847    5.224756
    110          1           0        4.955624    4.443465    4.478004
    111          1           0        6.425325    4.820497    5.276469
    112          8           0        6.692038    2.547706    6.307864
    113          7           0        7.506241    3.203694    2.879620
    114          1           0        6.980616    3.983694    3.256037
    115          6           0        8.939721    3.459378    2.903370
    116          1           0        9.448449    2.513880    3.110380
    117          6           0        9.149550    4.443896    4.073654
    118          6           0        9.430497    4.006811    1.533434
    119          1           0        9.004379    3.309263    0.799206
    120          8           0        8.171457    5.100869    4.510855
    121          6           0        8.875639    5.407266    1.250131
    122          1           0        9.282335    6.142421    1.953182
    123          1           0        9.151830    5.725793    0.239629
    124          1           0        7.782218    5.435419    1.323274
    125          6           0       10.957001    3.967472    1.392595
    126          1           0       11.470447    4.670520    2.056784
    127          1           0       11.236047    4.220349    0.363686
    128          1           0       11.348075    2.964347    1.602045
    129          7           0       10.384061    4.536166    4.541115
    130          1           0       11.213055    4.191276    4.018517
    131          6           0       10.876004    5.586695    5.426352
    132          1           0       10.246158    6.474401    5.314092
    133          6           0       12.354067    5.896192    4.952079
    134          6           0       10.894985    5.142922    6.891407
    135          1           0       11.198341    6.009157    7.488250
    136          1           0       11.672992    4.378923    7.025738
    137          8           0       12.915510    6.806500    5.575397
    138          6           0        9.556165    4.569554    7.354701
    139          1           0        9.341887    3.666029    6.769117
    140          1           0        8.761273    5.285349    7.104151
    141          6           0        9.523039    4.229578    8.849035
    142          1           0       10.444067    3.710376    9.139365
    143          1           0        9.485275    5.146518    9.452623
    144          6           0        8.360924    3.315724    9.222356
    145          1           0        8.494863    2.307348    8.823535
    146          1           0        8.201756    3.254829   10.301729
    147          7           0        7.071529    3.818234    8.597838
    148          1           0        6.249926    3.454376    9.086718
    149          1           0        6.991791    3.479623    7.580443
    150          1           0        7.026788    4.840705    8.617944
    151          8           0       12.763097    5.131377    4.028995
    152          1           0       -7.473066    1.874641   -4.491560
 ---------------------------------------------------------------------

 SCF Done:  E(RB3LYP) =  -3474.04524075     A.U. after    1 cycles

 Alpha  occ. eigenvalues --  -19.30979 -19.26096 -19.26059 -19.25517 -19.22773
 Alpha  occ. eigenvalues --  -19.21857 -19.18852 -19.17932 -19.17014 -19.16506
 Alpha  occ. eigenvalues --  -19.16421 -19.14926 -19.05032 -19.03829 -14.59065
 Alpha  occ. eigenvalues --  -14.53114 -14.49246 -14.48995 -14.47030 -14.43207
 Alpha  occ. eigenvalues --  -14.42103 -14.41980 -14.41160 -14.40906 -14.40601
 Alpha  occ. eigenvalues --  -14.36331 -10.44011 -10.43219 -10.42966 -10.40274
 Alpha  occ. eigenvalues --  -10.40037 -10.38330 -10.36379 -10.35670 -10.34838
 Alpha  occ. eigenvalues --  -10.34219 -10.33591 -10.33530 -10.33236 -10.33041
 Alpha  occ. eigenvalues --  -10.32486 -10.31794 -10.31270 -10.30978 -10.30545
 Alpha  occ. eigenvalues --  -10.28960 -10.28926 -10.28446 -10.27855 -10.27128
 Alpha  occ. eigenvalues --  -10.26243 -10.25966 -10.24779 -10.24466 -10.24209
 Alpha  occ. eigenvalues --  -10.23043 -10.22896 -10.22762 -10.22730 -10.22672
 Alpha  occ. eigenvalues --  -10.22557 -10.22366 -10.22091 -10.21900 -10.21811
 Alpha  occ. eigenvalues --  -10.21187 -10.20722 -10.20601 -10.19724 -10.19693
 Alpha  occ. eigenvalues --  -10.18064  -1.22257  -1.18856  -1.16660  -1.14889
 Alpha  occ. eigenvalues --   -1.13409  -1.13024  -1.12900  -1.10746  -1.10173
 Alpha  occ. eigenvalues --   -1.08925  -1.08674  -1.07943  -1.07835  -1.06557
 Alpha  occ. eigenvalues --   -1.05871  -1.04008  -1.03363  -0.99173  -0.98949
 Alpha  occ. eigenvalues --   -0.98687  -0.98157  -0.97841  -0.97610  -0.97391
 Alpha  occ. eigenvalues --   -0.93299  -0.93112  -0.90721  -0.89751  -0.89346
 Alpha  occ. eigenvalues --   -0.87258  -0.86752  -0.86600  -0.85224  -0.84827
 Alpha  occ. eigenvalues --   -0.84445  -0.82801  -0.81920  -0.81017  -0.79978
 Alpha  occ. eigenvalues --   -0.79616  -0.79234  -0.77911  -0.76951  -0.75639
 Alpha  occ. eigenvalues --   -0.74918  -0.74135  -0.73925  -0.73439  -0.72924
 Alpha  occ. eigenvalues --   -0.72230  -0.72138  -0.71949  -0.71427  -0.71041
 Alpha  occ. eigenvalues --   -0.70571  -0.70157  -0.70090  -0.68721  -0.68315
 Alpha  occ. eigenvalues --   -0.67822  -0.67587  -0.67474  -0.66445  -0.66249
 Alpha  occ. eigenvalues --   -0.65774  -0.65433  -0.65068  -0.64700  -0.63795
 Alpha  occ. eigenvalues --   -0.63485  -0.62913  -0.62857  -0.62264  -0.61848
 Alpha  occ. eigenvalues --   -0.61743  -0.61361  -0.61222  -0.61100  -0.60206
 Alpha  occ. eigenvalues --   -0.60015  -0.59719  -0.59516  -0.59147  -0.58625
 Alpha  occ. eigenvalues --   -0.58219  -0.58088  -0.57888  -0.57220  -0.56728
 Alpha  occ. eigenvalues --   -0.56432  -0.55959  -0.55508  -0.55247  -0.54965
 Alpha  occ. eigenvalues --   -0.54525  -0.54379  -0.53931  -0.53864  -0.53618
 Alpha  occ. eigenvalues --   -0.53251  -0.53162  -0.52652  -0.52639  -0.52380
 Alpha  occ. eigenvalues --   -0.51888  -0.51611  -0.51347  -0.51150  -0.51061
 Alpha  occ. eigenvalues --   -0.50963  -0.50637  -0.50476  -0.50303  -0.49935
 Alpha  occ. eigenvalues --   -0.49893  -0.49775  -0.49420  -0.49035  -0.48983
 Alpha  occ. eigenvalues --   -0.48456  -0.48313  -0.48253  -0.48170  -0.47712
 Alpha  occ. eigenvalues --   -0.47656  -0.47450  -0.47352  -0.47117  -0.46538
 Alpha  occ. eigenvalues --   -0.46485  -0.46480  -0.46367  -0.45993  -0.45714
 Alpha  occ. eigenvalues --   -0.45591  -0.45389  -0.45259  -0.44786  -0.44491
 Alpha  occ. eigenvalues --   -0.44435  -0.43950  -0.43765  -0.43546  -0.43429
 Alpha  occ. eigenvalues --   -0.43319  -0.43213  -0.43017  -0.42752  -0.42231
 Alpha  occ. eigenvalues --   -0.42102  -0.41860  -0.41676  -0.41468  -0.41328
 Alpha  occ. eigenvalues --   -0.41184  -0.40976  -0.40844  -0.40561  -0.40222
 Alpha  occ. eigenvalues --   -0.40128  -0.40119  -0.40066  -0.39433  -0.39425
 Alpha  occ. eigenvalues --   -0.39256  -0.38817  -0.38421  -0.38278  -0.37966
 Alpha  occ. eigenvalues --   -0.37883  -0.37744  -0.37643  -0.37590  -0.37016
 Alpha  occ. eigenvalues --   -0.36920  -0.36586  -0.36540  -0.36333  -0.36314
 Alpha  occ. eigenvalues --   -0.36245  -0.36210  -0.35516  -0.35486  -0.35382
 Alpha  occ. eigenvalues --   -0.34973  -0.34288  -0.33228  -0.32376  -0.32286
 Alpha  occ. eigenvalues --   -0.32184  -0.31824  -0.31465  -0.30779  -0.30413
 Alpha  occ. eigenvalues --   -0.30189  -0.29912  -0.29119  -0.28822  -0.27576
 Alpha  occ. eigenvalues --   -0.20134  -0.19957  -0.18078
 Alpha virt. eigenvalues --   -0.13179  -0.11629  -0.11117  -0.09187  -0.08772
 Alpha virt. eigenvalues --   -0.08015  -0.05868  -0.05342  -0.04317  -0.04238
 Alpha virt. eigenvalues --   -0.04218  -0.03515  -0.03383  -0.02849  -0.02209

 Mulliken charges:
               1
     1  N   -0.744578
     2  H    0.445638
     3  H    0.404258
     4  H    0.412189
     5  C   -0.112990
     6  H    0.218416
     7  C    0.640168
     8  C   -0.465637
     9  H    0.202470
    10  H    0.199565
    11  H    0.185000
    12  O   -0.525354
    13  N   -0.648372
    14  H    0.403308
    15  C   -0.096354
    16  H    0.223322
    17  C    0.633168
    18  C   -0.356096
    19  H    0.199226
    20  H    0.206117
    21  O   -0.526096
    22  C    0.630486
    23  N   -0.716697
    24  H    0.361817
    25  H    0.370585
    26  O   -0.583900
    27  N   -0.596802
    28  H    0.345052
    29  C   -0.099140
    30  H    0.204382
    31  C    0.649707
    32  C   -0.292626
    33  H    0.192408
    34  H    0.200580
    35  O   -0.519817
    36  C   -0.361815
    37  H    0.205318
    38  H    0.145730
    39  C    0.606792
    40  O   -0.510879
    41  O   -0.526883
    42  N   -0.619432
    43  H    0.361492
    44  C   -0.037336
    45  H    0.163507
    46  C    0.633221
    47  C   -0.286914
    48  H    0.152738
    49  H    0.139442
    50  O   -0.551349
    51  C   -0.097755
    52  H    0.151103
    53  C   -0.444924
    54  H    0.136496
    55  H    0.141973
    56  H    0.163290
    57  C   -0.447592
    58  H    0.139069
    59  H    0.146727
    60  H    0.152645
    61  N   -0.583922
    62  H    0.352777
    63  C   -0.081833
    64  H    0.177389
    65  C    0.637753
    66  C   -0.258967
    67  H    0.148852
    68  H    0.134753
    69  O   -0.557104
    70  C   -0.073428
    71  H    0.153318
    72  C   -0.442076
    73  H    0.138107
    74  H    0.141997
    75  H    0.140057
    76  C   -0.470654
    77  H    0.129841
    78  H    0.179715
    79  H    0.132950
    80  N   -0.623238
    81  H    0.355036
    82  C   -0.049983
    83  H    0.183299
    84  C    0.621779
    85  C   -0.094980
    86  H    0.171468
    87  O   -0.558142
    88  C   -0.279693
    89  H    0.142571
    90  H    0.148012
    91  C   -0.465226
    92  H    0.149555
    93  H    0.150824
    94  H    0.152522
    95  C   -0.460359
    96  H    0.163709
    97  H    0.160196
    98  H    0.139763
    99  N   -0.626924
   100  H    0.377793
   101  C   -0.058977
   102  H    0.168894
   103  C    0.615470
   104  C   -0.347570
   105  H    0.193859
   106  H    0.200318
   107  O   -0.538211
   108  C    0.579447
   109  N   -0.751222
   110  H    0.347706
   111  H    0.398994
   112  O   -0.552003
   113  N   -0.603173
   114  H    0.339464
   115  C   -0.069149
   116  H    0.181385
   117  C    0.629915
   118  C   -0.062873
   119  H    0.136902
   120  O   -0.631354
   121  C   -0.458080
   122  H    0.171708
   123  H    0.150531
   124  H    0.123877
   125  C   -0.485393
   126  H    0.212702
   127  H    0.142436
   128  H    0.142184
   129  N   -0.591635
   130  H    0.373122
   131  C   -0.088795
   132  H    0.146661
   133  C    0.587677
   134  C   -0.254385
   135  H    0.165209
   136  H    0.144970
   137  O   -0.578632
   138  C   -0.290830
   139  H    0.157095
   140  H    0.126502
   141  C   -0.289469
   142  H    0.185617
   143  H    0.158051
   144  C   -0.186771
   145  H    0.214555
   146  H    0.190770
   147  N   -0.769199
   148  H    0.393626
   149  H    0.456886
   150  H    0.396605
   151  O   -0.610839
   152  H    0.429852
 Sum of Mulliken charges =   1.00000

 Dipole moment (field-independent basis, Debye):
    X=            -46.1155    Y=             -8.2945    Z=            -32.0944  Tot=             56.7934
 Quadrupole moment (field-independent basis, Debye-Ang):
   XX=           -442.0142   YY=           -468.7752   ZZ=            202.3465
   XY=            -77.0688   XZ=            334.1596   YZ=             64.5989

 Normal termination of Gaussian 16 at Mon Jul 18 04:50:12 2022.
