 Gaussian 16, Revision C.01,
 Gaussian 16:  ES64L-G16RevC.01  3-Jul-2019

 ----------------------------------------------------------------------
 # B3LYP/6-31G* empiricaldispersion=gd3bj guess=read geom=check nosymm
 integral(ultrafinegrid)
 ----------------------------------------------------------------------

 ------------------------------------------------------
 Candidate Structure: Conf:549 Charge calc in gas phase
 ------------------------------------------------------
 Structure from the checkpoint file:  "conf-549.chk"
 Charge =  1 Multiplicity = 1

                          Input orientation:
 ---------------------------------------------------------------------
 Center     Atomic      Atomic             Coordinates (Angstroms)
 Number     Number       Type             X           Y           Z
 ---------------------------------------------------------------------
      1          7           0       -0.065395    5.731670   -5.656777
      2          1           0        0.661158    5.114507   -5.138762
      3          1           0        0.348486    6.665227   -5.502254
      4          1           0       -0.198284    5.482626   -6.641187
      5          6           0       -1.355522    5.593579   -4.917030
      6          1           0       -1.101456    5.722918   -3.863207
      7          6           0       -1.834233    4.168000   -5.222989
      8          6           0       -2.369937    6.635585   -5.374129
      9          1           0       -3.292929    6.532423   -4.796081
     10          1           0       -2.612501    6.494592   -6.431848
     11          1           0       -1.982134    7.647549   -5.220194
     12          8           0       -1.877927    3.790991   -6.396613
     13          7           0       -2.152701    3.435966   -4.146620
     14          1           0       -2.008336    3.788474   -3.200433
     15          6           0       -2.621274    2.060563   -4.149771
     16          1           0       -3.620870    2.006516   -4.596621
     17          6           0       -2.708869    1.687114   -2.648271
     18          6           0       -1.670121    1.119406   -4.934728
     19          1           0       -0.886232    0.733730   -4.271796
     20          1           0       -1.188416    1.698107   -5.723337
     21          8           0       -2.351619    2.510970   -1.795796
     22          6           0       -2.413342   -0.067926   -5.532865
     23          7           0       -2.013525   -0.447401   -6.770636
     24          1           0       -2.510063   -1.206877   -7.218060
     25          1           0       -1.400714    0.122598   -7.334010
     26          8           0       -3.303812   -0.665097   -4.926935
     27          7           0       -3.143033    0.453904   -2.366076
     28          1           0       -3.402368   -0.162051   -3.145358
     29          6           0       -2.999416   -0.113504   -1.021412
     30          1           0       -2.209768    0.448263   -0.522247
     31          6           0       -2.580002   -1.567937   -1.242986
     32          6           0       -4.277711   -0.024410   -0.182429
     33          1           0       -5.070404   -0.585181   -0.686234
     34          1           0       -4.084273   -0.517733    0.776681
     35          8           0       -3.348755   -2.378236   -1.749659
     36          6           0       -4.727620    1.414051    0.066168
     37          1           0       -5.673893    1.427205    0.621613
     38          1           0       -4.923582    1.943061   -0.871774
     39          6           0       -3.727237    2.226601    0.857685
     40          8           0       -2.731812    1.800349    1.409637
     41          8           0       -4.084536    3.527495    0.917523
     42          7           0       -1.287354   -1.831931   -0.926760
     43          1           0       -0.779123   -1.211324   -0.305911
     44          6           0       -0.683605   -3.135877   -1.110050
     45          1           0       -1.483025   -3.883075   -1.130426
     46          6           0        0.246006   -3.359271    0.089192
     47          6           0        0.151205   -3.204304   -2.414905
     48          1           0        0.544706   -4.223187   -2.535208
     49          1           0        1.020672   -2.551283   -2.280896
     50          8           0        0.540811   -2.422017    0.840981
     51          6           0       -0.587959   -2.792524   -3.698320
     52          1           0       -1.082343   -1.832717   -3.503950
     53          6           0        0.430354   -2.576491   -4.826247
     54          1           0        0.971085   -3.504153   -5.052174
     55          1           0        1.174402   -1.815773   -4.556217
     56          1           0       -0.069633   -2.249318   -5.744051
     57          6           0       -1.663713   -3.801670   -4.111333
     58          1           0       -1.215240   -4.777899   -4.338395
     59          1           0       -2.416266   -3.923685   -3.329158
     60          1           0       -2.187725   -3.451918   -5.007105
     61          7           0        0.758977   -4.599291    0.232342
     62          1           0        0.539941   -5.309197   -0.454061
     63          6           0        1.768759   -4.922305    1.249846
     64          1           0        1.475827   -4.380822    2.152328
     65          6           0        3.134710   -4.394544    0.758524
     66          6           0        1.792261   -6.426809    1.502244
     67          1           0        0.774368   -6.741546    1.769062
     68          1           0        2.063883   -6.929136    0.565507
     69          8           0        3.941690   -5.100645    0.159159
     70          6           0        2.772851   -6.875645    2.600478
     71          1           0        3.782983   -6.613639    2.263877
     72          6           0        2.509407   -6.179441    3.942274
     73          1           0        1.477604   -6.346537    4.277814
     74          1           0        2.676014   -5.097564    3.889191
     75          1           0        3.177035   -6.572629    4.716569
     76          6           0        2.704816   -8.399580    2.755460
     77          1           0        1.711308   -8.715671    3.098545
     78          1           0        2.910060   -8.906145    1.805582
     79          1           0        3.437765   -8.751553    3.489408
     80          7           0        3.332762   -3.077227    1.015696
     81          1           0        2.556857   -2.523048    1.369649
     82          6           0        4.457172   -2.359413    0.453159
     83          1           0        5.367132   -2.927067    0.666229
     84          6           0        4.503599   -0.997382    1.130869
     85          6           0        4.320375   -2.203109   -1.100407
     86          1           0        3.982355   -3.193184   -1.423586
     87          8           0        3.542089   -0.553954    1.773591
     88          6           0        5.641378   -1.927036   -1.840327
     89          1           0        5.414454   -1.980669   -2.913203
     90          1           0        5.973250   -0.894749   -1.665646
     91          6           0        3.251939   -1.169010   -1.471913
     92          1           0        3.601841   -0.149402   -1.269560
     93          1           0        2.326644   -1.323262   -0.910046
     94          1           0        3.019803   -1.229357   -2.540792
     95          6           0        6.776197   -2.905434   -1.519197
     96          1           0        7.591498   -2.801748   -2.241529
     97          1           0        6.418523   -3.940590   -1.545025
     98          1           0        7.213828   -2.727972   -0.530635
     99          7           0        5.610906   -0.258879    0.897015
    100          1           0        6.418557   -0.686125    0.451262
    101          6           0        5.784298    1.105257    1.391766
    102          1           0        5.409559    1.142144    2.422274
    103          6           0        4.961408    2.138035    0.566833
    104          6           0        7.283746    1.449689    1.375438
    105          1           0        7.781802    0.886332    2.167185
    106          1           0        7.410795    2.517150    1.567276
    107          8           0        5.524168    3.074299   -0.035736
    108          6           0        7.945062    1.032892    0.058325
    109          7           0        8.028998    1.995736   -0.902580
    110          1           0        7.295930    2.698739   -0.876022
    111          1           0        8.319120    1.665632   -1.816030
    112          8           0        8.345181   -0.118410   -0.093732
    113          7           0        3.638392    1.945849    0.600956
    114          1           0        3.324198    1.139773    1.149635
    115          6           0        2.628984    2.634963   -0.200726
    116          1           0        2.579983    2.151212   -1.186319
    117          6           0        2.960387    4.115412   -0.386222
    118          6           0        1.238765    2.494756    0.482168
    119          1           0        1.385315    2.791781    1.528563
    120          8           0        3.279918    4.822332    0.587585
    121          6           0        0.202265    3.436640   -0.143837
    122          1           0        0.102909    3.271240   -1.222179
    123          1           0       -0.776783    3.239273    0.297314
    124          1           0        0.455320    4.488568    0.023840
    125          6           0        0.731640    1.046105    0.433382
    126          1           0        0.576576    0.737407   -0.609274
    127          1           0       -0.230949    0.985472    0.950971
    128          1           0        1.404134    0.323150    0.902245
    129          7           0        2.801053    4.544164   -1.650974
    130          1           0        2.445320    3.894134   -2.349965
    131          6           0        2.714604    5.920931   -2.145176
    132          1           0        2.234004    6.537072   -1.377877
    133          6           0        1.820769    5.915914   -3.403417
    134          6           0        4.099949    6.545371   -2.469071
    135          1           0        3.950506    7.611216   -2.664593
    136          1           0        4.517730    6.091717   -3.376013
    137          8           0        1.465144    7.023697   -3.850783
    138          6           0        4.964883    6.258172   -1.252113
    139          1           0        5.052844    5.168988   -1.213885
    140          1           0        4.351091    6.545019   -0.395760
    141          6           0        6.363769    6.811580   -1.002734
    142          1           0        7.026983    6.710289   -1.869317
    143          1           0        6.345896    7.874390   -0.733951
    144          6           0        6.970244    5.967780    0.132064
    145          1           0        7.280956    4.988637   -0.233065
    146          1           0        7.813817    6.449495    0.631329
    147          7           0        5.942646    5.653264    1.216195
    148          1           0        6.350428    5.032038    1.919133
    149          1           0        5.078800    5.170643    0.851081
    150          1           0        5.624135    6.502926    1.692346
    151          8           0        1.547681    4.760777   -3.889311
    152          1           0       -3.405656    3.972363    1.458485
 ---------------------------------------------------------------------

 SCF Done:  E(RB3LYP) =  -3474.14017975     A.U. after    1 cycles

 Alpha  occ. eigenvalues --  -19.25256 -19.23229 -19.21463 -19.21000 -19.20868
 Alpha  occ. eigenvalues --  -19.20739 -19.20298 -19.20144 -19.19857 -19.19763
 Alpha  occ. eigenvalues --  -19.19247 -19.17759 -19.17694 -19.17360 -14.57304
 Alpha  occ. eigenvalues --  -14.50167 -14.45659 -14.45588 -14.44971 -14.44641
 Alpha  occ. eigenvalues --  -14.44316 -14.44058 -14.43853 -14.42912 -14.42206
 Alpha  occ. eigenvalues --  -14.41390 -10.39710 -10.38269 -10.38216 -10.38151
 Alpha  occ. eigenvalues --  -10.38064 -10.37980 -10.37854 -10.37075 -10.36920
 Alpha  occ. eigenvalues --  -10.36505 -10.36238 -10.34826 -10.34515 -10.34310
 Alpha  occ. eigenvalues --  -10.34029 -10.32695 -10.32283 -10.30935 -10.30666
 Alpha  occ. eigenvalues --  -10.30355 -10.30113 -10.29818 -10.29470 -10.29289
 Alpha  occ. eigenvalues --  -10.28439 -10.27831 -10.27573 -10.27472 -10.27444
 Alpha  occ. eigenvalues --  -10.26206 -10.25897 -10.25346 -10.24983 -10.24782
 Alpha  occ. eigenvalues --  -10.24665 -10.24594 -10.24112 -10.24069 -10.23931
 Alpha  occ. eigenvalues --  -10.23624 -10.23347 -10.22982 -10.22066 -10.21609
 Alpha  occ. eigenvalues --  -10.21584  -1.16295  -1.14701  -1.13345  -1.13205
 Alpha  occ. eigenvalues --   -1.12543  -1.12390  -1.12158  -1.11912  -1.11777
 Alpha  occ. eigenvalues --   -1.11700  -1.11531  -1.09691  -1.09150  -1.07176
 Alpha  occ. eigenvalues --   -1.05737  -1.03145  -1.02951  -1.02055  -1.01734
 Alpha  occ. eigenvalues --   -1.00959  -1.00245  -0.99909  -0.99208  -0.99054
 Alpha  occ. eigenvalues --   -0.98951  -0.98561  -0.91637  -0.89681  -0.88560
 Alpha  occ. eigenvalues --   -0.88404  -0.87535  -0.86995  -0.86501  -0.86425
 Alpha  occ. eigenvalues --   -0.86246  -0.85073  -0.82772  -0.81548  -0.81102
 Alpha  occ. eigenvalues --   -0.80116  -0.79686  -0.78955  -0.78171  -0.77804
 Alpha  occ. eigenvalues --   -0.76320  -0.75120  -0.74453  -0.73848  -0.73471
 Alpha  occ. eigenvalues --   -0.72926  -0.72619  -0.71520  -0.71146  -0.70443
 Alpha  occ. eigenvalues --   -0.70299  -0.70050  -0.68873  -0.68440  -0.68240
 Alpha  occ. eigenvalues --   -0.67567  -0.67274  -0.67149  -0.66891  -0.66731
 Alpha  occ. eigenvalues --   -0.66548  -0.65751  -0.65007  -0.64905  -0.64698
 Alpha  occ. eigenvalues --   -0.64280  -0.63674  -0.63502  -0.62795  -0.62681
 Alpha  occ. eigenvalues --   -0.62308  -0.61894  -0.61756  -0.61384  -0.61081
 Alpha  occ. eigenvalues --   -0.60677  -0.60246  -0.59651  -0.58829  -0.58611
 Alpha  occ. eigenvalues --   -0.57768  -0.57650  -0.57584  -0.56786  -0.56530
 Alpha  occ. eigenvalues --   -0.56377  -0.56276  -0.55940  -0.55524  -0.55147
 Alpha  occ. eigenvalues --   -0.54786  -0.54652  -0.54543  -0.54192  -0.54081
 Alpha  occ. eigenvalues --   -0.54053  -0.53665  -0.53449  -0.53238  -0.52899
 Alpha  occ. eigenvalues --   -0.52578  -0.52271  -0.51989  -0.51856  -0.51648
 Alpha  occ. eigenvalues --   -0.51529  -0.51449  -0.51174  -0.51110  -0.50704
 Alpha  occ. eigenvalues --   -0.50557  -0.50172  -0.50122  -0.49949  -0.49765
 Alpha  occ. eigenvalues --   -0.49460  -0.49278  -0.49244  -0.49085  -0.48788
 Alpha  occ. eigenvalues --   -0.48388  -0.48242  -0.48187  -0.48006  -0.47898
 Alpha  occ. eigenvalues --   -0.47765  -0.47550  -0.47436  -0.47087  -0.47032
 Alpha  occ. eigenvalues --   -0.46723  -0.46557  -0.46483  -0.46314  -0.46197
 Alpha  occ. eigenvalues --   -0.46039  -0.45805  -0.45702  -0.45507  -0.45446
 Alpha  occ. eigenvalues --   -0.45382  -0.45138  -0.45053  -0.44731  -0.44612
 Alpha  occ. eigenvalues --   -0.44534  -0.44069  -0.43900  -0.43660  -0.43501
 Alpha  occ. eigenvalues --   -0.43219  -0.43152  -0.43001  -0.42591  -0.42390
 Alpha  occ. eigenvalues --   -0.42274  -0.42142  -0.41924  -0.41695  -0.41311
 Alpha  occ. eigenvalues --   -0.41205  -0.41126  -0.40945  -0.40387  -0.39898
 Alpha  occ. eigenvalues --   -0.39690  -0.38918  -0.38663  -0.38313  -0.38270
 Alpha  occ. eigenvalues --   -0.37943  -0.37892  -0.37525  -0.37419  -0.37141
 Alpha  occ. eigenvalues --   -0.36744  -0.35998  -0.35670  -0.35539  -0.35276
 Alpha  occ. eigenvalues --   -0.35139  -0.34919  -0.34742  -0.34682  -0.34574
 Alpha  occ. eigenvalues --   -0.34448  -0.34116  -0.33984  -0.33959  -0.33689
 Alpha  occ. eigenvalues --   -0.33639  -0.33490  -0.32781  -0.31922  -0.31848
 Alpha  occ. eigenvalues --   -0.31172  -0.30819  -0.29988
 Alpha virt. eigenvalues --   -0.10074  -0.09225  -0.07863  -0.07744  -0.07338
 Alpha virt. eigenvalues --   -0.06831  -0.06271  -0.06119  -0.05679  -0.04768
 Alpha virt. eigenvalues --   -0.04223  -0.03739  -0.03407  -0.03081  -0.01801

 Mulliken charges:
               1
     1  N   -0.746472
     2  H    0.428459
     3  H    0.401489
     4  H    0.382552
     5  C   -0.100274
     6  H    0.196632
     7  C    0.644301
     8  C   -0.460211
     9  H    0.187441
    10  H    0.185169
    11  H    0.180903
    12  O   -0.549907
    13  N   -0.637993
    14  H    0.374702
    15  C   -0.015536
    16  H    0.203299
    17  C    0.592755
    18  C   -0.399130
    19  H    0.192901
    20  H    0.193066
    21  O   -0.553749
    22  C    0.642734
    23  N   -0.740732
    24  H    0.361727
    25  H    0.355953
    26  O   -0.523190
    27  N   -0.636508
    28  H    0.411399
    29  C   -0.059931
    30  H    0.196335
    31  C    0.603446
    32  C   -0.258369
    33  H    0.174272
    34  H    0.165064
    35  O   -0.518755
    36  C   -0.364601
    37  H    0.190310
    38  H    0.185540
    39  C    0.622053
    40  O   -0.486550
    41  O   -0.566781
    42  N   -0.625743
    43  H    0.380066
    44  C   -0.072975
    45  H    0.192221
    46  C    0.638808
    47  C   -0.267670
    48  H    0.132764
    49  H    0.145502
    50  O   -0.556492
    51  C   -0.074848
    52  H    0.130944
    53  C   -0.456890
    54  H    0.147204
    55  H    0.128227
    56  H    0.144390
    57  C   -0.459300
    58  H    0.127546
    59  H    0.189520
    60  H    0.145122
    61  N   -0.610364
    62  H    0.344179
    63  C   -0.057590
    64  H    0.181974
    65  C    0.632314
    66  C   -0.279823
    67  H    0.140987
    68  H    0.152360
    69  O   -0.537529
    70  C   -0.083636
    71  H    0.157027
    72  C   -0.454263
    73  H    0.143585
    74  H    0.141424
    75  H    0.152417
    76  C   -0.446385
    77  H    0.141325
    78  H    0.148039
    79  H    0.149660
    80  N   -0.628594
    81  H    0.389869
    82  C   -0.059679
    83  H    0.190724
    84  C    0.628997
    85  C   -0.086845
    86  H    0.177207
    87  O   -0.557962
    88  C   -0.273101
    89  H    0.142845
    90  H    0.119700
    91  C   -0.500049
    92  H    0.135598
    93  H    0.172166
    94  H    0.153804
    95  C   -0.462297
    96  H    0.155860
    97  H    0.174151
    98  H    0.153726
    99  N   -0.632216
   100  H    0.397700
   101  C   -0.074917
   102  H    0.198923
   103  C    0.633196
   104  C   -0.360138
   105  H    0.201861
   106  H    0.137584
   107  O   -0.597776
   108  C    0.558088
   109  N   -0.752540
   110  H    0.378950
   111  H    0.345118
   112  O   -0.496023
   113  N   -0.638501
   114  H    0.411948
   115  C   -0.005951
   116  H    0.153943
   117  C    0.655844
   118  C   -0.108621
   119  H    0.156788
   120  O   -0.611837
   121  C   -0.480046
   122  H    0.146716
   123  H    0.187588
   124  H    0.146513
   125  C   -0.512950
   126  H    0.132398
   127  H    0.200016
   128  H    0.192912
   129  N   -0.602837
   130  H    0.368488
   131  C   -0.049119
   132  H    0.178858
   133  C    0.616816
   134  C   -0.264264
   135  H    0.174500
   136  H    0.149386
   137  O   -0.590574
   138  C   -0.326252
   139  H    0.182267
   140  H    0.152196
   141  C   -0.276632
   142  H    0.180931
   143  H    0.166478
   144  C   -0.197966
   145  H    0.220111
   146  H    0.198780
   147  N   -0.775850
   148  H    0.402651
   149  H    0.482524
   150  H    0.401875
   151  O   -0.650439
   152  H    0.409475
 Sum of Mulliken charges =   1.00000

 Dipole moment (field-independent basis, Debye):
    X=             16.0880    Y=             19.5384    Z=             -7.4186  Tot=             26.3744
 Quadrupole moment (field-independent basis, Debye-Ang):
   XX=           -305.5241   YY=           -282.7916   ZZ=           -333.4885
   XY=             93.1392   XZ=             27.3097   YZ=            -18.0586

 Normal termination of Gaussian 16 at Mon Jul 18 04:50:21 2022.
