 Gaussian 16, Revision C.01,
 Gaussian 16:  ES64L-G16RevC.01  3-Jul-2019

 ----------------------------------------------------------------------
 # B3LYP/6-31G* empiricaldispersion=gd3bj guess=read geom=check nosymm
 integral(ultrafinegrid)
 ----------------------------------------------------------------------

 ------------------------------------------------------
 Candidate Structure: Conf:607 Charge calc in gas phase
 ------------------------------------------------------
 Structure from the checkpoint file:  "conf-607.chk"
 Charge =  1 Multiplicity = 1

                          Input orientation:
 ---------------------------------------------------------------------
 Center     Atomic      Atomic             Coordinates (Angstroms)
 Number     Number       Type             X           Y           Z
 ---------------------------------------------------------------------
      1          7           0       -9.627213    2.050261   -4.923483
      2          1           0       -9.710123    1.009429   -4.946662
      3          1           0      -10.528978    2.496029   -4.740904
      4          1           0       -8.974619    2.262188   -4.135801
      5          6           0       -9.052688    2.411287   -6.275904
      6          1           0       -9.907308    2.536501   -6.948338
      7          6           0       -8.278592    1.125943   -6.671215
      8          6           0       -8.214922    3.683893   -6.201883
      9          1           0       -7.984377    4.035788   -7.211305
     10          1           0       -7.268643    3.508099   -5.683487
     11          1           0       -8.767517    4.488024   -5.706331
     12          8           0       -8.518677    0.096999   -6.033993
     13          7           0       -7.383066    1.217489   -7.672630
     14          1           0       -7.076837    2.158698   -7.895702
     15          6           0       -6.264099    0.258713   -7.667071
     16          1           0       -6.661369   -0.717334   -7.396467
     17          6           0       -5.312635    0.783566   -6.565338
     18          6           0       -5.595982    0.172336   -9.037006
     19          1           0       -5.035526    1.089309   -9.258117
     20          1           0       -6.364388    0.061894   -9.811906
     21          8           0       -5.227137    2.007531   -6.393055
     22          6           0       -4.667252   -1.046763   -9.073074
     23          7           0       -3.892465   -1.155585  -10.178410
     24          1           0       -3.292956   -1.964947  -10.267238
     25          1           0       -3.936649   -0.501446  -10.945426
     26          8           0       -4.646668   -1.864767   -8.159695
     27          7           0       -4.718096   -0.134876   -5.794035
     28          1           0       -4.671919   -1.110542   -6.091750
     29          6           0       -3.923123    0.237461   -4.634160
     30          1           0       -3.444271    1.199822   -4.841360
     31          6           0       -2.877744   -0.869582   -4.432604
     32          6           0       -4.791898    0.359426   -3.358267
     33          1           0       -5.118184   -0.640429   -3.051465
     34          1           0       -4.176659    0.757615   -2.545661
     35          8           0       -3.065300   -1.996265   -4.885629
     36          6           0       -6.015181    1.252198   -3.575700
     37          1           0       -6.708393    0.777578   -4.278241
     38          1           0       -5.723220    2.204612   -4.033098
     39          6           0       -6.770877    1.560074   -2.316810
     40          8           0       -6.467237    1.324340   -1.180432
     41          8           0       -7.963720    2.232810   -2.601713
     42          7           0       -1.814717   -0.515793   -3.686001
     43          1           0       -1.652416    0.442399   -3.393753
     44          6           0       -0.739781   -1.438694   -3.349833
     45          1           0       -1.185336   -2.411318   -3.126253
     46          6           0       -0.052349   -0.836054   -2.126024
     47          6           0        0.258204   -1.561961   -4.524890
     48          1           0        0.590280   -0.547108   -4.774412
     49          1           0       -0.310076   -1.941332   -5.382672
     50          8           0        0.054248    0.394123   -2.029128
     51          6           0        1.486906   -2.453317   -4.281646
     52          1           0        2.028592   -2.065731   -3.408895
     53          6           0        1.103641   -3.914695   -4.013427
     54          1           0        0.545340   -4.331657   -4.860449
     55          1           0        0.472408   -4.035727   -3.124070
     56          1           0        1.996678   -4.530256   -3.862761
     57          6           0        2.431615   -2.360029   -5.486544
     58          1           0        1.945519   -2.734995   -6.395961
     59          1           0        2.737085   -1.323986   -5.670327
     60          1           0        3.336565   -2.954994   -5.322052
     61          7           0        0.449524   -1.695502   -1.221181
     62          1           0        0.379323   -2.688432   -1.400798
     63          6           0        1.239224   -1.267547   -0.059931
     64          1           0        0.864511   -0.282965    0.227685
     65          6           0        2.713950   -1.074672   -0.468884
     66          6           0        1.074931   -2.242122    1.099785
     67          1           0        1.548410   -3.199065    0.843916
     68          1           0        1.638153   -1.819736    1.936561
     69          8           0        3.640389   -1.715550    0.028187
     70          6           0       -0.380611   -2.465846    1.543806
     71          1           0       -0.934364   -2.933957    0.715882
     72          6           0       -0.409162   -3.434001    2.732674
     73          1           0        0.109437   -3.000805    3.596826
     74          1           0        0.082809   -4.383001    2.489038
     75          1           0       -1.438143   -3.655042    3.037028
     76          6           0       -1.079552   -1.145543    1.894749
     77          1           0       -0.499496   -0.586713    2.639063
     78          1           0       -1.204385   -0.500539    1.018054
     79          1           0       -2.075618   -1.333156    2.311014
     80          7           0        2.881481   -0.150872   -1.451770
     81          1           0        2.082360    0.436901   -1.675078
     82          6           0        4.203114    0.301347   -1.880120
     83          1           0        4.888396   -0.504097   -1.609560
     84          6           0        4.527104    1.533584   -1.022269
     85          6           0        4.281567    0.527512   -3.401981
     86          1           0        4.169426   -0.474295   -3.842363
     87          8           0        4.258350    2.685267   -1.365488
     88          6           0        5.664504    1.068575   -3.811894
     89          1           0        5.673342    1.161462   -4.905299
     90          1           0        5.779615    2.084270   -3.415978
     91          6           0        3.161781    1.418357   -3.958770
     92          1           0        3.233769    2.429984   -3.554075
     93          1           0        2.166036    1.026430   -3.723858
     94          1           0        3.242688    1.472146   -5.050642
     95          6           0        6.847025    0.199227   -3.373066
     96          1           0        7.784158    0.580087   -3.792033
     97          1           0        6.727120   -0.837863   -3.710925
     98          1           0        6.967982    0.185597   -2.284620
     99          7           0        5.048646    1.234874    0.197409
    100          1           0        5.134558    0.253310    0.435713
    101          6           0        4.993640    2.218861    1.288931
    102          1           0        4.143391    2.869818    1.067162
    103          6           0        6.295997    3.051394    1.278110
    104          6           0        4.790828    1.534781    2.648896
    105          1           0        4.375360    2.267602    3.345900
    106          1           0        5.763721    1.225689    3.040228
    107          8           0        7.181908    2.888721    2.113258
    108          6           0        3.820053    0.372617    2.498227
    109          7           0        4.365117   -0.860651    2.706565
    110          1           0        5.357479   -0.954720    2.867717
    111          1           0        3.899357   -1.647819    2.269727
    112          8           0        2.653450    0.530389    2.146525
    113          7           0        6.358545    3.919864    0.244065
    114          1           0        5.597761    3.937123   -0.433412
    115          6           0        7.563361    4.659865   -0.087175
    116          1           0        8.190218    4.664224    0.809216
    117          6           0        7.130576    6.075487   -0.475218
    118          6           0        8.340739    4.003784   -1.257982
    119          1           0        7.663477    4.017927   -2.123345
    120          8           0        6.214900    6.256461   -1.276093
    121          6           0        9.594190    4.815546   -1.608031
    122          1           0       10.271925    4.880873   -0.747040
    123          1           0       10.144061    4.336178   -2.424905
    124          1           0        9.350862    5.835012   -1.922794
    125          6           0        8.701001    2.550048   -0.935334
    126          1           0        9.348779    2.491736   -0.053352
    127          1           0        9.230306    2.093888   -1.779413
    128          1           0        7.808809    1.950825   -0.734126
    129          7           0        7.825705    7.081613    0.104280
    130          1           0        8.637298    6.895518    0.682105
    131          6           0        7.633016    8.471895   -0.262339
    132          1           0        7.548724    8.550751   -1.352506
    133          6           0        8.848173    9.240936    0.224140
    134          6           0        6.343763    9.072439    0.352282
    135          1           0        5.538934    8.389780    0.064738
    136          1           0        6.147196   10.029137   -0.142976
    137          8           0        8.786817   10.532613   -0.068861
    138          6           0        6.336706    9.267013    1.883393
    139          1           0        6.835911    8.415600    2.364965
    140          1           0        5.290414    9.206877    2.202923
    141          6           0        6.916967   10.606592    2.422420
    142          1           0        6.904074   11.349390    1.616570
    143          1           0        6.234323   10.985729    3.190678
    144          6           0        8.341460   10.558730    3.032259
    145          1           0        8.296830   10.795889    4.103828
    146          1           0        8.765517    9.557532    2.941785
    147          7           0        9.281835   11.472418    2.331058
    148          1           0       10.223415   11.345903    2.699274
    149          1           0        9.023799   12.443442    2.504578
    150          1           0        9.217199   11.025615    0.725578
    151          8           0        9.716311    8.724387    0.913411
    152          1           0       -8.360419    2.438253   -1.732415
 ---------------------------------------------------------------------

 SCF Done:  E(RB3LYP) =  -3474.09068323     A.U. after    3 cycles

 Alpha  occ. eigenvalues --  -19.32451 -19.27588 -19.25782 -19.21816 -19.21101
 Alpha  occ. eigenvalues --  -19.19547 -19.19451 -19.19302 -19.17651 -19.16792
 Alpha  occ. eigenvalues --  -19.16390 -19.15851 -19.14309 -19.13871 -14.59311
 Alpha  occ. eigenvalues --  -14.49793 -14.45313 -14.45192 -14.44002 -14.43781
 Alpha  occ. eigenvalues --  -14.41037 -14.40943 -14.39920 -14.38583 -14.38487
 Alpha  occ. eigenvalues --  -14.38007 -10.44222 -10.43644 -10.41300 -10.39054
 Alpha  occ. eigenvalues --  -10.38857 -10.36783 -10.36417 -10.34667 -10.34348
 Alpha  occ. eigenvalues --  -10.34107 -10.33484 -10.33474 -10.33426 -10.32479
 Alpha  occ. eigenvalues --  -10.31441 -10.30980 -10.30880 -10.30646 -10.30619
 Alpha  occ. eigenvalues --  -10.28997 -10.28764 -10.27745 -10.27718 -10.26079
 Alpha  occ. eigenvalues --  -10.25373 -10.25182 -10.25002 -10.24967 -10.23851
 Alpha  occ. eigenvalues --  -10.23728 -10.23650 -10.23583 -10.23232 -10.22875
 Alpha  occ. eigenvalues --  -10.22126 -10.22014 -10.21902 -10.21732 -10.21688
 Alpha  occ. eigenvalues --  -10.21620 -10.21414 -10.21354 -10.21113 -10.20255
 Alpha  occ. eigenvalues --  -10.19881  -1.22040  -1.19937  -1.14189  -1.13738
 Alpha  occ. eigenvalues --   -1.13267  -1.12944  -1.11925  -1.11785  -1.11159
 Alpha  occ. eigenvalues --   -1.09392  -1.08492  -1.07465  -1.06572  -1.06337
 Alpha  occ. eigenvalues --   -1.05653  -1.03124  -1.02079  -1.00522  -1.00205
 Alpha  occ. eigenvalues --   -1.00041  -0.98047  -0.97098  -0.95154  -0.94975
 Alpha  occ. eigenvalues --   -0.94712  -0.93937  -0.93568  -0.90753  -0.89050
 Alpha  occ. eigenvalues --   -0.87969  -0.86270  -0.85526  -0.84527  -0.83761
 Alpha  occ. eigenvalues --   -0.82755  -0.82177  -0.81909  -0.81774  -0.79801
 Alpha  occ. eigenvalues --   -0.78547  -0.78444  -0.77434  -0.75654  -0.75550
 Alpha  occ. eigenvalues --   -0.74725  -0.74605  -0.74273  -0.72981  -0.72709
 Alpha  occ. eigenvalues --   -0.72640  -0.72165  -0.71139  -0.70980  -0.70518
 Alpha  occ. eigenvalues --   -0.69644  -0.69276  -0.68613  -0.68054  -0.67209
 Alpha  occ. eigenvalues --   -0.66820  -0.66330  -0.66215  -0.65939  -0.64656
 Alpha  occ. eigenvalues --   -0.64425  -0.63767  -0.63526  -0.63400  -0.62685
 Alpha  occ. eigenvalues --   -0.62635  -0.62487  -0.62122  -0.61418  -0.61136
 Alpha  occ. eigenvalues --   -0.60853  -0.60628  -0.60586  -0.60144  -0.60067
 Alpha  occ. eigenvalues --   -0.59401  -0.59281  -0.59179  -0.58665  -0.58343
 Alpha  occ. eigenvalues --   -0.57583  -0.56653  -0.56585  -0.56049  -0.55791
 Alpha  occ. eigenvalues --   -0.55399  -0.54802  -0.54363  -0.54302  -0.54083
 Alpha  occ. eigenvalues --   -0.54060  -0.53905  -0.53755  -0.53445  -0.53185
 Alpha  occ. eigenvalues --   -0.52907  -0.52599  -0.52404  -0.52318  -0.51882
 Alpha  occ. eigenvalues --   -0.51505  -0.51264  -0.51113  -0.50877  -0.50671
 Alpha  occ. eigenvalues --   -0.50610  -0.50506  -0.50228  -0.50128  -0.49784
 Alpha  occ. eigenvalues --   -0.49642  -0.48853  -0.48716  -0.48570  -0.48253
 Alpha  occ. eigenvalues --   -0.48146  -0.48079  -0.47825  -0.47553  -0.47470
 Alpha  occ. eigenvalues --   -0.47364  -0.47210  -0.46860  -0.46602  -0.46216
 Alpha  occ. eigenvalues --   -0.46109  -0.45783  -0.45656  -0.45560  -0.45491
 Alpha  occ. eigenvalues --   -0.45244  -0.45003  -0.44835  -0.44586  -0.44418
 Alpha  occ. eigenvalues --   -0.44333  -0.44230  -0.43984  -0.43829  -0.43509
 Alpha  occ. eigenvalues --   -0.43444  -0.43182  -0.42845  -0.42608  -0.42298
 Alpha  occ. eigenvalues --   -0.42170  -0.42081  -0.41812  -0.41702  -0.41489
 Alpha  occ. eigenvalues --   -0.41356  -0.41039  -0.40950  -0.40794  -0.40608
 Alpha  occ. eigenvalues --   -0.40271  -0.40264  -0.40084  -0.39709  -0.39635
 Alpha  occ. eigenvalues --   -0.39195  -0.39096  -0.38881  -0.38777  -0.38623
 Alpha  occ. eigenvalues --   -0.37654  -0.37269  -0.37255  -0.37183  -0.37039
 Alpha  occ. eigenvalues --   -0.36945  -0.36542  -0.36520  -0.36420  -0.36389
 Alpha  occ. eigenvalues --   -0.36277  -0.36115  -0.35737  -0.35353  -0.35232
 Alpha  occ. eigenvalues --   -0.34998  -0.34810  -0.33984  -0.33236  -0.33102
 Alpha  occ. eigenvalues --   -0.32672  -0.32430  -0.32075  -0.31290  -0.30723
 Alpha  occ. eigenvalues --   -0.30414  -0.29896  -0.29467  -0.29024  -0.28556
 Alpha  occ. eigenvalues --   -0.28049  -0.27399  -0.26695
 Alpha virt. eigenvalues --   -0.14105  -0.10643  -0.09739  -0.08504  -0.06792
 Alpha virt. eigenvalues --   -0.06431  -0.05483  -0.04855  -0.04608  -0.04142
 Alpha virt. eigenvalues --   -0.03048  -0.02743  -0.02138  -0.01726  -0.01260

 Mulliken charges:
               1
     1  N   -0.779357
     2  H    0.425198
     3  H    0.406237
     4  H    0.447688
     5  C   -0.115761
     6  H    0.230535
     7  C    0.652882
     8  C   -0.497854
     9  H    0.201172
    10  H    0.226410
    11  H    0.187941
    12  O   -0.519908
    13  N   -0.577152
    14  H    0.356352
    15  C   -0.069785
    16  H    0.224920
    17  C    0.604089
    18  C   -0.404262
    19  H    0.184318
    20  H    0.198389
    21  O   -0.567859
    22  C    0.624895
    23  N   -0.746321
    24  H    0.364820
    25  H    0.351828
    26  O   -0.502180
    27  N   -0.601975
    28  H    0.401436
    29  C   -0.065311
    30  H    0.183189
    31  C    0.624928
    32  C   -0.258516
    33  H    0.179152
    34  H    0.183116
    35  O   -0.528640
    36  C   -0.402253
    37  H    0.176781
    38  H    0.218184
    39  C    0.608754
    40  O   -0.411262
    41  O   -0.637967
    42  N   -0.623225
    43  H    0.355170
    44  C   -0.044248
    45  H    0.175894
    46  C    0.629942
    47  C   -0.263634
    48  H    0.153518
    49  H    0.165134
    50  O   -0.567444
    51  C   -0.102448
    52  H    0.148410
    53  C   -0.452013
    54  H    0.157802
    55  H    0.121501
    56  H    0.160160
    57  C   -0.449250
    58  H    0.142669
    59  H    0.155142
    60  H    0.152142
    61  N   -0.599701
    62  H    0.348469
    63  C   -0.084765
    64  H    0.221773
    65  C    0.654675
    66  C   -0.296213
    67  H    0.138800
    68  H    0.176596
    69  O   -0.560705
    70  C   -0.070009
    71  H    0.107940
    72  C   -0.443212
    73  H    0.150611
    74  H    0.141151
    75  H    0.144942
    76  C   -0.457848
    77  H    0.166761
    78  H    0.145156
    79  H    0.141724
    80  N   -0.635902
    81  H    0.387590
    82  C   -0.071291
    83  H    0.178086
    84  C    0.639684
    85  C   -0.079490
    86  H    0.131563
    87  O   -0.534966
    88  C   -0.271620
    89  H    0.134051
    90  H    0.169430
    91  C   -0.493790
    92  H    0.195629
    93  H    0.140837
    94  H    0.137286
    95  C   -0.460195
    96  H    0.154710
    97  H    0.140914
    98  H    0.150204
    99  N   -0.608834
   100  H    0.351252
   101  C   -0.059185
   102  H    0.194086
   103  C    0.628913
   104  C   -0.382855
   105  H    0.188923
   106  H    0.180764
   107  O   -0.536870
   108  C    0.571182
   109  N   -0.736629
   110  H    0.339524
   111  H    0.371685
   112  O   -0.529912
   113  N   -0.620786
   114  H    0.380254
   115  C   -0.050208
   116  H    0.165810
   117  C    0.626949
   118  C   -0.075437
   119  H    0.145513
   120  O   -0.548818
   121  C   -0.462026
   122  H    0.145540
   123  H    0.148146
   124  H    0.157384
   125  C   -0.457662
   126  H    0.156339
   127  H    0.140069
   128  H    0.151608
   129  N   -0.615158
   130  H    0.352348
   131  C   -0.030594
   132  H    0.183060
   133  C    0.599333
   134  C   -0.267199
   135  H    0.175536
   136  H    0.152533
   137  O   -0.609499
   138  C   -0.286048
   139  H    0.148068
   140  H    0.142569
   141  C   -0.280824
   142  H    0.156535
   143  H    0.141399
   144  C   -0.161162
   145  H    0.141466
   146  H    0.187531
   147  N   -0.771527
   148  H    0.334818
   149  H    0.323388
   150  H    0.454705
   151  O   -0.506722
   152  H    0.429775
 Sum of Mulliken charges =   1.00000

 Dipole moment (field-independent basis, Debye):
    X=            -32.4647    Y=             10.7446    Z=            -26.0668  Tot=             42.9986
 Quadrupole moment (field-independent basis, Debye-Ang):
   XX=            -62.7160   YY=           -324.6899   ZZ=           -185.9699
   XY=            -67.0318   XZ=            227.1707   YZ=            -11.6378

 Normal termination of Gaussian 16 at Mon Jul 18 04:51:42 2022.
