 Gaussian 16, Revision C.01,
 Gaussian 16:  ES64L-G16RevC.01  3-Jul-2019

 ----------------------------------------------------------------------
 # B3LYP/6-31G* empiricaldispersion=gd3bj guess=read geom=check nosymm
 integral(ultrafinegrid)
 ----------------------------------------------------------------------

 ------------------------------------------------------
 Candidate Structure: Conf:584 Charge calc in gas phase
 ------------------------------------------------------
 Structure from the checkpoint file:  "conf-584.chk"
 Charge =  1 Multiplicity = 1

                          Input orientation:
 ---------------------------------------------------------------------
 Center     Atomic      Atomic             Coordinates (Angstroms)
 Number     Number       Type             X           Y           Z
 ---------------------------------------------------------------------
      1          7           0       -1.716797    7.941831   -4.834979
      2          1           0       -0.808497    8.400939   -4.738410
      3          1           0       -2.443408    8.658179   -4.900429
      4          1           0       -1.720659    7.315096   -5.698771
      5          6           0       -1.980034    6.932179   -3.730350
      6          1           0       -1.142385    6.943065   -3.017086
      7          6           0       -1.931097    5.586489   -4.495154
      8          6           0       -3.300943    7.214425   -3.026377
      9          1           0       -3.378539    6.525905   -2.182096
     10          1           0       -4.159280    7.079910   -3.694146
     11          1           0       -3.311788    8.231964   -2.619912
     12          8           0       -1.829024    5.623605   -5.739109
     13          7           0       -1.969387    4.516823   -3.716281
     14          1           0       -1.988791    4.712219   -2.684739
     15          6           0       -1.709211    3.133165   -4.125664
     16          1           0       -2.613708    2.692519   -4.559693
     17          6           0       -1.304703    2.405363   -2.827919
     18          6           0       -0.550274    3.026209   -5.123003
     19          1           0        0.332197    3.492239   -4.671615
     20          1           0       -0.788054    3.574704   -6.037093
     21          8           0       -0.188063    2.591363   -2.353091
     22          6           0       -0.234823    1.571673   -5.433200
     23          7           0        0.724776    1.370042   -6.370327
     24          1           0        0.947591    0.420240   -6.635596
     25          1           0        1.120069    2.126764   -6.908379
     26          8           0       -0.794691    0.635758   -4.862923
     27          7           0       -2.251372    1.634281   -2.247935
     28          1           0       -3.119381    1.474915   -2.741471
     29          6           0       -2.030532    0.921990   -0.995548
     30          1           0       -1.066622    1.294767   -0.626201
     31          6           0       -1.741729   -0.575045   -1.179357
     32          6           0       -3.119801    1.219573    0.039620
     33          1           0       -4.105069    1.247336   -0.439069
     34          1           0       -3.133835    0.393284    0.754599
     35          8           0       -1.942900   -1.375116   -0.269431
     36          6           0       -2.813423    2.545636    0.740283
     37          1           0       -2.701390    3.360207    0.008917
     38          1           0       -1.853626    2.471928    1.258452
     39          6           0       -3.797326    3.028689    1.771886
     40          8           0       -3.503513    3.698866    2.740512
     41          8           0       -5.076161    2.680191    1.492560
     42          7           0       -1.101050   -0.917360   -2.325193
     43          1           0       -0.910353   -0.213111   -3.030589
     44          6           0       -0.262136   -2.106618   -2.327132
     45          1           0       -0.893734   -3.001189   -2.352683
     46          6           0        0.570626   -2.098487   -1.030247
     47          6           0        0.664481   -2.061375   -3.550718
     48          1           0        1.251452   -1.137717   -3.478454
     49          1           0        0.039775   -1.967465   -4.447607
     50          8           0        1.112107   -1.056207   -0.646257
     51          6           0        1.618561   -3.255993   -3.704155
     52          1           0        2.235037   -3.325441   -2.797735
     53          6           0        0.876499   -4.587113   -3.877862
     54          1           0        0.208054   -4.551193   -4.747252
     55          1           0        0.268333   -4.843568   -3.003633
     56          1           0        1.583801   -5.408884   -4.032374
     57          6           0        2.555606   -3.005121   -4.892284
     58          1           0        1.988534   -2.957155   -5.831153
     59          1           0        3.098208   -2.059623   -4.777207
     60          1           0        3.293153   -3.808983   -4.991985
     61          7           0        0.699783   -3.279960   -0.388289
     62          1           0        0.130608   -4.050700   -0.709321
     63          6           0        1.230156   -3.379590    0.978465
     64          1           0        0.891002   -2.483989    1.510343
     65          6           0        2.775805   -3.360848    0.957703
     66          6           0        0.704306   -4.636355    1.665784
     67          1           0        1.117816   -5.513346    1.153647
     68          1           0        1.132804   -4.657205    2.675015
     69          8           0        3.464668   -4.362751    1.123266
     70          6           0       -0.828293   -4.740636    1.766956
     71          1           0       -1.250619   -4.806006    0.752015
     72          6           0       -1.200619   -6.034853    2.500948
     73          1           0       -0.837102   -6.011281    3.535918
     74          1           0       -0.761892   -6.913596    2.014115
     75          1           0       -2.287033   -6.170606    2.531719
     76          6           0       -1.455611   -3.515881    2.445008
     77          1           0       -0.996103   -3.339355    3.426799
     78          1           0       -1.351677   -2.612707    1.837000
     79          1           0       -2.527690   -3.675055    2.605181
     80          7           0        3.281749   -2.119290    0.753944
     81          1           0        2.624199   -1.390038    0.480229
     82          6           0        4.700801   -1.891335    0.568957
     83          1           0        5.225335   -2.472828    1.340592
     84          6           0        4.935131   -0.412489    0.895500
     85          6           0        5.177999   -2.435959   -0.808795
     86          1           0        4.724041   -3.433235   -0.828421
     87          8           0        4.190961    0.203211    1.662663
     88          6           0        6.698959   -2.659998   -0.914903
     89          1           0        7.224338   -1.734125   -1.178659
     90          1           0        7.091438   -2.970050    0.062733
     91          6           0        4.610839   -1.636009   -1.985721
     92          1           0        5.133859   -0.679374   -2.102681
     93          1           0        3.544488   -1.431182   -1.848949
     94          1           0        4.727675   -2.185994   -2.923867
     95          6           0        7.062056   -3.726570   -1.953766
     96          1           0        8.145970   -3.873347   -2.000374
     97          1           0        6.723882   -3.444250   -2.957230
     98          1           0        6.601100   -4.688416   -1.702349
     99          7           0        5.974013    0.230866    0.292138
    100          1           0        6.768521   -0.295699   -0.068314
    101          6           0        6.276458    1.581173    0.739863
    102          1           0        6.408932    1.608362    1.827480
    103          6           0        5.127857    2.557289    0.440931
    104          6           0        7.547371    2.114449    0.048417
    105          1           0        7.720791    3.136102    0.398575
    106          1           0        7.374593    2.158653   -1.033065
    107          8           0        4.872559    3.487587    1.220483
    108          6           0        8.755019    1.211205    0.276212
    109          7           0        9.857596    1.801241    0.793680
    110          1           0        9.903811    2.787274    1.000101
    111          1           0       10.688458    1.239488    0.925364
    112          8           0        8.715513    0.013762   -0.004480
    113          7           0        4.505704    2.392674   -0.738194
    114          1           0        4.641654    1.509551   -1.212932
    115          6           0        3.440832    3.272326   -1.192807
    116          1           0        3.836862    4.294397   -1.184909
    117          6           0        2.220131    3.242156   -0.263288
    118          6           0        3.004096    2.919245   -2.638850
    119          1           0        2.107106    3.521290   -2.820457
    120          8           0        1.893383    2.213977    0.350022
    121          6           0        4.084978    3.323874   -3.648338
    122          1           0        5.017750    2.772335   -3.479673
    123          1           0        3.754113    3.101243   -4.669037
    124          1           0        4.312788    4.394418   -3.590538
    125          6           0        2.609378    1.444900   -2.801609
    126          1           0        3.488919    0.790290   -2.800506
    127          1           0        2.122005    1.306038   -3.771400
    128          1           0        1.922715    1.104123   -2.024610
    129          7           0        1.530564    4.394875   -0.218289
    130          1           0        1.779674    5.140451   -0.868105
    131          6           0        0.101624    4.441838    0.092775
    132          1           0       -0.273762    3.425284   -0.011784
    133          6           0       -0.578082    5.284933   -1.005914
    134          6           0       -0.251570    4.950258    1.498136
    135          1           0       -1.340896    5.037129    1.537649
    136          1           0        0.155246    5.959558    1.643596
    137          8           0       -1.837639    5.126265   -1.107908
    138          6           0        0.220407    4.006072    2.617320
    139          1           0        0.213563    2.980778    2.226566
    140          1           0       -0.503118    4.022477    3.439950
    141          6           0        1.617075    4.342610    3.168944
    142          1           0        2.280340    4.687885    2.366334
    143          1           0        1.540566    5.171955    3.880721
    144          6           0        2.278660    3.156018    3.872919
    145          1           0        3.067139    3.468592    4.561927
    146          1           0        1.549399    2.560706    4.429109
    147          7           0        2.921014    2.266698    2.853295
    148          1           0        3.213172    1.342761    3.182515
    149          1           0        3.763760    2.720179    2.450739
    150          1           0        2.324673    2.106971    2.006634
    151          8           0        0.140214    6.023469   -1.721355
    152          1           0       -5.623024    3.064358    2.204004
 ---------------------------------------------------------------------

 SCF Done:  E(RB3LYP) =  -3474.15194186     A.U. after    1 cycles

 Alpha  occ. eigenvalues --  -19.24714 -19.23267 -19.21019 -19.20787 -19.20526
 Alpha  occ. eigenvalues --  -19.20411 -19.19611 -19.19402 -19.18723 -19.18179
 Alpha  occ. eigenvalues --  -19.17330 -19.16484 -19.16234 -19.16180 -14.55919
 Alpha  occ. eigenvalues --  -14.49859 -14.44886 -14.44857 -14.44835 -14.44705
 Alpha  occ. eigenvalues --  -14.44360 -14.44002 -14.42552 -14.42297 -14.40894
 Alpha  occ. eigenvalues --  -14.40049 -10.39351 -10.38372 -10.38321 -10.37978
 Alpha  occ. eigenvalues --  -10.37162 -10.37022 -10.37009 -10.36118 -10.34892
 Alpha  occ. eigenvalues --  -10.34892 -10.34241 -10.33957 -10.33137 -10.32780
 Alpha  occ. eigenvalues --  -10.32751 -10.32290 -10.31084 -10.29615 -10.29548
 Alpha  occ. eigenvalues --  -10.29533 -10.29294 -10.28427 -10.28404 -10.28139
 Alpha  occ. eigenvalues --  -10.27596 -10.27037 -10.26517 -10.25274 -10.25065
 Alpha  occ. eigenvalues --  -10.24977 -10.24752 -10.24708 -10.24689 -10.24575
 Alpha  occ. eigenvalues --  -10.24117 -10.23736 -10.23613 -10.23570 -10.23474
 Alpha  occ. eigenvalues --  -10.23455 -10.23289 -10.23179 -10.22520 -10.21418
 Alpha  occ. eigenvalues --  -10.20981  -1.15427  -1.15257  -1.13288  -1.12731
 Alpha  occ. eigenvalues --   -1.12344  -1.12069  -1.11761  -1.10862  -1.10476
 Alpha  occ. eigenvalues --   -1.09700  -1.09521  -1.08853  -1.07956  -1.06227
 Alpha  occ. eigenvalues --   -1.05623  -1.02432  -1.02032  -1.00821  -1.00704
 Alpha  occ. eigenvalues --   -1.00393  -0.99580  -0.99518  -0.98883  -0.98826
 Alpha  occ. eigenvalues --   -0.97809  -0.97437  -0.89301  -0.88872  -0.87705
 Alpha  occ. eigenvalues --   -0.87476  -0.87179  -0.86515  -0.86196  -0.85689
 Alpha  occ. eigenvalues --   -0.85602  -0.83191  -0.81968  -0.80732  -0.79912
 Alpha  occ. eigenvalues --   -0.79395  -0.78505  -0.77627  -0.77447  -0.76386
 Alpha  occ. eigenvalues --   -0.75565  -0.75472  -0.75090  -0.74334  -0.72252
 Alpha  occ. eigenvalues --   -0.71749  -0.71022  -0.70425  -0.69970  -0.69837
 Alpha  occ. eigenvalues --   -0.69362  -0.69063  -0.68414  -0.68084  -0.67659
 Alpha  occ. eigenvalues --   -0.67492  -0.66645  -0.66454  -0.65992  -0.65619
 Alpha  occ. eigenvalues --   -0.65435  -0.65210  -0.64572  -0.64325  -0.64020
 Alpha  occ. eigenvalues --   -0.63847  -0.63152  -0.63026  -0.62857  -0.62603
 Alpha  occ. eigenvalues --   -0.62193  -0.61516  -0.61236  -0.60758  -0.59866
 Alpha  occ. eigenvalues --   -0.59513  -0.58844  -0.58587  -0.58008  -0.57790
 Alpha  occ. eigenvalues --   -0.57567  -0.57072  -0.56834  -0.56725  -0.55972
 Alpha  occ. eigenvalues --   -0.55522  -0.55214  -0.54849  -0.54390  -0.54239
 Alpha  occ. eigenvalues --   -0.53905  -0.53637  -0.53547  -0.53189  -0.52989
 Alpha  occ. eigenvalues --   -0.52956  -0.52571  -0.52437  -0.52315  -0.51991
 Alpha  occ. eigenvalues --   -0.51685  -0.51537  -0.51384  -0.51194  -0.51026
 Alpha  occ. eigenvalues --   -0.50496  -0.50384  -0.50152  -0.50003  -0.49783
 Alpha  occ. eigenvalues --   -0.49700  -0.49385  -0.49133  -0.48984  -0.48913
 Alpha  occ. eigenvalues --   -0.48760  -0.48677  -0.48556  -0.48260  -0.48142
 Alpha  occ. eigenvalues --   -0.47873  -0.47759  -0.47650  -0.47581  -0.47468
 Alpha  occ. eigenvalues --   -0.47243  -0.47097  -0.46822  -0.46588  -0.46323
 Alpha  occ. eigenvalues --   -0.46226  -0.46033  -0.45862  -0.45669  -0.45454
 Alpha  occ. eigenvalues --   -0.45279  -0.45046  -0.44960  -0.44772  -0.44657
 Alpha  occ. eigenvalues --   -0.44497  -0.44276  -0.44205  -0.43974  -0.43548
 Alpha  occ. eigenvalues --   -0.43450  -0.43289  -0.42820  -0.42558  -0.42418
 Alpha  occ. eigenvalues --   -0.42223  -0.42153  -0.42046  -0.41704  -0.41165
 Alpha  occ. eigenvalues --   -0.40874  -0.40775  -0.40667  -0.40535  -0.40393
 Alpha  occ. eigenvalues --   -0.40356  -0.40185  -0.39750  -0.39500  -0.39224
 Alpha  occ. eigenvalues --   -0.38849  -0.38712  -0.38457  -0.38253  -0.37852
 Alpha  occ. eigenvalues --   -0.37701  -0.36971  -0.36874  -0.36711  -0.36564
 Alpha  occ. eigenvalues --   -0.36332  -0.36216  -0.35860  -0.35777  -0.35405
 Alpha  occ. eigenvalues --   -0.35214  -0.34899  -0.34427  -0.33960  -0.33735
 Alpha  occ. eigenvalues --   -0.33449  -0.33405  -0.33181  -0.32652  -0.32506
 Alpha  occ. eigenvalues --   -0.32355  -0.32082  -0.31113  -0.30630  -0.30274
 Alpha  occ. eigenvalues --   -0.29952  -0.29710  -0.28894
 Alpha virt. eigenvalues --   -0.08236  -0.08167  -0.07540  -0.06775  -0.06571
 Alpha virt. eigenvalues --   -0.06123  -0.05998  -0.05749  -0.05073  -0.03796
 Alpha virt. eigenvalues --   -0.03156  -0.02913  -0.02417  -0.02224  -0.01629

 Mulliken charges:
               1
     1  N   -0.763963
     2  H    0.409534
     3  H    0.402417
     4  H    0.421590
     5  C   -0.128343
     6  H    0.269266
     7  C    0.646268
     8  C   -0.490523
     9  H    0.245808
    10  H    0.165208
    11  H    0.168048
    12  O   -0.575474
    13  N   -0.672228
    14  H    0.448015
    15  C    0.011698
    16  H    0.168294
    17  C    0.604925
    18  C   -0.411555
    19  H    0.204173
    20  H    0.208411
    21  O   -0.528233
    22  C    0.641339
    23  N   -0.754059
    24  H    0.357604
    25  H    0.351275
    26  O   -0.530828
    27  N   -0.608337
    28  H    0.341938
    29  C   -0.092164
    30  H    0.233798
    31  C    0.625120
    32  C   -0.273742
    33  H    0.153981
    34  H    0.191910
    35  O   -0.533117
    36  C   -0.412932
    37  H    0.229622
    38  H    0.175615
    39  C    0.584427
    40  O   -0.474486
    41  O   -0.562311
    42  N   -0.651096
    43  H    0.409299
    44  C   -0.004353
    45  H    0.154526
    46  C    0.648844
    47  C   -0.316459
    48  H    0.164638
    49  H    0.156666
    50  O   -0.562286
    51  C   -0.089326
    52  H    0.147094
    53  C   -0.446052
    54  H    0.147671
    55  H    0.131729
    56  H    0.156746
    57  C   -0.448000
    58  H    0.136451
    59  H    0.139226
    60  H    0.153056
    61  N   -0.602714
    62  H    0.346238
    63  C   -0.063655
    64  H    0.174798
    65  C    0.631331
    66  C   -0.292322
    67  H    0.160286
    68  H    0.155334
    69  O   -0.533964
    70  C   -0.079288
    71  H    0.114890
    72  C   -0.441428
    73  H    0.145178
    74  H    0.143820
    75  H    0.147690
    76  C   -0.466546
    77  H    0.130099
    78  H    0.184837
    79  H    0.146632
    80  N   -0.625427
    81  H    0.382240
    82  C   -0.058020
    83  H    0.194170
    84  C    0.604908
    85  C   -0.087715
    86  H    0.175415
    87  O   -0.556729
    88  C   -0.287930
    89  H    0.150823
    90  H    0.147564
    91  C   -0.494149
    92  H    0.123703
    93  H    0.175679
    94  H    0.162278
    95  C   -0.455985
    96  H    0.155753
    97  H    0.142923
    98  H    0.159358
    99  N   -0.674492
   100  H    0.411536
   101  C   -0.013196
   102  H    0.171323
   103  C    0.636189
   104  C   -0.406353
   105  H    0.176170
   106  H    0.191566
   107  O   -0.587826
   108  C    0.621316
   109  N   -0.738677
   110  H    0.353802
   111  H    0.362742
   112  O   -0.514105
   113  N   -0.594664
   114  H    0.368147
   115  C   -0.035740
   116  H    0.163183
   117  C    0.650549
   118  C   -0.128210
   119  H    0.176087
   120  O   -0.585691
   121  C   -0.442745
   122  H    0.140864
   123  H    0.143549
   124  H    0.146818
   125  C   -0.497966
   126  H    0.129549
   127  H    0.146423
   128  H    0.226462
   129  N   -0.589001
   130  H    0.350558
   131  C   -0.058689
   132  H    0.187397
   133  C    0.623941
   134  C   -0.280590
   135  H    0.187013
   136  H    0.139543
   137  O   -0.627638
   138  C   -0.286943
   139  H    0.145167
   140  H    0.170216
   141  C   -0.297240
   142  H    0.177050
   143  H    0.168088
   144  C   -0.174638
   145  H    0.184823
   146  H    0.192219
   147  N   -0.800408
   148  H    0.404543
   149  H    0.428951
   150  H    0.455030
   151  O   -0.594570
   152  H    0.412136
 Sum of Mulliken charges =   1.00000

 Dipole moment (field-independent basis, Debye):
    X=              9.6663    Y=             22.3891    Z=            -13.2016  Tot=             27.7306
 Quadrupole moment (field-independent basis, Debye-Ang):
   XX=           -284.6771   YY=           -261.2097   ZZ=           -303.8429
   XY=             13.1934   XZ=             27.2244   YZ=            -77.1221

 Normal termination of Gaussian 16 at Mon Jul 18 04:50:36 2022.
