 Gaussian 16, Revision C.01,
 Gaussian 16:  ES64L-G16RevC.01  3-Jul-2019

 ----------------------------------------------------------------------
 # B3LYP/6-31G* empiricaldispersion=gd3bj guess=read geom=check nosymm
 integral(ultrafinegrid)
 ----------------------------------------------------------------------

 ------------------------------------------------------
 Candidate Structure: Conf:112 Charge calc in gas phase
 ------------------------------------------------------
 Structure from the checkpoint file:  "conf-112.chk"
 Charge =  1 Multiplicity = 1

                          Input orientation:
 ---------------------------------------------------------------------
 Center     Atomic      Atomic             Coordinates (Angstroms)
 Number     Number       Type             X           Y           Z
 ---------------------------------------------------------------------
      1          7           0       -8.925115    3.527248   -5.843965
      2          1           0       -8.235617    3.134274   -6.535968
      3          1           0       -9.482291    4.286689   -6.243104
      4          1           0       -9.523563    2.735399   -5.567292
      5          6           0       -8.156114    3.929800   -4.600861
      6          1           0       -7.426317    4.677527   -4.917726
      7          6           0       -7.486536    2.591605   -4.238048
      8          6           0       -9.099294    4.453949   -3.528781
      9          1           0       -8.517720    4.751335   -2.651628
     10          1           0       -9.802003    3.673523   -3.220417
     11          1           0       -9.655921    5.331477   -3.874175
     12          8           0       -8.179956    1.573738   -4.296372
     13          7           0       -6.173200    2.623210   -3.997362
     14          1           0       -5.636957    3.487801   -3.953939
     15          6           0       -5.336201    1.450376   -4.158480
     16          1           0       -5.842219    0.582579   -3.731500
     17          6           0       -4.009986    1.780132   -3.446631
     18          6           0       -5.007000    1.215426   -5.667087
     19          1           0       -4.454005    0.275663   -5.760575
     20          1           0       -4.350618    2.028200   -5.992434
     21          8           0       -3.670122    2.962311   -3.360610
     22          6           0       -6.219648    1.243547   -6.584279
     23          7           0       -6.656599    0.059137   -7.046134
     24          1           0       -7.458503    0.029607   -7.661570
     25          1           0       -6.213738   -0.813678   -6.798555
     26          8           0       -6.763728    2.317307   -6.895507
     27          7           0       -3.303138    0.728222   -3.029212
     28          1           0       -3.595632   -0.234379   -3.200917
     29          6           0       -1.936562    0.810328   -2.532173
     30          1           0       -1.357577    1.438138   -3.219453
     31          6           0       -1.393225   -0.627305   -2.642179
     32          6           0       -1.829253    1.407784   -1.101554
     33          1           0       -2.834828    1.441745   -0.671064
     34          1           0       -1.231734    0.744961   -0.469239
     35          8           0       -2.121110   -1.547192   -3.038991
     36          6           0       -1.214883    2.805374   -1.105221
     37          1           0       -1.230711    3.227838   -0.092182
     38          1           0       -1.793055    3.484240   -1.737932
     39          6           0        0.240877    2.824517   -1.560014
     40          8           0        0.925741    1.790995   -1.615766
     41          8           0        0.664728    4.020545   -1.830743
     42          7           0       -0.101332   -0.753298   -2.308636
     43          1           0        0.390621    0.076448   -1.949649
     44          6           0        0.588993   -2.024363   -2.373406
     45          1           0       -0.048018   -2.694269   -2.955383
     46          6           0        0.779620   -2.591781   -0.960019
     47          6           0        1.951976   -1.830229   -3.070964
     48          1           0        2.528640   -1.107557   -2.481595
     49          1           0        1.751663   -1.354083   -4.039313
     50          8           0        1.003797   -1.867865    0.009983
     51          6           0        2.787421   -3.102471   -3.295601
     52          1           0        2.974711   -3.585941   -2.328253
     53          6           0        2.076213   -4.115053   -4.203930
     54          1           0        1.873457   -3.675724   -5.188682
     55          1           0        1.114411   -4.453123   -3.800215
     56          1           0        2.696318   -5.005134   -4.352943
     57          6           0        4.145291   -2.726253   -3.901903
     58          1           0        4.018639   -2.267136   -4.890170
     59          1           0        4.679966   -2.009184   -3.270413
     60          1           0        4.779631   -3.611589   -4.022719
     61          7           0        0.721412   -3.946842   -0.873437
     62          1           0        0.638656   -4.484833   -1.725345
     63          6           0        1.106735   -4.672348    0.337004
     64          1           0        0.633173   -4.156420    1.175351
     65          6           0        2.640422   -4.595780    0.478205
     66          6           0        0.626914   -6.119442    0.252525
     67          1           0       -0.463183   -6.110005    0.119875
     68          1           0        1.069023   -6.573091   -0.643524
     69          8           0        3.394453   -5.340457   -0.147129
     70          6           0        0.994987   -6.984911    1.470201
     71          1           0        2.090048   -7.050065    1.506252
     72          6           0        0.502884   -6.379997    2.791825
     73          1           0       -0.581382   -6.209891    2.767923
     74          1           0        0.990764   -5.424891    3.015321
     75          1           0        0.713871   -7.056638    3.627149
     76          6           0        0.444093   -8.402960    1.279522
     77          1           0       -0.653071   -8.396193    1.249668
     78          1           0        0.803228   -8.847573    0.344350
     79          1           0        0.750536   -9.057237    2.102934
     80          7           0        3.061321   -3.618399    1.313340
     81          1           0        2.388665   -2.933886    1.644897
     82          6           0        4.451261   -3.233914    1.452662
     83          1           0        5.041642   -4.116285    1.727419
     84          6           0        4.473908   -2.200361    2.583351
     85          6           0        5.019001   -2.661763    0.109776
     86          1           0        4.659698   -3.373596   -0.639926
     87          8           0        3.429569   -1.710742    3.015249
     88          6           0        6.554459   -2.705774    0.046127
     89          1           0        6.988863   -1.980977    0.744517
     90          1           0        6.900418   -3.694434    0.374882
     91          6           0        4.446866   -1.274278   -0.204566
     92          1           0        4.912210   -0.500743    0.414653
     93          1           0        3.366047   -1.239543   -0.040143
     94          1           0        4.625262   -1.002822   -1.248779
     95          6           0        7.112715   -2.435547   -1.355221
     96          1           0        8.206628   -2.514206   -1.366480
     97          1           0        6.831149   -1.440965   -1.725106
     98          1           0        6.726054   -3.159175   -2.079852
     99          7           0        5.688262   -1.787865    3.047333
    100          1           0        6.548821   -2.084205    2.601786
    101          6           0        5.744097   -0.519401    3.775517
    102          1           0        4.970989   -0.553331    4.545901
    103          6           0        5.431409    0.598590    2.764671
    104          6           0        7.092491   -0.310687    4.468022
    105          1           0        7.271690   -1.161837    5.136081
    106          1           0        7.020412    0.584216    5.093487
    107          8           0        6.312267    0.985454    1.972869
    108          6           0        8.294265   -0.219415    3.540787
    109          7           0        9.165335    0.778477    3.806639
    110          1           0        8.996386    1.465910    4.526196
    111          1           0       10.052074    0.806644    3.321621
    112          8           0        8.502523   -1.042377    2.636456
    113          7           0        4.175962    1.032075    2.743749
    114          1           0        3.513387    0.519279    3.313633
    115          6           0        3.613571    1.913723    1.720159
    116          1           0        3.486222    1.328997    0.800838
    117          6           0        4.550252    3.095513    1.419273
    118          6           0        2.210352    2.371733    2.201859
    119          1           0        2.304759    2.567504    3.279055
    120          8           0        5.127281    3.722374    2.302415
    121          6           0        1.752875    3.673719    1.534973
    122          1           0        1.761359    3.603097    0.446258
    123          1           0        0.731160    3.909743    1.851815
    124          1           0        2.393406    4.513220    1.820860
    125          6           0        1.196268    1.240520    1.966775
    126          1           0        1.049883    1.085410    0.892161
    127          1           0        0.228645    1.495043    2.413593
    128          1           0        1.516057    0.280875    2.390712
    129          7           0        4.606311    3.359030    0.090994
    130          1           0        3.917712    2.915138   -0.522401
    131          6           0        4.934408    4.673556   -0.460519
    132          1           0        4.979550    5.387655    0.365590
    133          6           0        3.772988    5.069071   -1.423082
    134          6           0        6.268549    4.708713   -1.230133
    135          1           0        6.463419    5.757902   -1.471646
    136          1           0        6.144346    4.188137   -2.189647
    137          8           0        3.622536    6.249653   -1.712898
    138          6           0        7.455253    4.096801   -0.463474
    139          1           0        7.339881    4.306498    0.607525
    140          1           0        8.396692    4.558555   -0.789081
    141          6           0        7.525667    2.576689   -0.669681
    142          1           0        6.542614    2.167789   -0.420159
    143          1           0        7.722760    2.351240   -1.727041
    144          6           0        8.566814    1.892613    0.207792
    145          1           0        9.590313    1.996109   -0.162414
    146          1           0        8.509618    2.256188    1.235298
    147          7           0        8.239035    0.422511    0.296563
    148          1           0        8.850358   -0.126406    0.922262
    149          1           0        8.188329   -0.026970   -0.620786
    150          1           0        7.310629    0.375868    0.776714
    151          8           0        3.108635    4.036019   -1.842582
    152          1           0        1.751736    4.068748   -1.959616
 ---------------------------------------------------------------------

 SCF Done:  E(RB3LYP) =  -3474.11023088     A.U. after    3 cycles

 Alpha  occ. eigenvalues --  -19.23997 -19.23920 -19.22303 -19.20449 -19.20141
 Alpha  occ. eigenvalues --  -19.20032 -19.17772 -19.17516 -19.16999 -19.16674
 Alpha  occ. eigenvalues --  -19.15314 -19.14115 -19.11356 -19.09370 -14.57596
 Alpha  occ. eigenvalues --  -14.51820 -14.47878 -14.47461 -14.46327 -14.44171
 Alpha  occ. eigenvalues --  -14.43734 -14.43665 -14.42237 -14.40957 -14.40483
 Alpha  occ. eigenvalues --  -14.37235 -10.41619 -10.41318 -10.40016 -10.38740
 Alpha  occ. eigenvalues --  -10.37368 -10.37030 -10.36816 -10.34528 -10.34526
 Alpha  occ. eigenvalues --  -10.34337 -10.33620 -10.33259 -10.32590 -10.32209
 Alpha  occ. eigenvalues --  -10.31524 -10.31423 -10.30930 -10.30028 -10.29739
 Alpha  occ. eigenvalues --  -10.29461 -10.28532 -10.28472 -10.28077 -10.27815
 Alpha  occ. eigenvalues --  -10.25851 -10.25786 -10.25461 -10.25129 -10.24534
 Alpha  occ. eigenvalues --  -10.24085 -10.23974 -10.23966 -10.23627 -10.23445
 Alpha  occ. eigenvalues --  -10.23354 -10.23255 -10.23140 -10.23086 -10.22819
 Alpha  occ. eigenvalues --  -10.22467 -10.21798 -10.21517 -10.21330 -10.21079
 Alpha  occ. eigenvalues --  -10.20245  -1.17007  -1.15111  -1.13970  -1.12594
 Alpha  occ. eigenvalues --   -1.12364  -1.11688  -1.11610  -1.09841  -1.09701
 Alpha  occ. eigenvalues --   -1.09190  -1.08298  -1.07148  -1.05906  -1.04390
 Alpha  occ. eigenvalues --   -1.03642  -1.02640  -1.01063  -1.01020  -1.00892
 Alpha  occ. eigenvalues --   -1.00400  -1.00094  -0.98558  -0.98073  -0.97867
 Alpha  occ. eigenvalues --   -0.95749  -0.93776  -0.91460  -0.88723  -0.88643
 Alpha  occ. eigenvalues --   -0.87310  -0.87014  -0.86330  -0.85979  -0.85077
 Alpha  occ. eigenvalues --   -0.84814  -0.82064  -0.80961  -0.80949  -0.80442
 Alpha  occ. eigenvalues --   -0.79134  -0.78619  -0.78415  -0.76889  -0.76098
 Alpha  occ. eigenvalues --   -0.75243  -0.73948  -0.73400  -0.72706  -0.72520
 Alpha  occ. eigenvalues --   -0.72011  -0.71680  -0.71665  -0.71188  -0.70302
 Alpha  occ. eigenvalues --   -0.69788  -0.69571  -0.69414  -0.69122  -0.68778
 Alpha  occ. eigenvalues --   -0.68049  -0.67454  -0.66297  -0.65876  -0.65706
 Alpha  occ. eigenvalues --   -0.65299  -0.65091  -0.64723  -0.64539  -0.64342
 Alpha  occ. eigenvalues --   -0.63147  -0.62597  -0.62017  -0.61832  -0.61746
 Alpha  occ. eigenvalues --   -0.61355  -0.60886  -0.60727  -0.60080  -0.59938
 Alpha  occ. eigenvalues --   -0.59816  -0.59659  -0.59133  -0.58225  -0.57703
 Alpha  occ. eigenvalues --   -0.57352  -0.57228  -0.56594  -0.56043  -0.56016
 Alpha  occ. eigenvalues --   -0.55070  -0.54828  -0.54451  -0.54409  -0.54146
 Alpha  occ. eigenvalues --   -0.53837  -0.53699  -0.53472  -0.53196  -0.53055
 Alpha  occ. eigenvalues --   -0.52929  -0.52830  -0.52516  -0.52186  -0.52022
 Alpha  occ. eigenvalues --   -0.51645  -0.51494  -0.51237  -0.50905  -0.50631
 Alpha  occ. eigenvalues --   -0.50597  -0.50441  -0.50237  -0.49974  -0.49917
 Alpha  occ. eigenvalues --   -0.49225  -0.49048  -0.48875  -0.48618  -0.48479
 Alpha  occ. eigenvalues --   -0.48390  -0.48144  -0.47854  -0.47759  -0.47622
 Alpha  occ. eigenvalues --   -0.47502  -0.47359  -0.47183  -0.46993  -0.46880
 Alpha  occ. eigenvalues --   -0.46634  -0.46237  -0.46187  -0.45961  -0.45845
 Alpha  occ. eigenvalues --   -0.45769  -0.45259  -0.45253  -0.44996  -0.44586
 Alpha  occ. eigenvalues --   -0.44417  -0.44332  -0.44050  -0.43790  -0.43619
 Alpha  occ. eigenvalues --   -0.43396  -0.43133  -0.43058  -0.42768  -0.42354
 Alpha  occ. eigenvalues --   -0.42268  -0.41868  -0.41690  -0.41485  -0.41423
 Alpha  occ. eigenvalues --   -0.41379  -0.41136  -0.40864  -0.40653  -0.40392
 Alpha  occ. eigenvalues --   -0.40043  -0.39818  -0.39578  -0.39381  -0.39199
 Alpha  occ. eigenvalues --   -0.39085  -0.38730  -0.38552  -0.38433  -0.38236
 Alpha  occ. eigenvalues --   -0.38146  -0.38034  -0.37887  -0.37563  -0.37536
 Alpha  occ. eigenvalues --   -0.37433  -0.37152  -0.36924  -0.36857  -0.36742
 Alpha  occ. eigenvalues --   -0.36684  -0.36507  -0.36390  -0.35779  -0.34687
 Alpha  occ. eigenvalues --   -0.34216  -0.34124  -0.33726  -0.33260  -0.33115
 Alpha  occ. eigenvalues --   -0.32245  -0.31966  -0.31880  -0.31705  -0.30875
 Alpha  occ. eigenvalues --   -0.29903  -0.29173  -0.29063  -0.28844  -0.28082
 Alpha  occ. eigenvalues --   -0.26342  -0.26023  -0.22749
 Alpha virt. eigenvalues --   -0.11083  -0.10474  -0.08433  -0.07715  -0.06992
 Alpha virt. eigenvalues --   -0.05838  -0.05812  -0.04183  -0.03963  -0.03358
 Alpha virt. eigenvalues --   -0.03230  -0.02685  -0.02502  -0.02034  -0.01029

 Mulliken charges:
               1
     1  N   -0.747325
     2  H    0.447384
     3  H    0.402066
     4  H    0.409565
     5  C   -0.108946
     6  H    0.211511
     7  C    0.648746
     8  C   -0.465041
     9  H    0.212580
    10  H    0.196482
    11  H    0.180802
    12  O   -0.541831
    13  N   -0.584148
    14  H    0.366754
    15  C   -0.075868
    16  H    0.198663
    17  C    0.637980
    18  C   -0.360739
    19  H    0.179406
    20  H    0.212204
    21  O   -0.534608
    22  C    0.640127
    23  N   -0.717741
    24  H    0.358844
    25  H    0.367235
    26  O   -0.581234
    27  N   -0.630430
    28  H    0.356290
    29  C   -0.029670
    30  H    0.196258
    31  C    0.586159
    32  C   -0.287130
    33  H    0.148298
    34  H    0.184359
    35  O   -0.565067
    36  C   -0.370884
    37  H    0.171043
    38  H    0.198147
    39  C    0.616874
    40  O   -0.551043
    41  O   -0.598857
    42  N   -0.621725
    43  H    0.418098
    44  C   -0.087040
    45  H    0.173345
    46  C    0.637015
    47  C   -0.269024
    48  H    0.163606
    49  H    0.150915
    50  O   -0.538590
    51  C   -0.106918
    52  H    0.154908
    53  C   -0.452135
    54  H    0.149069
    55  H    0.127635
    56  H    0.159769
    57  C   -0.454846
    58  H    0.148319
    59  H    0.143563
    60  H    0.149414
    61  N   -0.605462
    62  H    0.344672
    63  C   -0.045493
    64  H    0.171333
    65  C    0.642362
    66  C   -0.282298
    67  H    0.141418
    68  H    0.150950
    69  O   -0.558103
    70  C   -0.083167
    71  H    0.151396
    72  C   -0.453984
    73  H    0.141833
    74  H    0.144801
    75  H    0.150037
    76  C   -0.445165
    77  H    0.140029
    78  H    0.146447
    79  H    0.148255
    80  N   -0.612669
    81  H    0.379488
    82  C   -0.052530
    83  H    0.177484
    84  C    0.628459
    85  C   -0.090010
    86  H    0.189980
    87  O   -0.539390
    88  C   -0.289706
    89  H    0.115424
    90  H    0.157429
    91  C   -0.538938
    92  H    0.143835
    93  H    0.208070
    94  H    0.160397
    95  C   -0.479918
    96  H    0.144882
    97  H    0.136615
    98  H    0.182634
    99  N   -0.621450
   100  H    0.376061
   101  C   -0.062463
   102  H    0.189164
   103  C    0.675094
   104  C   -0.391002
   105  H    0.210767
   106  H    0.180483
   107  O   -0.613397
   108  C    0.647506
   109  N   -0.734718
   110  H    0.368338
   111  H    0.352702
   112  O   -0.571699
   113  N   -0.589594
   114  H    0.370721
   115  C   -0.032832
   116  H    0.178578
   117  C    0.619800
   118  C   -0.104202
   119  H    0.139352
   120  O   -0.557085
   121  C   -0.491878
   122  H    0.183054
   123  H    0.140902
   124  H    0.173884
   125  C   -0.492061
   126  H    0.190220
   127  H    0.141105
   128  H    0.155043
   129  N   -0.615139
   130  H    0.363092
   131  C   -0.055188
   132  H    0.169868
   133  C    0.600904
   134  C   -0.274345
   135  H    0.168414
   136  H    0.138607
   137  O   -0.527016
   138  C   -0.273594
   139  H    0.169151
   140  H    0.133247
   141  C   -0.292350
   142  H    0.193565
   143  H    0.141176
   144  C   -0.182210
   145  H    0.181450
   146  H    0.208642
   147  N   -0.787737
   148  H    0.405400
   149  H    0.392230
   150  H    0.457167
   151  O   -0.670416
   152  H    0.480691
 Sum of Mulliken charges =   1.00000

 Dipole moment (field-independent basis, Debye):
    X=            -10.9786    Y=             -1.3500    Z=            -13.1218  Tot=             17.1620
 Quadrupole moment (field-independent basis, Debye-Ang):
   XX=             55.3526   YY=           -442.2918   ZZ=           -258.5844
   XY=           -117.8778   XZ=            233.2155   YZ=            -26.4520

 Normal termination of Gaussian 16 at Mon Jul 18 05:00:00 2022.
