 Gaussian 16, Revision C.01,
 Gaussian 16:  ES64L-G16RevC.01  3-Jul-2019

 ----------------------------------------------------------------------
 # B3LYP/6-31G* empiricaldispersion=gd3bj guess=read geom=check nosymm
 integral(ultrafinegrid)
 ----------------------------------------------------------------------

 ------------------------------------------------------
 Candidate Structure: Conf:966 Charge calc in gas phase
 ------------------------------------------------------
 Structure from the checkpoint file:  "conf-966.chk"
 Charge =  1 Multiplicity = 1

                          Input orientation:
 ---------------------------------------------------------------------
 Center     Atomic      Atomic             Coordinates (Angstroms)
 Number     Number       Type             X           Y           Z
 ---------------------------------------------------------------------
      1          7           0       -9.409793   -3.497073   -4.498426
      2          1           0       -8.480513   -3.752211   -4.074755
      3          1           0       -9.895576   -4.309644   -4.885746
      4          1           0       -9.956221   -3.065746   -3.738218
      5          6           0       -9.158623   -2.400865   -5.513255
      6          1           0       -8.452305   -2.808759   -6.239054
      7          6           0       -8.509105   -1.329352   -4.618433
      8          6           0      -10.461242   -1.949713   -6.157020
      9          1           0      -10.249284   -1.168107   -6.892037
     10          1           0      -11.136976   -1.531875   -5.404267
     11          1           0      -10.960126   -2.773279   -6.678583
     12          8           0       -9.019762   -1.125331   -3.516500
     13          7           0       -7.379726   -0.763523   -5.064708
     14          1           0       -6.988584   -0.997734   -5.971897
     15          6           0       -6.410616   -0.217278   -4.130690
     16          1           0       -6.954240    0.276889   -3.323498
     17          6           0       -5.502305    0.739990   -4.912662
     18          6           0       -5.486584   -1.345111   -3.575058
     19          1           0       -4.770651   -0.898040   -2.882591
     20          1           0       -4.903770   -1.731102   -4.417184
     21          8           0       -5.219525    0.485383   -6.076276
     22          6           0       -6.220650   -2.525399   -2.964783
     23          7           0       -6.096000   -2.682698   -1.636232
     24          1           0       -6.515148   -3.490531   -1.194380
     25          1           0       -5.478813   -2.103908   -1.081327
     26          8           0       -6.879837   -3.316392   -3.665277
     27          7           0       -5.026227    1.799488   -4.207773
     28          1           0       -5.193701    1.756509   -3.209161
     29          6           0       -3.724669    2.369057   -4.550619
     30          1           0       -3.735391    2.654005   -5.604028
     31          6           0       -2.654337    1.286111   -4.299878
     32          6           0       -3.515113    3.602520   -3.645146
     33          1           0       -4.343186    4.293851   -3.836985
     34          1           0       -3.597706    3.275387   -2.600555
     35          8           0       -2.892707    0.342583   -3.538950
     36          6           0       -2.169387    4.346127   -3.764253
     37          1           0       -1.356262    3.688270   -3.438547
     38          1           0       -2.195753    5.210609   -3.097298
     39          6           0       -1.884894    4.812647   -5.168851
     40          8           0       -1.568458    4.084126   -6.098602
     41          8           0       -2.034086    6.136497   -5.328230
     42          7           0       -1.464587    1.466942   -4.896844
     43          1           0       -1.330465    2.306610   -5.462209
     44          6           0       -0.294094    0.748181   -4.408134
     45          1           0       -0.397831   -0.312991   -4.657587
     46          6           0       -0.221835    0.918898   -2.880061
     47          6           0        0.968908    1.337672   -5.054467
     48          1           0        0.949186    2.420966   -4.882828
     49          1           0        0.907903    1.180881   -6.139683
     50          8           0       -0.320597    2.033378   -2.361970
     51          6           0        2.301917    0.779585   -4.524895
     52          1           0        2.338963    0.963001   -3.442537
     53          6           0        2.456333   -0.728643   -4.758457
     54          1           0        2.359000   -0.972167   -5.824020
     55          1           0        1.719062   -1.319386   -4.205883
     56          1           0        3.443886   -1.067373   -4.427570
     57          6           0        3.465738    1.545999   -5.165145
     58          1           0        3.485969    1.392607   -6.251432
     59          1           0        3.384729    2.622729   -4.978528
     60          1           0        4.425156    1.205895   -4.761590
     61          7           0       -0.006340   -0.216042   -2.189521
     62          1           0        0.069095   -1.101469   -2.673686
     63          6           0        0.228286   -0.276549   -0.753761
     64          1           0        0.408768    0.746786   -0.419675
     65          6           0        1.477935   -1.155021   -0.607152
     66          6           0       -0.964040   -0.904418   -0.008906
     67          1           0       -1.003437   -1.962891   -0.295343
     68          1           0       -0.749965   -0.876604    1.068932
     69          8           0        1.497503   -2.272232   -1.130044
     70          6           0       -2.319082   -0.237466   -0.297759
     71          1           0       -2.456330   -0.226815   -1.383997
     72          6           0       -3.453433   -1.071055    0.314327
     73          1           0       -3.371533   -1.129734    1.406707
     74          1           0       -3.441774   -2.100132   -0.070197
     75          1           0       -4.430005   -0.613826    0.093594
     76          6           0       -2.378972    1.213915    0.194147
     77          1           0       -2.194494    1.276221    1.274593
     78          1           0       -1.645334    1.837204   -0.324197
     79          1           0       -3.371270    1.644138    0.005110
     80          7           0        2.512162   -0.609172    0.055021
     81          1           0        2.459203    0.315300    0.470809
     82          6           0        3.805859   -1.260557    0.185565
     83          1           0        3.644449   -2.288061    0.526001
     84          6           0        4.555821   -0.471870    1.265041
     85          6           0        4.548873   -1.303439   -1.183911
     86          1           0        3.813196   -1.744714   -1.866396
     87          8           0        4.167361    0.650817    1.612455
     88          6           0        5.784228   -2.219886   -1.197292
     89          1           0        6.183745   -2.195696   -2.219490
     90          1           0        6.571804   -1.796447   -0.561468
     91          6           0        4.899539    0.102560   -1.676886
     92          1           0        5.677099    0.560625   -1.058244
     93          1           0        4.028735    0.765906   -1.666078
     94          1           0        5.278160    0.061741   -2.703934
     95          6           0        5.510397   -3.677271   -0.807043
     96          1           0        6.378907   -4.304692   -1.033124
     97          1           0        4.652301   -4.075600   -1.361319
     98          1           0        5.302406   -3.801099    0.261151
     99          7           0        5.647726   -1.075575    1.774983
    100          1           0        5.744652   -2.082283    1.644813
    101          6           0        6.336015   -0.554858    2.958316
    102          1           0        5.578498   -0.151941    3.642040
    103          6           0        7.316550    0.585336    2.571975
    104          6           0        7.141651   -1.673248    3.636707
    105          1           0        7.522187   -1.290102    4.587202
    106          1           0        8.017555   -1.877203    3.012378
    107          8           0        8.529122    0.393824    2.517607
    108          6           0        6.373296   -2.971946    3.811743
    109          7           0        6.278026   -3.448162    5.078403
    110          1           0        6.756672   -3.016405    5.853850
    111          1           0        5.845094   -4.350846    5.219634
    112          8           0        5.870728   -3.568655    2.855988
    113          7           0        6.713013    1.762722    2.315082
    114          1           0        5.700962    1.831659    2.381313
    115          6           0        7.444680    2.963373    1.969323
    116          1           0        8.470415    2.829517    2.326416
    117          6           0        6.777528    4.138243    2.694064
    118          6           0        7.485406    3.224627    0.436184
    119          1           0        8.074759    4.141956    0.296119
    120          8           0        5.614453    4.080602    3.089442
    121          6           0        8.205461    2.082578   -0.288110
    122          1           0        7.658903    1.140925   -0.175695
    123          1           0        8.284179    2.300972   -1.358938
    124          1           0        9.211541    1.923232    0.111200
    125          6           0        6.081628    3.463871   -0.134396
    126          1           0        5.425600    2.611105    0.068379
    127          1           0        6.131108    3.602310   -1.219992
    128          1           0        5.611237    4.351121    0.300716
    129          7           0        7.551287    5.242063    2.816873
    130          1           0        8.475433    5.288646    2.402186
    131          6           0        7.036117    6.506739    3.307354
    132          1           0        6.052761    6.695050    2.861218
    133          6           0        8.016475    7.586618    2.884950
    134          6           0        6.863907    6.522545    4.847071
    135          1           0        6.260524    5.641044    5.082340
    136          1           0        6.265879    7.401184    5.110606
    137          8           0        7.636937    8.798242    3.263452
    138          6           0        8.159431    6.503750    5.686081
    139          1           0        8.893611    5.836077    5.215572
    140          1           0        7.908283    6.029791    6.641338
    141          6           0        8.810343    7.881597    6.001972
    142          1           0        8.053630    8.666440    5.888991
    143          1           0        9.091549    7.887090    7.060536
    144          6           0       10.061673    8.273424    5.174992
    145          1           0       10.937040    8.345975    5.834236
    146          1           0       10.283853    7.510564    4.427158
    147          7           0        9.862971    9.542797    4.426140
    148          1           0       10.670597    9.721641    3.831146
    149          1           0        9.794099   10.326329    5.075020
    150          1           0        8.500217    9.305202    3.510984
    151          8           0        9.090057    7.324452    2.360266
    152          1           0       -1.832394    6.337959   -6.262982
 ---------------------------------------------------------------------

 SCF Done:  E(RB3LYP) =  -3474.10931362     A.U. after    2 cycles

 Alpha  occ. eigenvalues --  -19.27397 -19.24359 -19.23943 -19.22074 -19.21462
 Alpha  occ. eigenvalues --  -19.19757 -19.19112 -19.17680 -19.17565 -19.17407
 Alpha  occ. eigenvalues --  -19.16902 -19.16481 -19.14940 -19.14773 -14.57774
 Alpha  occ. eigenvalues --  -14.48032 -14.47464 -14.45072 -14.42187 -14.42071
 Alpha  occ. eigenvalues --  -14.41833 -14.41051 -14.40884 -14.39044 -14.39043
 Alpha  occ. eigenvalues --  -14.38658 -10.41772 -10.41398 -10.40022 -10.39098
 Alpha  occ. eigenvalues --  -10.38404 -10.35711 -10.35104 -10.34851 -10.34625
 Alpha  occ. eigenvalues --  -10.34612 -10.34192 -10.33720 -10.32172 -10.31904
 Alpha  occ. eigenvalues --  -10.31814 -10.31467 -10.30124 -10.29541 -10.28818
 Alpha  occ. eigenvalues --  -10.28702 -10.28240 -10.28007 -10.26693 -10.26647
 Alpha  occ. eigenvalues --  -10.26141 -10.25607 -10.25013 -10.24877 -10.24690
 Alpha  occ. eigenvalues --  -10.24415 -10.24392 -10.24166 -10.23533 -10.22918
 Alpha  occ. eigenvalues --  -10.22516 -10.22416 -10.22406 -10.22153 -10.22141
 Alpha  occ. eigenvalues --  -10.22006 -10.21896 -10.21472 -10.20824 -10.20260
 Alpha  occ. eigenvalues --  -10.20241  -1.18494  -1.17366  -1.15024  -1.13625
 Alpha  occ. eigenvalues --   -1.12268  -1.12038  -1.11104  -1.09717  -1.09341
 Alpha  occ. eigenvalues --   -1.09238  -1.09063  -1.08219  -1.07141  -1.06416
 Alpha  occ. eigenvalues --   -1.04932  -1.03621  -1.02323  -1.01954  -0.99253
 Alpha  occ. eigenvalues --   -0.98674  -0.98017  -0.97583  -0.96423  -0.95844
 Alpha  occ. eigenvalues --   -0.95634  -0.94387  -0.91782  -0.89283  -0.87872
 Alpha  occ. eigenvalues --   -0.87222  -0.86575  -0.85815  -0.84272  -0.83289
 Alpha  occ. eigenvalues --   -0.82724  -0.82501  -0.81609  -0.80691  -0.79501
 Alpha  occ. eigenvalues --   -0.79031  -0.77708  -0.77517  -0.76046  -0.75095
 Alpha  occ. eigenvalues --   -0.74483  -0.73463  -0.73202  -0.72992  -0.72736
 Alpha  occ. eigenvalues --   -0.72220  -0.71696  -0.71455  -0.71290  -0.70801
 Alpha  occ. eigenvalues --   -0.69737  -0.69488  -0.68211  -0.67282  -0.66847
 Alpha  occ. eigenvalues --   -0.66826  -0.66177  -0.65567  -0.65419  -0.64750
 Alpha  occ. eigenvalues --   -0.64365  -0.64246  -0.64200  -0.63470  -0.63047
 Alpha  occ. eigenvalues --   -0.62198  -0.62139  -0.61767  -0.61492  -0.60901
 Alpha  occ. eigenvalues --   -0.60284  -0.59931  -0.59787  -0.59720  -0.59475
 Alpha  occ. eigenvalues --   -0.58796  -0.58573  -0.58207  -0.57373  -0.57120
 Alpha  occ. eigenvalues --   -0.56927  -0.56515  -0.56166  -0.55161  -0.54896
 Alpha  occ. eigenvalues --   -0.54731  -0.54548  -0.54322  -0.54142  -0.53724
 Alpha  occ. eigenvalues --   -0.53581  -0.53532  -0.53336  -0.53049  -0.52741
 Alpha  occ. eigenvalues --   -0.52285  -0.52089  -0.51981  -0.51906  -0.51489
 Alpha  occ. eigenvalues --   -0.51276  -0.51154  -0.50672  -0.50636  -0.50530
 Alpha  occ. eigenvalues --   -0.50286  -0.50185  -0.49734  -0.49532  -0.49509
 Alpha  occ. eigenvalues --   -0.49195  -0.48888  -0.48645  -0.48528  -0.48369
 Alpha  occ. eigenvalues --   -0.48312  -0.47779  -0.47521  -0.47415  -0.47308
 Alpha  occ. eigenvalues --   -0.47185  -0.47096  -0.46892  -0.46889  -0.46556
 Alpha  occ. eigenvalues --   -0.46210  -0.45955  -0.45904  -0.45678  -0.45311
 Alpha  occ. eigenvalues --   -0.45177  -0.44939  -0.44624  -0.44568  -0.44389
 Alpha  occ. eigenvalues --   -0.44225  -0.44121  -0.44001  -0.43810  -0.43680
 Alpha  occ. eigenvalues --   -0.43273  -0.43164  -0.42919  -0.42743  -0.42559
 Alpha  occ. eigenvalues --   -0.42478  -0.42087  -0.41934  -0.41755  -0.41320
 Alpha  occ. eigenvalues --   -0.41298  -0.41070  -0.40693  -0.40554  -0.40505
 Alpha  occ. eigenvalues --   -0.40311  -0.39590  -0.39514  -0.39440  -0.39122
 Alpha  occ. eigenvalues --   -0.38980  -0.38622  -0.38481  -0.38370  -0.38246
 Alpha  occ. eigenvalues --   -0.38050  -0.37901  -0.37751  -0.37486  -0.37377
 Alpha  occ. eigenvalues --   -0.37215  -0.37083  -0.36962  -0.36863  -0.36604
 Alpha  occ. eigenvalues --   -0.36307  -0.36072  -0.35885  -0.35817  -0.35596
 Alpha  occ. eigenvalues --   -0.34597  -0.33713  -0.33297  -0.33214  -0.32958
 Alpha  occ. eigenvalues --   -0.32275  -0.32239  -0.31903  -0.31193  -0.30965
 Alpha  occ. eigenvalues --   -0.30828  -0.30403  -0.30299  -0.29571  -0.29250
 Alpha  occ. eigenvalues --   -0.28634  -0.27932  -0.27733
 Alpha virt. eigenvalues --   -0.11459  -0.10519  -0.07950  -0.07284  -0.07146
 Alpha virt. eigenvalues --   -0.05544  -0.04216  -0.03701  -0.03395  -0.03197
 Alpha virt. eigenvalues --   -0.02903  -0.02623  -0.01827  -0.01562  -0.01355

 Mulliken charges:
               1
     1  N   -0.745246
     2  H    0.447161
     3  H    0.401372
     4  H    0.411240
     5  C   -0.107939
     6  H    0.207708
     7  C    0.654023
     8  C   -0.465048
     9  H    0.210516
    10  H    0.197629
    11  H    0.181022
    12  O   -0.536165
    13  N   -0.577045
    14  H    0.359109
    15  C   -0.098530
    16  H    0.197052
    17  C    0.647705
    18  C   -0.371336
    19  H    0.212554
    20  H    0.208665
    21  O   -0.520628
    22  C    0.638166
    23  N   -0.736378
    24  H    0.355578
    25  H    0.378114
    26  O   -0.591027
    27  N   -0.582040
    28  H    0.332786
    29  C   -0.084095
    30  H    0.205254
    31  C    0.640545
    32  C   -0.302819
    33  H    0.177262
    34  H    0.166788
    35  O   -0.563498
    36  C   -0.391860
    37  H    0.243141
    38  H    0.186161
    39  C    0.595950
    40  O   -0.484884
    41  O   -0.541969
    42  N   -0.642717
    43  H    0.396342
    44  C   -0.013631
    45  H    0.155238
    46  C    0.642527
    47  C   -0.296458
    48  H    0.156235
    49  H    0.152251
    50  O   -0.552671
    51  C   -0.094143
    52  H    0.150086
    53  C   -0.454178
    54  H    0.143712
    55  H    0.138402
    56  H    0.159534
    57  C   -0.449144
    58  H    0.144647
    59  H    0.147762
    60  H    0.154511
    61  N   -0.588215
    62  H    0.351510
    63  C   -0.069714
    64  H    0.178630
    65  C    0.635989
    66  C   -0.260968
    67  H    0.150846
    68  H    0.141971
    69  O   -0.557838
    70  C   -0.101301
    71  H    0.183381
    72  C   -0.467417
    73  H    0.160167
    74  H    0.134357
    75  H    0.119503
    76  C   -0.469524
    77  H    0.139923
    78  H    0.190366
    79  H    0.118120
    80  N   -0.625494
    81  H    0.360546
    82  C   -0.054223
    83  H    0.187408
    84  C    0.620606
    85  C   -0.088622
    86  H    0.167910
    87  O   -0.559269
    88  C   -0.272150
    89  H    0.138236
    90  H    0.147806
    91  C   -0.491238
    92  H    0.174088
    93  H    0.152428
    94  H    0.149790
    95  C   -0.478300
    96  H    0.151248
    97  H    0.154444
    98  H    0.171667
    99  N   -0.629230
   100  H    0.394103
   101  C   -0.056349
   102  H    0.175966
   103  C    0.636347
   104  C   -0.398292
   105  H    0.161393
   106  H    0.219964
   107  O   -0.537438
   108  C    0.614961
   109  N   -0.741457
   110  H    0.349613
   111  H    0.351955
   112  O   -0.530272
   113  N   -0.612342
   114  H    0.383380
   115  C   -0.068055
   116  H    0.173625
   117  C    0.632085
   118  C   -0.075349
   119  H    0.131322
   120  O   -0.546301
   121  C   -0.452870
   122  H    0.159955
   123  H    0.139327
   124  H    0.160762
   125  C   -0.474522
   126  H    0.165989
   127  H    0.139709
   128  H    0.158291
   129  N   -0.621531
   130  H    0.352294
   131  C   -0.029058
   132  H    0.181976
   133  C    0.599698
   134  C   -0.266875
   135  H    0.174650
   136  H    0.154164
   137  O   -0.609474
   138  C   -0.286292
   139  H    0.145693
   140  H    0.144497
   141  C   -0.281516
   142  H    0.157068
   143  H    0.143889
   144  C   -0.161219
   145  H    0.143299
   146  H    0.186578
   147  N   -0.772549
   148  H    0.335288
   149  H    0.324939
   150  H    0.455475
   151  O   -0.508345
   152  H    0.421114
 Sum of Mulliken charges =   1.00000

 Dipole moment (field-independent basis, Debye):
    X=            -23.8259    Y=             -4.1413    Z=            -10.3310  Tot=             26.2974
 Quadrupole moment (field-independent basis, Debye-Ang):
   XX=            -53.1720   YY=           -303.6295   ZZ=           -269.9791
   XY=            147.3720   XZ=            210.6301   YZ=             44.1019

 Normal termination of Gaussian 16 at Mon Jul 18 04:50:50 2022.
