 Gaussian 16, Revision C.01,
 Gaussian 16:  ES64L-G16RevC.01  3-Jul-2019

 ----------------------------------------------------------------------
 # B3LYP/6-31G* empiricaldispersion=gd3bj guess=read geom=check nosymm
 integral(ultrafinegrid)
 ----------------------------------------------------------------------

 ------------------------------------------------------
 Candidate Structure: Conf:472 Charge calc in gas phase
 ------------------------------------------------------
 Structure from the checkpoint file:  "conf-472.chk"
 Charge =  1 Multiplicity = 1

                          Input orientation:
 ---------------------------------------------------------------------
 Center     Atomic      Atomic             Coordinates (Angstroms)
 Number     Number       Type             X           Y           Z
 ---------------------------------------------------------------------
      1          7           0       -0.494548   -4.051651   -8.982540
      2          1           0       -0.242780   -3.813711   -7.990227
      3          1           0        0.334601   -4.184031   -9.567517
      4          1           0       -1.051147   -4.917511   -8.934560
      5          6           0       -1.424591   -2.969245   -9.492588
      6          1           0       -0.876532   -2.028663   -9.407560
      7          6           0       -2.568501   -3.061827   -8.467387
      8          6           0       -1.862735   -3.260649  -10.920502
      9          1           0       -2.521701   -2.459522  -11.266925
     10          1           0       -2.420035   -4.201372  -10.967955
     11          1           0       -1.007272   -3.308080  -11.602241
     12          8           0       -2.960141   -4.182651   -8.144609
     13          7           0       -2.997087   -1.911596   -7.925692
     14          1           0       -2.608453   -1.013461   -8.197193
     15          6           0       -3.640193   -1.906319   -6.628016
     16          1           0       -4.343912   -2.739305   -6.576782
     17          6           0       -4.303205   -0.536900   -6.446052
     18          6           0       -2.583945   -1.994634   -5.473600
     19          1           0       -3.106131   -2.062077   -4.514385
     20          1           0       -2.023179   -1.055482   -5.470041
     21          8           0       -3.815873    0.444622   -7.001242
     22          6           0       -1.544743   -3.093587   -5.629540
     23          7           0       -1.607544   -4.114037   -4.759801
     24          1           0       -0.892892   -4.830016   -4.783056
     25          1           0       -2.274862   -4.136193   -4.002031
     26          8           0       -0.666370   -3.020133   -6.507075
     27          7           0       -5.319623   -0.487194   -5.549823
     28          1           0       -5.552673   -1.347371   -5.066222
     29          6           0       -5.530069    0.731990   -4.743878
     30          1           0       -5.547259    1.580154   -5.432056
     31          6           0       -4.295593    0.773892   -3.826098
     32          6           0       -6.829697    0.630592   -3.957416
     33          1           0       -7.664736    0.499052   -4.651681
     34          1           0       -6.792235   -0.256833   -3.317388
     35          8           0       -4.206697   -0.005415   -2.870023
     36          6           0       -7.059144    1.859675   -3.080054
     37          1           0       -7.103254    2.782086   -3.672494
     38          1           0       -6.238214    1.994056   -2.364744
     39          6           0       -8.346507    1.740099   -2.292214
     40          8           0       -9.091518    0.786445   -2.312715
     41          8           0       -8.568422    2.843048   -1.544849
     42          7           0       -3.290665    1.580436   -4.222814
     43          1           0       -3.405025    2.101896   -5.082706
     44          6           0       -1.925123    1.403979   -3.716386
     45          1           0       -1.852399    0.349899   -3.428069
     46          6           0       -1.673943    2.202413   -2.422212
     47          6           0       -0.909517    1.720134   -4.813121
     48          1           0       -0.940163    2.795630   -5.023970
     49          1           0       -1.232441    1.200375   -5.727862
     50          8           0       -0.822382    3.081410   -2.349082
     51          6           0        0.542990    1.323265   -4.484703
     52          1           0        0.858281    1.940708   -3.639603
     53          6           0        0.690861   -0.151121   -4.083704
     54          1           0        0.334846   -0.819158   -4.881250
     55          1           0        0.157062   -0.388036   -3.156821
     56          1           0        1.746299   -0.390657   -3.911494
     57          6           0        1.445163    1.653229   -5.678975
     58          1           0        1.175233    1.049456   -6.556417
     59          1           0        1.365154    2.708997   -5.960629
     60          1           0        2.495282    1.447324   -5.444444
     61          7           0       -2.421557    1.791898   -1.359765
     62          1           0       -2.957134    0.938420   -1.500827
     63          6           0       -1.875914    2.001717   -0.021505
     64          1           0       -1.720154    3.073948    0.115698
     65          6           0       -0.529174    1.253482    0.032279
     66          6           0       -2.848574    1.451076    1.025645
     67          1           0       -3.810582    1.966423    0.904558
     68          1           0       -3.016713    0.389821    0.799725
     69          8           0       -0.440545    0.093913   -0.375045
     70          6           0       -2.373312    1.579313    2.482858
     71          1           0       -1.422713    1.035771    2.577911
     72          6           0       -2.131853    3.037184    2.895874
     73          1           0       -3.034643    3.641909    2.743097
     74          1           0       -1.317002    3.501718    2.330578
     75          1           0       -1.866367    3.098707    3.956951
     76          6           0       -3.391641    0.914097    3.416943
     77          1           0       -4.360472    1.426917    3.367197
     78          1           0       -3.553714   -0.135782    3.147529
     79          1           0       -3.051318    0.947025    4.457684
     80          7           0        0.515606    1.945733    0.534857
     81          1           0        0.434545    2.935177    0.732783
     82          6           0        1.869833    1.426078    0.474603
     83          1           0        1.843775    0.388110    0.815032
     84          6           0        2.716690    2.270288    1.415285
     85          6           0        2.418343    1.457641   -0.989555
     86          1           0        1.626467    0.966590   -1.564944
     87          8           0        2.390953    3.436134    1.688921
     88          6           0        3.701934    0.636456   -1.197790
     89          1           0        3.942072    0.695302   -2.267649
     90          1           0        4.552282    1.096885   -0.682013
     91          6           0        2.577841    2.889379   -1.510485
     92          1           0        3.346616    3.440906   -0.957509
     93          1           0        1.638464    3.445065   -1.449381
     94          1           0        2.880703    2.869424   -2.563091
     95          6           0        3.595706   -0.838964   -0.800000
     96          1           0        4.483819   -1.390059   -1.123642
     97          1           0        2.711401   -1.305597   -1.250608
     98          1           0        3.519493   -0.980241    0.284589
     99          7           0        3.836707    1.689826    1.888837
    100          1           0        4.117660    0.776054    1.534422
    101          6           0        4.978658    2.438718    2.387265
    102          1           0        4.894214    3.478809    2.057403
    103          6           0        6.230635    1.769970    1.773606
    104          6           0        5.168477    2.370742    3.918337
    105          1           0        6.195290    2.680110    4.157428
    106          1           0        5.079621    1.323518    4.232587
    107          8           0        6.160287    0.614751    1.353955
    108          6           0        4.280800    3.194163    4.829476
    109          7           0        3.294424    3.924450    4.308537
    110          1           0        3.009698    3.876930    3.322386
    111          1           0        2.733543    4.468674    4.951585
    112          8           0        4.506782    3.194983    6.060571
    113          7           0        7.342892    2.525355    1.830868
    114          1           0        7.266436    3.384588    2.373300
    115          6           0        8.667592    1.938913    2.044159
    116          1           0        8.562088    0.852005    1.989758
    117          6           0        9.077851    2.365289    3.471840
    118          6           0        9.708894    2.400700    0.998717
    119          1           0       10.667028    1.958871    1.300074
    120          8           0        8.425226    3.261940    4.056796
    121          6           0        9.328450    1.877404   -0.388956
    122          1           0        8.365036    2.290825   -0.711117
    123          1           0       10.084793    2.163237   -1.127683
    124          1           0        9.243975    0.784754   -0.394430
    125          6           0        9.878423    3.924299    1.002166
    126          1           0        8.948257    4.428058    0.709929
    127          1           0       10.654614    4.218363    0.288833
    128          1           0       10.175645    4.296499    1.987913
    129          7           0       10.142191    1.739509    3.958452
    130          1           0       10.748781    1.201900    3.293362
    131          6           0       11.111965    2.320839    4.892078
    132          1           0       10.987920    3.409969    4.903342
    133          6           0       12.530751    1.982614    4.235101
    134          6           0       11.068784    1.790581    6.324831
    135          1           0       12.057132    2.018440    6.736355
    136          1           0       10.973786    0.695862    6.305596
    137          8           0       13.510740    2.377595    4.876885
    138          6           0       10.003503    2.396973    7.246723
    139          1           0       10.062850    3.492410    7.186542
    140          1           0       10.236290    2.126212    8.287292
    141          6           0        8.565322    1.960921    6.933411
    142          1           0        8.302660    2.279957    5.920858
    143          1           0        8.500344    0.862932    6.985727
    144          6           0        7.594157    2.572858    7.930074
    145          1           0        7.868497    2.335695    8.962198
    146          1           0        7.531260    3.658460    7.823638
    147          7           0        6.188169    2.044946    7.720885
    148          1           0        5.588441    2.241681    8.527285
    149          1           0        6.212738    1.028672    7.597222
    150          1           0        5.669198    2.475841    6.882537
    151          8           0       12.451030    1.338663    3.145358
    152          1           0       -9.407621    2.694258   -1.068997
 ---------------------------------------------------------------------

 SCF Done:  E(RB3LYP) =  -3474.04163681     A.U. after    1 cycles

 Alpha  occ. eigenvalues --  -19.26459 -19.26266 -19.26115 -19.24668 -19.22057
 Alpha  occ. eigenvalues --  -19.20992 -19.20891 -19.20667 -19.19191 -19.18545
 Alpha  occ. eigenvalues --  -19.17821 -19.14958 -19.05820 -19.04526 -14.59523
 Alpha  occ. eigenvalues --  -14.52816 -14.50072 -14.49841 -14.48442 -14.46457
 Alpha  occ. eigenvalues --  -14.43873 -14.43237 -14.42506 -14.41967 -14.40778
 Alpha  occ. eigenvalues --  -14.35715 -10.43761 -10.43676 -10.41576 -10.40778
 Alpha  occ. eigenvalues --  -10.39282 -10.38863 -10.38090 -10.37581 -10.37151
 Alpha  occ. eigenvalues --  -10.35768 -10.35209 -10.34819 -10.34094 -10.33305
 Alpha  occ. eigenvalues --  -10.33303 -10.32279 -10.31666 -10.31486 -10.30892
 Alpha  occ. eigenvalues --  -10.30066 -10.29580 -10.28412 -10.28314 -10.27650
 Alpha  occ. eigenvalues --  -10.26764 -10.26276 -10.25981 -10.25382 -10.25343
 Alpha  occ. eigenvalues --  -10.25228 -10.24820 -10.24438 -10.24353 -10.23894
 Alpha  occ. eigenvalues --  -10.23594 -10.23464 -10.23304 -10.23241 -10.22673
 Alpha  occ. eigenvalues --  -10.22114 -10.21592 -10.20858 -10.19811 -10.19542
 Alpha  occ. eigenvalues --  -10.18979  -1.19325  -1.17460  -1.17255  -1.16709
 Alpha  occ. eigenvalues --   -1.13920  -1.13799  -1.12504  -1.12003  -1.11110
 Alpha  occ. eigenvalues --   -1.10230  -1.09513  -1.08553  -1.07504  -1.07051
 Alpha  occ. eigenvalues --   -1.05896  -1.04954  -1.04652  -1.02672  -1.00715
 Alpha  occ. eigenvalues --   -0.99254  -0.99064  -0.98830  -0.98516  -0.97979
 Alpha  occ. eigenvalues --   -0.93702  -0.93203  -0.91466  -0.89905  -0.89707
 Alpha  occ. eigenvalues --   -0.88957  -0.88091  -0.87383  -0.86108  -0.85903
 Alpha  occ. eigenvalues --   -0.84479  -0.83370  -0.83019  -0.82097  -0.81171
 Alpha  occ. eigenvalues --   -0.79685  -0.79521  -0.79163  -0.77903  -0.76129
 Alpha  occ. eigenvalues --   -0.75745  -0.74582  -0.74465  -0.74390  -0.74174
 Alpha  occ. eigenvalues --   -0.73784  -0.73218  -0.72750  -0.72149  -0.71609
 Alpha  occ. eigenvalues --   -0.71390  -0.70771  -0.70355  -0.69060  -0.68827
 Alpha  occ. eigenvalues --   -0.68425  -0.68221  -0.68166  -0.66915  -0.66848
 Alpha  occ. eigenvalues --   -0.66204  -0.65968  -0.65764  -0.65175  -0.64754
 Alpha  occ. eigenvalues --   -0.64045  -0.63815  -0.63316  -0.63141  -0.62918
 Alpha  occ. eigenvalues --   -0.62341  -0.61900  -0.61689  -0.61258  -0.61107
 Alpha  occ. eigenvalues --   -0.60673  -0.60638  -0.60084  -0.59733  -0.58924
 Alpha  occ. eigenvalues --   -0.58296  -0.58086  -0.57767  -0.57278  -0.57017
 Alpha  occ. eigenvalues --   -0.56374  -0.56343  -0.55937  -0.55881  -0.55697
 Alpha  occ. eigenvalues --   -0.55518  -0.55312  -0.55162  -0.54853  -0.54543
 Alpha  occ. eigenvalues --   -0.54021  -0.53909  -0.53671  -0.53608  -0.53127
 Alpha  occ. eigenvalues --   -0.53011  -0.52501  -0.52466  -0.52108  -0.51962
 Alpha  occ. eigenvalues --   -0.51759  -0.51236  -0.51032  -0.50722  -0.50577
 Alpha  occ. eigenvalues --   -0.50478  -0.50247  -0.49989  -0.49707  -0.49617
 Alpha  occ. eigenvalues --   -0.49242  -0.49184  -0.48825  -0.48684  -0.48397
 Alpha  occ. eigenvalues --   -0.48228  -0.48081  -0.47867  -0.47832  -0.47291
 Alpha  occ. eigenvalues --   -0.47146  -0.46919  -0.46673  -0.46652  -0.46557
 Alpha  occ. eigenvalues --   -0.46400  -0.46127  -0.45957  -0.45695  -0.45450
 Alpha  occ. eigenvalues --   -0.45011  -0.44947  -0.44874  -0.44701  -0.44521
 Alpha  occ. eigenvalues --   -0.44423  -0.43924  -0.43860  -0.43715  -0.43616
 Alpha  occ. eigenvalues --   -0.43102  -0.42907  -0.42488  -0.42230  -0.42132
 Alpha  occ. eigenvalues --   -0.41801  -0.41453  -0.41189  -0.41152  -0.40891
 Alpha  occ. eigenvalues --   -0.40821  -0.40659  -0.40562  -0.40254  -0.40143
 Alpha  occ. eigenvalues --   -0.39864  -0.39464  -0.39345  -0.39271  -0.39172
 Alpha  occ. eigenvalues --   -0.39100  -0.39006  -0.38780  -0.38752  -0.38545
 Alpha  occ. eigenvalues --   -0.38070  -0.37959  -0.37165  -0.36575  -0.36476
 Alpha  occ. eigenvalues --   -0.36289  -0.36234  -0.35724  -0.35438  -0.35313
 Alpha  occ. eigenvalues --   -0.35234  -0.35007  -0.34692  -0.34633  -0.34596
 Alpha  occ. eigenvalues --   -0.34239  -0.33503  -0.32773  -0.32188  -0.31975
 Alpha  occ. eigenvalues --   -0.31764  -0.31212  -0.30577  -0.28808  -0.27681
 Alpha  occ. eigenvalues --   -0.20763  -0.20736  -0.18656
 Alpha virt. eigenvalues --   -0.13374  -0.13086  -0.10458  -0.09518  -0.08288
 Alpha virt. eigenvalues --   -0.06532  -0.06350  -0.05903  -0.05878  -0.05286
 Alpha virt. eigenvalues --   -0.05212  -0.04858  -0.04549  -0.03952  -0.03404

 Mulliken charges:
               1
     1  N   -0.744764
     2  H    0.445832
     3  H    0.406267
     4  H    0.413474
     5  C   -0.110380
     6  H    0.210207
     7  C    0.654108
     8  C   -0.465896
     9  H    0.212635
    10  H    0.200256
    11  H    0.185990
    12  O   -0.532014
    13  N   -0.581567
    14  H    0.362635
    15  C   -0.074976
    16  H    0.206051
    17  C    0.628810
    18  C   -0.395341
    19  H    0.190645
    20  H    0.222538
    21  O   -0.525307
    22  C    0.661204
    23  N   -0.718178
    24  H    0.364500
    25  H    0.372216
    26  O   -0.589261
    27  N   -0.587634
    28  H    0.345854
    29  C   -0.058804
    30  H    0.181803
    31  C    0.615875
    32  C   -0.276735
    33  H    0.179987
    34  H    0.177140
    35  O   -0.562622
    36  C   -0.377712
    37  H    0.185271
    38  H    0.200247
    39  C    0.590946
    40  O   -0.454222
    41  O   -0.564509
    42  N   -0.586347
    43  H    0.357386
    44  C   -0.079600
    45  H    0.176430
    46  C    0.643051
    47  C   -0.293703
    48  H    0.164971
    49  H    0.125977
    50  O   -0.520803
    51  C   -0.099017
    52  H    0.191779
    53  C   -0.492416
    54  H    0.122346
    55  H    0.175973
    56  H    0.157998
    57  C   -0.444262
    58  H    0.118570
    59  H    0.155737
    60  H    0.152224
    61  N   -0.614639
    62  H    0.368169
    63  C   -0.040774
    64  H    0.165534
    65  C    0.634620
    66  C   -0.282557
    67  H    0.147110
    68  H    0.150844
    69  O   -0.567925
    70  C   -0.082652
    71  H    0.138196
    72  C   -0.449142
    73  H    0.148353
    74  H    0.137049
    75  H    0.148275
    76  C   -0.443379
    77  H    0.144944
    78  H    0.145780
    79  H    0.147536
    80  N   -0.608439
    81  H    0.360681
    82  C   -0.053948
    83  H    0.180319
    84  C    0.632612
    85  C   -0.100762
    86  H    0.170565
    87  O   -0.573255
    88  C   -0.279008
    89  H    0.136987
    90  H    0.156345
    91  C   -0.472293
    92  H    0.147561
    93  H    0.179473
    94  H    0.145987
    95  C   -0.455857
    96  H    0.162085
    97  H    0.147562
    98  H    0.139173
    99  N   -0.607201
   100  H    0.378970
   101  C   -0.099684
   102  H    0.188983
   103  C    0.603824
   104  C   -0.404111
   105  H    0.231129
   106  H    0.177050
   107  O   -0.531711
   108  C    0.638262
   109  N   -0.767048
   110  H    0.419872
   111  H    0.349227
   112  O   -0.596332
   113  N   -0.568263
   114  H    0.348456
   115  C   -0.095215
   116  H    0.179827
   117  C    0.603148
   118  C   -0.091799
   119  H    0.194920
   120  O   -0.599280
   121  C   -0.446331
   122  H    0.137268
   123  H    0.151035
   124  H    0.145591
   125  C   -0.466626
   126  H    0.129038
   127  H    0.158518
   128  H    0.169598
   129  N   -0.587086
   130  H    0.368478
   131  C   -0.086926
   132  H    0.143921
   133  C    0.586684
   134  C   -0.261550
   135  H    0.186434
   136  H    0.124054
   137  O   -0.567260
   138  C   -0.266627
   139  H    0.146713
   140  H    0.125607
   141  C   -0.301568
   142  H    0.218481
   143  H    0.127186
   144  C   -0.183837
   145  H    0.185799
   146  H    0.209610
   147  N   -0.762415
   148  H    0.393992
   149  H    0.386241
   150  H    0.447296
   151  O   -0.616236
   152  H    0.419897
 Sum of Mulliken charges =   1.00000

 Dipole moment (field-independent basis, Debye):
    X=            -25.9274    Y=            -11.8988    Z=            -24.7455  Tot=             37.7645
 Quadrupole moment (field-independent basis, Debye-Ang):
   XX=           -733.8611   YY=           -356.8406   ZZ=              7.2647
   XY=            -39.3232   XZ=             21.6953   YZ=            134.3444

 Normal termination of Gaussian 16 at Mon Jul 18 04:50:12 2022.
