 Gaussian 16, Revision C.01,
 Gaussian 16:  ES64L-G16RevC.01  3-Jul-2019

 ----------------------------------------------------------------------
 # B3LYP/6-31G* empiricaldispersion=gd3bj guess=read geom=check nosymm
 integral(ultrafinegrid)
 ----------------------------------------------------------------------

 ------------------------------------------------------
 Candidate Structure: Conf:474 Charge calc in gas phase
 ------------------------------------------------------
 Structure from the checkpoint file:  "conf-474.chk"
 Charge =  1 Multiplicity = 1

                          Input orientation:
 ---------------------------------------------------------------------
 Center     Atomic      Atomic             Coordinates (Angstroms)
 Number     Number       Type             X           Y           Z
 ---------------------------------------------------------------------
      1          7           0       -4.205610   -7.744100   -6.032158
      2          1           0       -3.392077   -8.297867   -6.310682
      3          1           0       -5.053353   -8.266098   -6.270855
      4          1           0       -4.175684   -7.541411   -4.975614
      5          6           0       -4.204862   -6.334600   -6.590335
      6          1           0       -3.298962   -6.216328   -7.189755
      7          6           0       -4.112903   -5.470915   -5.299794
      8          6           0       -5.455686   -6.063199   -7.420502
      9          1           0       -5.439653   -5.034295   -7.789058
     10          1           0       -6.361395   -6.184463   -6.816594
     11          1           0       -5.505849   -6.725204   -8.290477
     12          8           0       -4.106978   -6.072641   -4.211206
     13          7           0       -4.059063   -4.163726   -5.467708
     14          1           0       -4.075835   -3.706485   -6.384829
     15          6           0       -4.042195   -3.177975   -4.389420
     16          1           0       -4.795261   -3.434358   -3.640231
     17          6           0       -4.392857   -1.853730   -5.103993
     18          6           0       -2.656913   -3.117528   -3.713661
     19          1           0       -1.935181   -2.638434   -4.381857
     20          1           0       -2.324586   -4.144424   -3.524167
     21          8           0       -4.303080   -1.792588   -6.332741
     22          6           0       -2.686752   -2.369614   -2.378975
     23          7           0       -1.510543   -2.283367   -1.742529
     24          1           0       -1.400505   -1.748454   -0.871801
     25          1           0       -0.659430   -2.608480   -2.178053
     26          8           0       -3.744092   -1.911258   -1.921922
     27          7           0       -4.778681   -0.846208   -4.297345
     28          1           0       -4.630580   -1.039594   -3.300503
     29          6           0       -4.580649    0.533425   -4.722584
     30          1           0       -4.655719    0.540823   -5.814736
     31          6           0       -3.122043    0.895584   -4.338747
     32          6           0       -5.635126    1.461922   -4.104446
     33          1           0       -5.480225    1.539660   -3.025466
     34          1           0       -5.516257    2.472910   -4.511750
     35          8           0       -2.289822   -0.001367   -4.161190
     36          6           0       -7.066453    0.995772   -4.362600
     37          1           0       -7.160567   -0.073875   -4.137454
     38          1           0       -7.359237    1.113366   -5.411212
     39          6           0       -8.055581    1.727184   -3.480756
     40          8           0       -7.777886    2.351806   -2.479593
     41          8           0       -9.320757    1.578786   -3.927969
     42          7           0       -2.810656    2.197330   -4.173415
     43          1           0       -3.541387    2.895248   -4.195127
     44          6           0       -1.501069    2.607822   -3.647659
     45          1           0       -0.806552    1.829970   -3.974860
     46          6           0       -1.526968    2.587567   -2.101849
     47          6           0       -1.086316    3.966290   -4.212989
     48          1           0       -1.730921    4.742235   -3.781983
     49          1           0       -1.274666    3.943388   -5.294826
     50          8           0       -1.164781    3.545553   -1.422196
     51          6           0        0.386071    4.352934   -3.969717
     52          1           0        0.541247    4.396824   -2.887269
     53          6           0        1.365164    3.332686   -4.565111
     54          1           0        1.201580    3.208984   -5.643823
     55          1           0        1.278517    2.345849   -4.096650
     56          1           0        2.398681    3.666943   -4.423302
     57          6           0        0.644974    5.749415   -4.547519
     58          1           0        0.497371    5.759953   -5.635366
     59          1           0       -0.029776    6.492725   -4.108328
     60          1           0        1.672874    6.070615   -4.347842
     61          7           0       -1.999893    1.434956   -1.558156
     62          1           0       -2.116234    0.622644   -2.154766
     63          6           0       -2.080337    1.259386   -0.106432
     64          1           0       -2.108224    2.268481    0.307443
     65          6           0       -0.756069    0.593174    0.290443
     66          6           0       -3.322767    0.477409    0.320172
     67          1           0       -3.184019   -0.585119    0.109086
     68          1           0       -3.417897    0.574232    1.409691
     69          8           0       -0.628583   -0.635774    0.389098
     70          6           0       -4.611922    0.953368   -0.366765
     71          1           0       -4.468827    0.785443   -1.442197
     72          6           0       -5.803360    0.095600    0.070302
     73          1           0       -5.994550    0.208104    1.144744
     74          1           0       -5.616400   -0.963882   -0.134298
     75          1           0       -6.711595    0.401530   -0.461921
     76          6           0       -4.895624    2.445362   -0.156077
     77          1           0       -5.023299    2.668645    0.910780
     78          1           0       -4.084691    3.078525   -0.533172
     79          1           0       -5.816938    2.736082   -0.671802
     80          7           0        0.267503    1.460809    0.396861
     81          1           0        0.091321    2.450411    0.242877
     82          6           0        1.664139    1.065773    0.459111
     83          1           0        1.701543    0.043192    0.840410
     84          6           0        2.365848    2.030909    1.409216
     85          6           0        2.338649    1.154344   -0.941561
     86          1           0        2.138191    2.174323   -1.296788
     87          8           0        2.145070    3.244050    1.329814
     88          6           0        1.707103    0.186973   -1.962158
     89          1           0        0.633199    0.391395   -2.043445
     90          1           0        2.137954    0.427898   -2.942826
     91          6           0        3.863380    0.982463   -0.851194
     92          1           0        4.155564    0.079372   -0.305210
     93          1           0        4.330850    1.832312   -0.345316
     94          1           0        4.294808    0.921142   -1.856160
     95          6           0        1.915960   -1.303294   -1.675826
     96          1           0        1.515594   -1.904949   -2.502446
     97          1           0        1.405689   -1.605284   -0.756367
     98          1           0        2.976935   -1.557160   -1.583838
     99          7           0        3.235547    1.476672    2.277994
    100          1           0        3.481708    0.495825    2.168064
    101          6           0        4.298761    2.239069    2.917901
    102          1           0        4.321585    3.234072    2.463951
    103          6           0        5.603792    1.485608    2.598505
    104          6           0        4.130142    2.345675    4.442041
    105          1           0        5.013387    2.841658    4.864388
    106          1           0        4.103006    1.341740    4.876105
    107          8           0        5.576956    0.288087    2.306784
    108          6           0        2.910588    3.094447    4.992651
    109          7           0        2.282409    3.970763    4.159403
    110          1           0        2.334235    3.907921    3.144453
    111          1           0        1.457671    4.410357    4.546841
    112          8           0        2.598682    2.946492    6.166189
    113          7           0        6.722680    2.229723    2.679562
    114          1           0        6.690254    3.156931    3.099943
    115          6           0        8.060793    1.661481    2.698639
    116          1           0        7.979530    0.610387    2.995659
    117          6           0        8.834254    2.461220    3.762913
    118          6           0        8.768663    1.735896    1.319679
    119          1           0        9.760227    1.284445    1.463441
    120          8           0        8.388932    3.532925    4.186826
    121          6           0        8.015706    0.913348    0.268650
    122          1           0        7.033375    1.351624    0.062555
    123          1           0        8.579557    0.894066   -0.670708
    124          1           0        7.852441   -0.116323    0.600618
    125          6           0        8.961057    3.184472    0.857379
    126          1           0        7.991560    3.679171    0.728498
    127          1           0        9.480896    3.210610   -0.106002
    128          1           0        9.545063    3.771049    1.573401
    129          7           0       10.007729    1.933356    4.143877
    130          1           0       10.353348    1.051597    3.777518
    131          6           0       10.937265    2.596993    5.046728
    132          1           0       11.056979    3.640135    4.743342
    133          6           0       12.272665    1.846026    4.987327
    134          6           0       10.440350    2.553302    6.516488
    135          1           0        9.383889    2.832975    6.502259
    136          1           0       10.967579    3.332352    7.076599
    137          8           0       13.251631    2.369847    5.575546
    138          6           0       10.634626    1.185050    7.213856
    139          1           0       10.605009    0.390898    6.458213
    140          1           0        9.782023    0.998629    7.874394
    141          6           0       11.936580    1.083646    8.059493
    142          1           0       12.543477    1.983665    7.920950
    143          1           0       11.673089    1.053742    9.122841
    144          6           0       12.835596   -0.135670    7.822754
    145          1           0       13.551154   -0.233317    8.643794
    146          1           0       12.258270   -1.063017    7.760997
    147          7           0       13.643957   -0.025163    6.559718
    148          1           0       14.432638   -0.672160    6.537341
    149          1           0       13.950989    0.969482    6.382057
    150          1           0       13.057140   -0.115546    5.666973
    151          8           0       12.224484    0.663324    4.506227
    152          1           0       -9.897322    2.047824   -3.294699
 ---------------------------------------------------------------------

 SCF Done:  E(RB3LYP) =  -3474.10028670     A.U. after    2 cycles

 Alpha  occ. eigenvalues --  -19.27734 -19.26302 -19.22213 -19.20840 -19.20709
 Alpha  occ. eigenvalues --  -19.20233 -19.18598 -19.18389 -19.17778 -19.16757
 Alpha  occ. eigenvalues --  -19.15318 -19.14485 -19.13771 -19.12836 -14.60579
 Alpha  occ. eigenvalues --  -14.49930 -14.46942 -14.45122 -14.44384 -14.42651
 Alpha  occ. eigenvalues --  -14.42413 -14.41921 -14.41474 -14.40266 -14.38924
 Alpha  occ. eigenvalues --  -14.36910 -10.44253 -10.41975 -10.39052 -10.38879
 Alpha  occ. eigenvalues --  -10.37882 -10.37760 -10.35457 -10.35021 -10.34709
 Alpha  occ. eigenvalues --  -10.34568 -10.34516 -10.33653 -10.32360 -10.32219
 Alpha  occ. eigenvalues --  -10.31646 -10.31127 -10.30357 -10.30248 -10.29596
 Alpha  occ. eigenvalues --  -10.28869 -10.28792 -10.28580 -10.27828 -10.27694
 Alpha  occ. eigenvalues --  -10.27012 -10.25365 -10.25223 -10.24640 -10.24237
 Alpha  occ. eigenvalues --  -10.24094 -10.23797 -10.23663 -10.23465 -10.23430
 Alpha  occ. eigenvalues --  -10.23329 -10.23074 -10.22766 -10.22686 -10.22593
 Alpha  occ. eigenvalues --  -10.21846 -10.21758 -10.21445 -10.21358 -10.20828
 Alpha  occ. eigenvalues --  -10.20764  -1.20171  -1.17288  -1.14652  -1.14106
 Alpha  occ. eigenvalues --   -1.12687  -1.11654  -1.10629  -1.09978  -1.09433
 Alpha  occ. eigenvalues --   -1.08546  -1.08287  -1.08007  -1.06959  -1.06739
 Alpha  occ. eigenvalues --   -1.04854  -1.02177  -1.02063  -1.01318  -0.99327
 Alpha  occ. eigenvalues --   -0.98626  -0.98427  -0.98278  -0.98125  -0.97150
 Alpha  occ. eigenvalues --   -0.95478  -0.94206  -0.91911  -0.89784  -0.87950
 Alpha  occ. eigenvalues --   -0.87216  -0.86819  -0.85893  -0.85139  -0.84483
 Alpha  occ. eigenvalues --   -0.82935  -0.82588  -0.82455  -0.81244  -0.80064
 Alpha  occ. eigenvalues --   -0.79974  -0.79039  -0.78586  -0.76199  -0.76116
 Alpha  occ. eigenvalues --   -0.75008  -0.73936  -0.73599  -0.73414  -0.73119
 Alpha  occ. eigenvalues --   -0.72531  -0.72008  -0.71898  -0.71688  -0.71372
 Alpha  occ. eigenvalues --   -0.70051  -0.69394  -0.68648  -0.67815  -0.67599
 Alpha  occ. eigenvalues --   -0.67322  -0.66303  -0.65592  -0.65432  -0.65114
 Alpha  occ. eigenvalues --   -0.64674  -0.64408  -0.63987  -0.63332  -0.62522
 Alpha  occ. eigenvalues --   -0.62341  -0.62072  -0.61969  -0.61640  -0.61222
 Alpha  occ. eigenvalues --   -0.61118  -0.60675  -0.60553  -0.60039  -0.59913
 Alpha  occ. eigenvalues --   -0.59471  -0.58758  -0.58422  -0.58288  -0.57732
 Alpha  occ. eigenvalues --   -0.57316  -0.56530  -0.56336  -0.55725  -0.55422
 Alpha  occ. eigenvalues --   -0.55269  -0.55177  -0.54934  -0.54549  -0.54470
 Alpha  occ. eigenvalues --   -0.54263  -0.54011  -0.53808  -0.53478  -0.53060
 Alpha  occ. eigenvalues --   -0.53026  -0.52715  -0.52416  -0.52183  -0.51932
 Alpha  occ. eigenvalues --   -0.51518  -0.51368  -0.50958  -0.50875  -0.50754
 Alpha  occ. eigenvalues --   -0.50541  -0.50489  -0.50130  -0.49992  -0.49526
 Alpha  occ. eigenvalues --   -0.49400  -0.49097  -0.48960  -0.48933  -0.48718
 Alpha  occ. eigenvalues --   -0.48578  -0.47897  -0.47819  -0.47664  -0.47534
 Alpha  occ. eigenvalues --   -0.47246  -0.47023  -0.46707  -0.46431  -0.46320
 Alpha  occ. eigenvalues --   -0.46002  -0.45754  -0.45625  -0.45417  -0.45204
 Alpha  occ. eigenvalues --   -0.45089  -0.44880  -0.44824  -0.44783  -0.44382
 Alpha  occ. eigenvalues --   -0.44207  -0.44060  -0.43979  -0.43936  -0.43818
 Alpha  occ. eigenvalues --   -0.43639  -0.43360  -0.43086  -0.42978  -0.42967
 Alpha  occ. eigenvalues --   -0.42432  -0.42352  -0.42239  -0.42025  -0.41883
 Alpha  occ. eigenvalues --   -0.41762  -0.41638  -0.41551  -0.41308  -0.40924
 Alpha  occ. eigenvalues --   -0.40723  -0.40599  -0.40318  -0.39948  -0.39020
 Alpha  occ. eigenvalues --   -0.38814  -0.38605  -0.38496  -0.38351  -0.38075
 Alpha  occ. eigenvalues --   -0.38004  -0.37906  -0.37867  -0.37664  -0.37381
 Alpha  occ. eigenvalues --   -0.37318  -0.37186  -0.37130  -0.36965  -0.36916
 Alpha  occ. eigenvalues --   -0.36657  -0.36324  -0.35808  -0.35505  -0.34829
 Alpha  occ. eigenvalues --   -0.34423  -0.34323  -0.34043  -0.33672  -0.32810
 Alpha  occ. eigenvalues --   -0.32033  -0.31471  -0.31099  -0.30735  -0.30439
 Alpha  occ. eigenvalues --   -0.30355  -0.30109  -0.29725  -0.29131  -0.28501
 Alpha  occ. eigenvalues --   -0.28245  -0.27503  -0.26543
 Alpha virt. eigenvalues --   -0.13011  -0.11728  -0.08547  -0.07266  -0.06869
 Alpha virt. eigenvalues --   -0.06036  -0.05660  -0.05342  -0.05103  -0.03993
 Alpha virt. eigenvalues --   -0.02958  -0.02514  -0.02045  -0.01378  -0.01285

 Mulliken charges:
               1
     1  N   -0.759970
     2  H    0.417216
     3  H    0.415162
     4  H    0.439078
     5  C   -0.104574
     6  H    0.227477
     7  C    0.655414
     8  C   -0.484288
     9  H    0.221516
    10  H    0.196190
    11  H    0.197090
    12  O   -0.543947
    13  N   -0.618397
    14  H    0.377403
    15  C   -0.061446
    16  H    0.213275
    17  C    0.618511
    18  C   -0.382761
    19  H    0.205312
    20  H    0.188408
    21  O   -0.542567
    22  C    0.661051
    23  N   -0.797150
    24  H    0.425169
    25  H    0.346311
    26  O   -0.557746
    27  N   -0.611391
    28  H    0.400579
    29  C   -0.086113
    30  H    0.208158
    31  C    0.630879
    32  C   -0.325940
    33  H    0.212571
    34  H    0.155365
    35  O   -0.555658
    36  C   -0.357797
    37  H    0.197524
    38  H    0.183616
    39  C    0.588637
    40  O   -0.453394
    41  O   -0.562750
    42  N   -0.601346
    43  H    0.348214
    44  C   -0.086435
    45  H    0.201333
    46  C    0.636900
    47  C   -0.267553
    48  H    0.150460
    49  H    0.137933
    50  O   -0.529467
    51  C   -0.086322
    52  H    0.172197
    53  C   -0.466564
    54  H    0.139993
    55  H    0.145216
    56  H    0.154207
    57  C   -0.446727
    58  H    0.137573
    59  H    0.150751
    60  H    0.151326
    61  N   -0.631966
    62  H    0.376627
    63  C   -0.082975
    64  H    0.192448
    65  C    0.642148
    66  C   -0.286532
    67  H    0.169514
    68  H    0.148460
    69  O   -0.566207
    70  C   -0.061649
    71  H    0.100261
    72  C   -0.461093
    73  H    0.144862
    74  H    0.154511
    75  H    0.143993
    76  C   -0.480643
    77  H    0.145518
    78  H    0.146695
    79  H    0.175102
    80  N   -0.594495
    81  H    0.374451
    82  C   -0.064864
    83  H    0.178230
    84  C    0.627310
    85  C   -0.076504
    86  H    0.152226
    87  O   -0.558232
    88  C   -0.272874
    89  H    0.136370
    90  H    0.142970
    91  C   -0.484141
    92  H    0.166633
    93  H    0.164772
    94  H    0.151905
    95  C   -0.476711
    96  H    0.119914
    97  H    0.176765
    98  H    0.158816
    99  N   -0.575278
   100  H    0.357350
   101  C   -0.108896
   102  H    0.183683
   103  C    0.624750
   104  C   -0.356672
   105  H    0.189718
   106  H    0.181505
   107  O   -0.549104
   108  C    0.582165
   109  N   -0.780967
   110  H    0.384474
   111  H    0.333257
   112  O   -0.509127
   113  N   -0.601551
   114  H    0.360953
   115  C   -0.064883
   116  H    0.171736
   117  C    0.631863
   118  C   -0.072616
   119  H    0.135826
   120  O   -0.559835
   121  C   -0.446837
   122  H    0.151945
   123  H    0.140811
   124  H    0.155483
   125  C   -0.461508
   126  H    0.147330
   127  H    0.148261
   128  H    0.165937
   129  N   -0.617009
   130  H    0.355194
   131  C   -0.026896
   132  H    0.175801
   133  C    0.598957
   134  C   -0.273313
   135  H    0.174615
   136  H    0.157233
   137  O   -0.592851
   138  C   -0.296810
   139  H    0.150347
   140  H    0.149781
   141  C   -0.289496
   142  H    0.188970
   143  H    0.159824
   144  C   -0.173232
   145  H    0.177673
   146  H    0.183699
   147  N   -0.767371
   148  H    0.373115
   149  H    0.410116
   150  H    0.420117
   151  O   -0.627310
   152  H    0.419746
 Sum of Mulliken charges =   1.00000

 Dipole moment (field-independent basis, Debye):
    X=             -7.8614    Y=            -29.0249    Z=            -25.3370  Tot=             39.3219
 Quadrupole moment (field-independent basis, Debye-Ang):
   XX=           -145.9918   YY=           -230.0613   ZZ=           -207.2212
   XY=             50.7685   XZ=            227.5230   YZ=            132.7095

 Normal termination of Gaussian 16 at Mon Jul 18 04:50:53 2022.
