 Gaussian 16, Revision C.01,
 Gaussian 16:  ES64L-G16RevC.01  3-Jul-2019

 ----------------------------------------------------------------------
 # B3LYP/6-31G* empiricaldispersion=gd3bj guess=read geom=check nosymm
 integral(ultrafinegrid)
 ----------------------------------------------------------------------

 ------------------------------------------------------
 Candidate Structure: Conf:727 Charge calc in gas phase
 ------------------------------------------------------
 Structure from the checkpoint file:  "conf-727.chk"
 Charge =  1 Multiplicity = 1

                          Input orientation:
 ---------------------------------------------------------------------
 Center     Atomic      Atomic             Coordinates (Angstroms)
 Number     Number       Type             X           Y           Z
 ---------------------------------------------------------------------
      1          7           0       -9.686067   -2.320926   -8.812318
      2          1           0       -8.636561   -2.374944   -8.815954
      3          1           0      -10.058370   -1.972226   -9.699049
      4          1           0      -10.014832   -3.279674   -8.623501
      5          6           0      -10.097439   -1.489862   -7.613933
      6          1           0       -9.618350   -0.516155   -7.734496
      7          6           0       -9.463792   -2.305559   -6.472328
      8          6           0      -11.612635   -1.386594   -7.521652
      9          1           0      -11.880828   -0.773909   -6.656346
     10          1           0      -12.057650   -2.377171   -7.385478
     11          1           0      -12.039788   -0.913452   -8.412040
     12          8           0       -9.576896   -3.530751   -6.519667
     13          7           0       -8.751398   -1.629914   -5.560609
     14          1           0       -8.668369   -0.618181   -5.586719
     15          6           0       -7.691824   -2.288505   -4.821196
     16          1           0       -8.022379   -3.293876   -4.555413
     17          6           0       -7.350306   -1.422741   -3.603505
     18          6           0       -6.374224   -2.334217   -5.660432
     19          1           0       -5.605167   -2.841835   -5.071053
     20          1           0       -6.045517   -1.299279   -5.802553
     21          8           0       -7.457856   -0.204923   -3.688267
     22          6           0       -6.514049   -2.933222   -7.048495
     23          7           0       -5.888895   -4.105440   -7.254039
     24          1           0       -5.902666   -4.522397   -8.175688
     25          1           0       -5.312307   -4.533798   -6.543570
     26          8           0       -7.145303   -2.352815   -7.949287
     27          7           0       -6.841124   -2.100472   -2.540530
     28          1           0       -6.635265   -3.079615   -2.718299
     29          6           0       -5.780249   -1.487716   -1.737868
     30          1           0       -5.931421   -0.406406   -1.771133
     31          6           0       -4.463273   -1.883041   -2.438231
     32          6           0       -5.823058   -1.998484   -0.289549
     33          1           0       -6.848942   -1.874831    0.073963
     34          1           0       -5.598512   -3.070491   -0.277557
     35          8           0       -4.398274   -2.958294   -3.049305
     36          6           0       -4.849768   -1.252465    0.638804
     37          1           0       -5.076463   -0.183216    0.666187
     38          1           0       -3.814497   -1.365731    0.296739
     39          6           0       -4.920584   -1.756261    2.063838
     40          8           0       -5.165010   -1.087156    3.039544
     41          8           0       -4.667501   -3.089250    2.129115
     42          7           0       -3.456438   -1.001731   -2.352420
     43          1           0       -3.506255   -0.228350   -1.692415
     44          6           0       -2.096677   -1.289305   -2.782707
     45          1           0       -1.997115   -2.373295   -2.883364
     46          6           0       -1.187265   -0.775866   -1.649647
     47          6           0       -1.756246   -0.590551   -4.115538
     48          1           0       -0.712975   -0.816216   -4.372400
     49          1           0       -1.808012    0.492870   -3.946705
     50          8           0       -1.643651   -0.035036   -0.771683
     51          6           0       -2.665664   -0.962982   -5.298762
     52          1           0       -3.704044   -0.792336   -4.981092
     53          6           0       -2.378148   -0.037682   -6.487890
     54          1           0       -1.345276   -0.158394   -6.836963
     55          1           0       -2.519725    1.015431   -6.220217
     56          1           0       -3.040529   -0.264138   -7.331857
     57          6           0       -2.521544   -2.435170   -5.706007
     58          1           0       -1.488628   -2.658500   -6.001056
     59          1           0       -2.807376   -3.106404   -4.891702
     60          1           0       -3.161434   -2.657615   -6.570179
     61          7           0        0.091834   -1.165312   -1.717740
     62          1           0        0.449014   -1.753141   -2.467276
     63          6           0        1.121000   -0.719052   -0.791094
     64          1           0        0.984187    0.351652   -0.613284
     65          6           0        2.450116   -0.974766   -1.519373
     66          6           0        1.016869   -1.484114    0.549312
     67          1           0       -0.023227   -1.377859    0.880162
     68          1           0        1.183049   -2.548746    0.340394
     69          8           0        2.502937   -1.750224   -2.478931
     70          6           0        1.944582   -1.028823    1.690586
     71          1           0        2.988144   -1.183338    1.391437
     72          6           0        1.762407    0.454681    2.040970
     73          1           0        0.719511    0.666383    2.307884
     74          1           0        2.031098    1.124891    1.215921
     75          1           0        2.396607    0.729192    2.889702
     76          6           0        1.687769   -1.901858    2.926060
     77          1           0        0.660036   -1.773752    3.289009
     78          1           0        1.834810   -2.964684    2.701351
     79          1           0        2.366906   -1.631876    3.741892
     80          7           0        3.509912   -0.311647   -1.028928
     81          1           0        3.437748    0.234629   -0.176542
     82          6           0        4.879382   -0.558634   -1.447588
     83          1           0        4.944958   -1.591029   -1.801152
     84          6           0        5.728368   -0.356390   -0.190108
     85          6           0        5.292686    0.403665   -2.600709
     86          1           0        4.498867    0.272314   -3.348779
     87          8           0        5.276821    0.260305    0.781624
     88          6           0        6.628106    0.038866   -3.272255
     89          1           0        6.769044    0.745757   -4.100026
     90          1           0        7.452615    0.232492   -2.575929
     91          6           0        5.304307    1.864214   -2.133277
     92          1           0        6.117703    2.044763   -1.422136
     93          1           0        4.359164    2.140660   -1.654172
     94          1           0        5.452415    2.531502   -2.989259
     95          6           0        6.712414   -1.389018   -3.822181
     96          1           0        7.615660   -1.516195   -4.427735
     97          1           0        5.845696   -1.619141   -4.453499
     98          1           0        6.758182   -2.147395   -3.033260
     99          7           0        6.984511   -0.831753   -0.233938
    100          1           0        7.307832   -1.439834   -0.982805
    101          6           0        7.945426   -0.537207    0.813387
    102          1           0        7.708136   -1.113577    1.717761
    103          6           0        7.918189    0.977240    1.122901
    104          6           0        9.366119   -0.877242    0.323370
    105          1           0       10.065472   -0.705343    1.147471
    106          1           0        9.611451   -0.169043   -0.475885
    107          8           0        8.081431    1.797708    0.222825
    108          6           0        9.496238   -2.282615   -0.246714
    109          7           0       10.446266   -3.071213    0.314972
    110          1           0       11.073770   -2.739197    1.030907
    111          1           0       10.598516   -3.991778   -0.074391
    112          8           0        8.783012   -2.678853   -1.169684
    113          7           0        7.787944    1.290750    2.425262
    114          1           0        7.556589    0.588272    3.119091
    115          6           0        7.634179    2.657330    2.889793
    116          1           0        8.420073    3.268121    2.432299
    117          6           0        7.815209    2.599095    4.409851
    118          6           0        6.252096    3.252764    2.478377
    119          1           0        6.182500    3.049533    1.404809
    120          8           0        7.622419    1.552311    5.032313
    121          6           0        5.085909    2.545803    3.176355
    122          1           0        5.103316    2.711203    4.259985
    123          1           0        4.134587    2.931820    2.793597
    124          1           0        5.107917    1.470732    2.983860
    125          6           0        6.196035    4.772212    2.673359
    126          1           0        6.186137    5.057228    3.730955
    127          1           0        5.282348    5.173123    2.221590
    128          1           0        7.046113    5.272349    2.192436
    129          7           0        8.164157    3.758624    5.007193
    130          1           0        8.214513    4.623776    4.481316
    131          6           0        8.162992    3.917994    6.450585
    132          1           0        7.308812    3.374841    6.869731
    133          6           0        8.030037    5.403130    6.738306
    134          6           0        9.446924    3.359244    7.112013
    135          1           0        9.542098    2.332555    6.745790
    136          1           0        9.272194    3.299477    8.191281
    137          8           0        8.002179    5.671513    8.034437
    138          6           0       10.756209    4.130300    6.839065
    139          1           0       10.775830    4.466310    5.793545
    140          1           0       11.571922    3.404026    6.924762
    141          6           0       11.081860    5.317400    7.791205
    142          1           0       10.517600    5.190953    8.722176
    143          1           0       12.138735    5.246323    8.069593
    144          6           0       10.828196    6.745742    7.244414
    145          1           0       11.779987    7.286816    7.158450
    146          1           0       10.390198    6.704427    6.245810
    147          7           0        9.867351    7.505466    8.087458
    148          1           0        9.663647    8.404635    7.653608
    149          1           0       10.278951    7.702928    8.999206
    150          1           0        8.507977    6.562642    8.156458
    151          8           0        8.066797    6.244862    5.850797
    152          1           0       -4.726420   -3.331120    3.072762
 ---------------------------------------------------------------------

 SCF Done:  E(RB3LYP) =  -3474.09427367     A.U. after    3 cycles

 Alpha  occ. eigenvalues --  -19.24886 -19.24694 -19.24473 -19.22046 -19.20118
 Alpha  occ. eigenvalues --  -19.19857 -19.19099 -19.18045 -19.17292 -19.17034
 Alpha  occ. eigenvalues --  -19.16647 -19.16413 -19.15411 -19.14915 -14.58174
 Alpha  occ. eigenvalues --  -14.48400 -14.48196 -14.45141 -14.43843 -14.41823
 Alpha  occ. eigenvalues --  -14.41703 -14.40297 -14.40042 -14.39440 -14.39236
 Alpha  occ. eigenvalues --  -14.39123 -10.42113 -10.42017 -10.39431 -10.38938
 Alpha  occ. eigenvalues --  -10.37431 -10.36959 -10.35307 -10.35103 -10.35052
 Alpha  occ. eigenvalues --  -10.34740 -10.33610 -10.33106 -10.32343 -10.32292
 Alpha  occ. eigenvalues --  -10.32145 -10.31757 -10.30894 -10.30203 -10.28793
 Alpha  occ. eigenvalues --  -10.28347 -10.27166 -10.27117 -10.26810 -10.26469
 Alpha  occ. eigenvalues --  -10.26317 -10.25820 -10.25717 -10.25563 -10.25537
 Alpha  occ. eigenvalues --  -10.23885 -10.23797 -10.23085 -10.22948 -10.22832
 Alpha  occ. eigenvalues --  -10.22523 -10.22332 -10.22136 -10.22118 -10.21196
 Alpha  occ. eigenvalues --  -10.21192 -10.21100 -10.20461 -10.20423 -10.19954
 Alpha  occ. eigenvalues --  -10.19491  -1.17738  -1.15678  -1.15593  -1.14102
 Alpha  occ. eigenvalues --   -1.12418  -1.12386  -1.11901  -1.09950  -1.09242
 Alpha  occ. eigenvalues --   -1.08810  -1.08134  -1.07507  -1.06693  -1.06505
 Alpha  occ. eigenvalues --   -1.05313  -1.03748  -1.02970  -1.02213  -1.00508
 Alpha  occ. eigenvalues --   -0.98469  -0.97449  -0.97002  -0.96396  -0.96326
 Alpha  occ. eigenvalues --   -0.95931  -0.94473  -0.92143  -0.89639  -0.88286
 Alpha  occ. eigenvalues --   -0.87327  -0.86023  -0.84926  -0.84171  -0.83295
 Alpha  occ. eigenvalues --   -0.82909  -0.82477  -0.81726  -0.80555  -0.79284
 Alpha  occ. eigenvalues --   -0.79100  -0.77845  -0.76880  -0.75638  -0.74880
 Alpha  occ. eigenvalues --   -0.74488  -0.73237  -0.73089  -0.73032  -0.72177
 Alpha  occ. eigenvalues --   -0.72170  -0.71419  -0.71283  -0.71050  -0.70802
 Alpha  occ. eigenvalues --   -0.70036  -0.69773  -0.67960  -0.66987  -0.66644
 Alpha  occ. eigenvalues --   -0.66483  -0.66222  -0.65750  -0.65505  -0.65249
 Alpha  occ. eigenvalues --   -0.64726  -0.64280  -0.63891  -0.63481  -0.63266
 Alpha  occ. eigenvalues --   -0.63191  -0.62860  -0.62102  -0.61654  -0.60826
 Alpha  occ. eigenvalues --   -0.60345  -0.60142  -0.59976  -0.59418  -0.59058
 Alpha  occ. eigenvalues --   -0.58945  -0.58517  -0.57898  -0.57329  -0.56907
 Alpha  occ. eigenvalues --   -0.56342  -0.55709  -0.55219  -0.54838  -0.54743
 Alpha  occ. eigenvalues --   -0.54565  -0.54470  -0.54227  -0.53971  -0.53780
 Alpha  occ. eigenvalues --   -0.53696  -0.53613  -0.53190  -0.52881  -0.52416
 Alpha  occ. eigenvalues --   -0.52268  -0.51697  -0.51590  -0.51291  -0.51176
 Alpha  occ. eigenvalues --   -0.51016  -0.50859  -0.50773  -0.50706  -0.50572
 Alpha  occ. eigenvalues --   -0.50346  -0.50066  -0.49922  -0.49758  -0.49446
 Alpha  occ. eigenvalues --   -0.49368  -0.49001  -0.48695  -0.48655  -0.48310
 Alpha  occ. eigenvalues --   -0.48271  -0.47699  -0.47462  -0.47283  -0.47119
 Alpha  occ. eigenvalues --   -0.46973  -0.46781  -0.46598  -0.46487  -0.46317
 Alpha  occ. eigenvalues --   -0.45996  -0.45869  -0.45599  -0.45313  -0.45175
 Alpha  occ. eigenvalues --   -0.45106  -0.45063  -0.44732  -0.44519  -0.44403
 Alpha  occ. eigenvalues --   -0.44349  -0.43702  -0.43698  -0.43447  -0.43114
 Alpha  occ. eigenvalues --   -0.42853  -0.42848  -0.42516  -0.42462  -0.42255
 Alpha  occ. eigenvalues --   -0.42122  -0.41945  -0.41852  -0.41627  -0.41220
 Alpha  occ. eigenvalues --   -0.40963  -0.40671  -0.40448  -0.40353  -0.40262
 Alpha  occ. eigenvalues --   -0.39753  -0.39651  -0.39544  -0.39523  -0.39377
 Alpha  occ. eigenvalues --   -0.39228  -0.39150  -0.38967  -0.38502  -0.37653
 Alpha  occ. eigenvalues --   -0.37606  -0.37141  -0.37101  -0.37037  -0.36984
 Alpha  occ. eigenvalues --   -0.36783  -0.36563  -0.36376  -0.36273  -0.36179
 Alpha  occ. eigenvalues --   -0.36119  -0.36103  -0.35925  -0.35447  -0.35426
 Alpha  occ. eigenvalues --   -0.34017  -0.33810  -0.33644  -0.32809  -0.32495
 Alpha  occ. eigenvalues --   -0.31985  -0.31605  -0.31370  -0.31300  -0.30833
 Alpha  occ. eigenvalues --   -0.30682  -0.30536  -0.30096  -0.29833  -0.29315
 Alpha  occ. eigenvalues --   -0.29032  -0.28455  -0.27913
 Alpha virt. eigenvalues --   -0.11806  -0.11088  -0.08269  -0.07869  -0.06431
 Alpha virt. eigenvalues --   -0.04260  -0.03919  -0.03725  -0.03479  -0.03173
 Alpha virt. eigenvalues --   -0.02751  -0.02692  -0.01937  -0.01736  -0.01655

 Mulliken charges:
               1
     1  N   -0.745312
     2  H    0.447771
     3  H    0.402550
     4  H    0.412370
     5  C   -0.109672
     6  H    0.207988
     7  C    0.655752
     8  C   -0.465257
     9  H    0.211842
    10  H    0.198653
    11  H    0.182019
    12  O   -0.534964
    13  N   -0.578645
    14  H    0.359814
    15  C   -0.086125
    16  H    0.203387
    17  C    0.620824
    18  C   -0.395913
    19  H    0.219397
    20  H    0.206562
    21  O   -0.514098
    22  C    0.642227
    23  N   -0.720800
    24  H    0.360126
    25  H    0.375233
    26  O   -0.587309
    27  N   -0.570752
    28  H    0.342658
    29  C   -0.096597
    30  H    0.195040
    31  C    0.620369
    32  C   -0.281254
    33  H    0.176901
    34  H    0.178074
    35  O   -0.559746
    36  C   -0.365971
    37  H    0.180895
    38  H    0.196229
    39  C    0.567063
    40  O   -0.444216
    41  O   -0.563966
    42  N   -0.583413
    43  H    0.363399
    44  C   -0.088423
    45  H    0.187453
    46  C    0.637075
    47  C   -0.256236
    48  H    0.153303
    49  H    0.149785
    50  O   -0.554967
    51  C   -0.072417
    52  H    0.121635
    53  C   -0.444691
    54  H    0.153577
    55  H    0.149946
    56  H    0.133900
    57  C   -0.473910
    58  H    0.150405
    59  H    0.175387
    60  H    0.116196
    61  N   -0.620072
    62  H    0.358218
    63  C   -0.057277
    64  H    0.180251
    65  C    0.614626
    66  C   -0.254270
    67  H    0.161106
    68  H    0.140127
    69  O   -0.554758
    70  C   -0.098190
    71  H    0.145349
    72  C   -0.457078
    73  H    0.150004
    74  H    0.136448
    75  H    0.165657
    76  C   -0.445644
    77  H    0.141313
    78  H    0.141040
    79  H    0.152205
    80  N   -0.623371
    81  H    0.378352
    82  C   -0.077985
    83  H    0.182428
    84  C    0.648456
    85  C   -0.066120
    86  H    0.142979
    87  O   -0.562344
    88  C   -0.272982
    89  H    0.138378
    90  H    0.153720
    91  C   -0.487103
    92  H    0.198580
    93  H    0.136000
    94  H    0.143164
    95  C   -0.464311
    96  H    0.151257
    97  H    0.147531
    98  H    0.158100
    99  N   -0.639650
   100  H    0.397292
   101  C   -0.014177
   102  H    0.154861
   103  C    0.652336
   104  C   -0.403645
   105  H    0.156611
   106  H    0.216926
   107  O   -0.548330
   108  C    0.616705
   109  N   -0.742113
   110  H    0.349128
   111  H    0.353937
   112  O   -0.524212
   113  N   -0.612902
   114  H    0.352637
   115  C   -0.047171
   116  H    0.164320
   117  C    0.627948
   118  C   -0.079016
   119  H    0.175741
   120  O   -0.555982
   121  C   -0.465387
   122  H    0.143298
   123  H    0.139093
   124  H    0.176410
   125  C   -0.472081
   126  H    0.154794
   127  H    0.150869
   128  H    0.144061
   129  N   -0.620447
   130  H    0.358621
   131  C   -0.036800
   132  H    0.187342
   133  C    0.603815
   134  C   -0.264280
   135  H    0.170168
   136  H    0.157328
   137  O   -0.607707
   138  C   -0.286438
   139  H    0.144074
   140  H    0.145152
   141  C   -0.281892
   142  H    0.158722
   143  H    0.144849
   144  C   -0.161338
   145  H    0.144043
   146  H    0.185466
   147  N   -0.772921
   148  H    0.335810
   149  H    0.325981
   150  H    0.456076
   151  O   -0.509125
   152  H    0.416268
 Sum of Mulliken charges =   1.00000

 Dipole moment (field-independent basis, Debye):
    X=            -19.6876    Y=             -8.1678    Z=            -25.1337  Tot=             32.9548
 Quadrupole moment (field-independent basis, Debye-Ang):
   XX=             80.2218   YY=           -344.4331   ZZ=           -119.8558
   XY=            112.3456   XZ=            372.1381   YZ=            107.9649

 Normal termination of Gaussian 16 at Mon Jul 18 04:51:43 2022.
