 Gaussian 16, Revision C.01,
 Gaussian 16:  ES64L-G16RevC.01  3-Jul-2019

 ----------------------------------------------------------------------
 # B3LYP/6-31G* empiricaldispersion=gd3bj guess=read geom=check nosymm
 integral(ultrafinegrid)
 ----------------------------------------------------------------------

 ------------------------------------------------------
 Candidate Structure: Conf:234 Charge calc in gas phase
 ------------------------------------------------------
 Structure from the checkpoint file:  "conf-234.chk"
 Charge =  1 Multiplicity = 1

                          Input orientation:
 ---------------------------------------------------------------------
 Center     Atomic      Atomic             Coordinates (Angstroms)
 Number     Number       Type             X           Y           Z
 ---------------------------------------------------------------------
      1          7           0       -9.444522   -3.826068   -4.920133
      2          1           0       -8.774728   -4.602149   -4.764156
      3          1           0      -10.395745   -4.178228   -5.049375
      4          1           0       -9.410906   -3.233242   -4.045691
      5          6           0       -8.927228   -3.074039   -6.120091
      6          1           0       -9.261952   -3.627006   -7.004203
      7          6           0       -7.394080   -3.232557   -6.012256
      8          6           0       -9.460896   -1.646068   -6.144310
      9          1           0       -9.111079   -1.120422   -7.036588
     10          1           0       -9.133513   -1.084668   -5.264763
     11          1           0      -10.554739   -1.642324   -6.173455
     12          8           0       -6.951620   -4.144310   -5.290495
     13          7           0       -6.656199   -2.381697   -6.713764
     14          1           0       -7.041504   -1.558950   -7.201579
     15          6           0       -5.186909   -2.383124   -6.719602
     16          1           0       -4.849056   -3.424755   -6.712112
     17          6           0       -4.641332   -1.674002   -5.457718
     18          6           0       -4.685093   -1.674072   -7.982898
     19          1           0       -4.987247   -2.255175   -8.861405
     20          1           0       -3.594592   -1.645825   -7.957372
     21          8           0       -3.932494   -0.671788   -5.537706
     22          6           0       -5.280196   -0.274374   -8.134961
     23          7           0       -4.437568    0.702301   -8.513745
     24          1           0       -4.803843    1.642891   -8.589249
     25          1           0       -3.437177    0.591097   -8.436714
     26          8           0       -6.495623   -0.077524   -7.985196
     27          7           0       -5.035916   -2.228300   -4.291530
     28          1           0       -5.513431   -3.125813   -4.321616
     29          6           0       -4.806834   -1.598934   -2.992555
     30          1           0       -4.734585   -0.521621   -3.181764
     31          6           0       -3.470004   -2.061544   -2.376419
     32          6           0       -5.990398   -1.899153   -2.073142
     33          1           0       -6.115346   -2.985736   -1.997628
     34          1           0       -5.767983   -1.547805   -1.064249
     35          8           0       -3.430864   -2.698058   -1.324253
     36          6           0       -7.273054   -1.231912   -2.615091
     37          1           0       -7.350399   -1.384879   -3.693812
     38          1           0       -7.232289   -0.153114   -2.428222
     39          6           0       -8.518902   -1.781513   -1.979542
     40          8           0       -9.366561   -2.470014   -2.545626
     41          8           0       -8.626591   -1.465248   -0.693080
     42          7           0       -2.390767   -1.713770   -3.107695
     43          1           0       -2.522907   -1.122890   -3.923622
     44          6           0       -1.029024   -2.092132   -2.723004
     45          1           0       -1.114318   -3.059713   -2.221282
     46          6           0       -0.470911   -1.078724   -1.704482
     47          6           0       -0.149977   -2.226229   -3.964862
     48          1           0       -0.159887   -1.275278   -4.512851
     49          1           0       -0.617133   -2.982702   -4.611480
     50          8           0        0.365686   -0.229882   -1.999553
     51          6           0        1.315112   -2.618676   -3.688492
     52          1           0        1.802954   -1.740016   -3.258107
     53          6           0        1.449219   -3.771670   -2.685038
     54          1           0        0.869078   -4.648887   -3.002721
     55          1           0        1.127370   -3.486097   -1.677679
     56          1           0        2.496753   -4.082282   -2.605441
     57          6           0        2.010865   -2.953962   -5.012567
     58          1           0        1.578231   -3.853801   -5.469564
     59          1           0        1.919127   -2.132447   -5.733313
     60          1           0        3.078597   -3.143041   -4.856149
     61          7           0       -0.987706   -1.205715   -0.455852
     62          1           0       -1.606007   -1.988152   -0.272673
     63          6           0       -0.343712   -0.542825    0.665591
     64          1           0       -0.306742    0.529327    0.452210
     65          6           0        1.085199   -1.098206    0.813364
     66          6           0       -1.142733   -0.817901    1.946473
     67          1           0       -2.168486   -0.454019    1.796586
     68          1           0       -1.197562   -1.907244    2.071073
     69          8           0        1.302954   -2.306656    0.790064
     70          6           0       -0.563212   -0.200879    3.231057
     71          1           0        0.454880   -0.591573    3.365748
     72          6           0       -0.481702    1.329897    3.169189
     73          1           0       -1.465861    1.765067    2.953052
     74          1           0        0.219597    1.683296    2.407152
     75          1           0       -0.140851    1.736729    4.127304
     76          6           0       -1.399793   -0.648591    4.436205
     77          1           0       -2.429375   -0.276582    4.356961
     78          1           0       -1.442148   -1.741244    4.509011
     79          1           0       -0.979143   -0.263366    5.371477
     80          7           0        2.042812   -0.162437    1.004271
     81          1           0        1.808244    0.821497    1.014887
     82          6           0        3.424691   -0.479546    1.303936
     83          1           0        3.453507   -1.531679    1.605641
     84          6           0        3.827462    0.442349    2.452409
     85          6           0        4.357130   -0.276380    0.074822
     86          1           0        4.266794    0.780697   -0.214089
     87          8           0        3.428653    1.603541    2.513368
     88          6           0        3.866854   -1.140444   -1.100852
     89          1           0        3.914514   -2.199817   -0.814715
     90          1           0        2.811586   -0.914715   -1.277978
     91          6           0        5.822067   -0.547243    0.443386
     92          1           0        5.945345   -1.568187    0.832098
     93          1           0        6.188094    0.160919    1.191319
     94          1           0        6.462894   -0.452850   -0.437154
     95          6           0        4.639408   -0.911879   -2.402734
     96          1           0        4.178332   -1.470797   -3.224033
     97          1           0        5.683111   -1.236111   -2.334190
     98          1           0        4.635288    0.148678   -2.682222
     99          7           0        4.670751   -0.072084    3.385424
    100          1           0        4.947233   -1.043268    3.337658
    101          6           0        5.201863    0.781666    4.430703
    102          1           0        4.369658    1.136275    5.049904
    103          6           0        5.915925    2.017321    3.838591
    104          6           0        6.161029   -0.013474    5.348145
    105          1           0        5.582385   -0.593086    6.069640
    106          1           0        6.777452    0.707377    5.898328
    107          8           0        6.818076    1.909784    2.992239
    108          6           0        7.040453   -1.024365    4.610866
    109          7           0        7.976250   -0.484500    3.732646
    110          1           0        7.644868    0.370842    3.248526
    111          1           0        8.364089   -1.194471    3.116135
    112          8           0        6.932132   -2.222995    4.797873
    113          7           0        5.540914    3.174233    4.387463
    114          1           0        4.736111    3.162425    4.996900
    115          6           0        6.165789    4.469349    4.155047
    116          1           0        5.985461    4.773028    3.117392
    117          6           0        7.687714    4.393243    4.371053
    118          6           0        5.477429    5.488790    5.109743
    119          1           0        5.399540    4.982047    6.084109
    120          8           0        8.168442    3.556199    5.175528
    121          6           0        6.274316    6.780846    5.329078
    122          1           0        6.540695    7.285839    4.394995
    123          1           0        5.676725    7.470055    5.935435
    124          1           0        7.206368    6.588564    5.868933
    125          6           0        4.064019    5.802056    4.594745
    126          1           0        4.122891    6.374003    3.661649
    127          1           0        3.515364    6.406319    5.324487
    128          1           0        3.472573    4.900500    4.391535
    129          7           0        8.335380    5.308205    3.655814
    130          1           0        7.800588    6.011618    3.094141
    131          6           0        9.628068    5.976170    3.867940
    132          1           0        9.808442    6.059118    4.946784
    133          6           0        9.445999    7.424594    3.251628
    134          6           0       10.820197    5.238769    3.228317
    135          1           0       11.737834    5.716291    3.581522
    136          1           0       10.792320    5.340896    2.136917
    137          8           0       10.445166    8.147133    3.334880
    138          6           0       10.668642    3.788772    3.652168
    139          1           0        9.722608    3.470878    3.198636
    140          1           0       10.490885    3.812620    4.731370
    141          6           0       11.668832    2.669800    3.383921
    142          1           0       12.067301    2.690297    2.362960
    143          1           0       12.526619    2.709205    4.066102
    144          6           0       10.890798    1.356793    3.546710
    145          1           0       10.241175    1.200921    2.681816
    146          1           0       11.523068    0.474190    3.673156
    147          7           0        9.940499    1.385731    4.732366
    148          1           0        9.302223    0.565154    4.652082
    149          1           0        9.322643    2.247998    4.764788
    150          1           0       10.445308    1.351901    5.621465
    151          8           0        8.303218    7.626067    2.736763
    152          1           0       -9.440513   -1.872984   -0.337058
 ---------------------------------------------------------------------

 SCF Done:  E(RB3LYP) =  -3474.04792543     A.U. after    3 cycles

 Alpha  occ. eigenvalues --  -19.33299 -19.29012 -19.27535 -19.24064 -19.23534
 Alpha  occ. eigenvalues --  -19.20603 -19.19974 -19.18792 -19.18313 -19.17390
 Alpha  occ. eigenvalues --  -19.16193 -19.15422 -19.05989 -19.04555 -14.58634
 Alpha  occ. eigenvalues --  -14.50505 -14.50155 -14.47672 -14.46849 -14.44309
 Alpha  occ. eigenvalues --  -14.43371 -14.42499 -14.42445 -14.41103 -14.41100
 Alpha  occ. eigenvalues --  -14.36589 -10.46641 -10.44421 -10.41222 -10.41098
 Alpha  occ. eigenvalues --  -10.40905 -10.37600 -10.37003 -10.36900 -10.35564
 Alpha  occ. eigenvalues --  -10.35123 -10.34280 -10.34154 -10.33727 -10.33370
 Alpha  occ. eigenvalues --  -10.32776 -10.32020 -10.31978 -10.31946 -10.31677
 Alpha  occ. eigenvalues --  -10.31117 -10.29713 -10.28586 -10.28512 -10.27834
 Alpha  occ. eigenvalues --  -10.27350 -10.25245 -10.24713 -10.24448 -10.24399
 Alpha  occ. eigenvalues --  -10.24307 -10.23839 -10.23678 -10.23598 -10.22552
 Alpha  occ. eigenvalues --  -10.22474 -10.22393 -10.22264 -10.21771 -10.21769
 Alpha  occ. eigenvalues --  -10.21681 -10.21624 -10.21456 -10.21428 -10.19797
 Alpha  occ. eigenvalues --  -10.19194  -1.24863  -1.19705  -1.15982  -1.15711
 Alpha  occ. eigenvalues --   -1.15024  -1.13323  -1.12351  -1.11707  -1.10928
 Alpha  occ. eigenvalues --   -1.09899  -1.09404  -1.07969  -1.07265  -1.06142
 Alpha  occ. eigenvalues --   -1.05285  -1.04502  -1.01879  -1.00777  -0.99916
 Alpha  occ. eigenvalues --   -0.99125  -0.98962  -0.97899  -0.97838  -0.97479
 Alpha  occ. eigenvalues --   -0.94117  -0.93797  -0.92588  -0.90291  -0.90144
 Alpha  occ. eigenvalues --   -0.87551  -0.87009  -0.86510  -0.85904  -0.85647
 Alpha  occ. eigenvalues --   -0.85335  -0.84108  -0.82197  -0.81798  -0.79962
 Alpha  occ. eigenvalues --   -0.79904  -0.79670  -0.78533  -0.77008  -0.76461
 Alpha  occ. eigenvalues --   -0.75522  -0.74291  -0.74132  -0.74031  -0.73472
 Alpha  occ. eigenvalues --   -0.73078  -0.72925  -0.72558  -0.71782  -0.71444
 Alpha  occ. eigenvalues --   -0.71324  -0.70851  -0.70180  -0.69417  -0.68841
 Alpha  occ. eigenvalues --   -0.68072  -0.67764  -0.66616  -0.66353  -0.66116
 Alpha  occ. eigenvalues --   -0.65645  -0.64960  -0.64782  -0.64687  -0.64568
 Alpha  occ. eigenvalues --   -0.63830  -0.63682  -0.63244  -0.62963  -0.61906
 Alpha  occ. eigenvalues --   -0.61725  -0.61542  -0.61437  -0.61377  -0.61006
 Alpha  occ. eigenvalues --   -0.60760  -0.60534  -0.60351  -0.59329  -0.59022
 Alpha  occ. eigenvalues --   -0.58580  -0.58274  -0.58168  -0.57496  -0.57391
 Alpha  occ. eigenvalues --   -0.56750  -0.56538  -0.56278  -0.56039  -0.55531
 Alpha  occ. eigenvalues --   -0.55216  -0.55057  -0.54781  -0.54626  -0.54586
 Alpha  occ. eigenvalues --   -0.54254  -0.53979  -0.53416  -0.53164  -0.52961
 Alpha  occ. eigenvalues --   -0.52815  -0.52724  -0.52239  -0.51864  -0.51361
 Alpha  occ. eigenvalues --   -0.51150  -0.51094  -0.50867  -0.50801  -0.50480
 Alpha  occ. eigenvalues --   -0.50059  -0.49778  -0.49698  -0.49216  -0.49053
 Alpha  occ. eigenvalues --   -0.48981  -0.48974  -0.48576  -0.48477  -0.48332
 Alpha  occ. eigenvalues --   -0.48027  -0.47512  -0.47380  -0.47333  -0.47268
 Alpha  occ. eigenvalues --   -0.47137  -0.47014  -0.46819  -0.46690  -0.46401
 Alpha  occ. eigenvalues --   -0.46334  -0.45973  -0.45829  -0.45794  -0.45530
 Alpha  occ. eigenvalues --   -0.45431  -0.45099  -0.44854  -0.44469  -0.44038
 Alpha  occ. eigenvalues --   -0.44012  -0.43680  -0.43451  -0.43231  -0.42925
 Alpha  occ. eigenvalues --   -0.42572  -0.42516  -0.42373  -0.42297  -0.41877
 Alpha  occ. eigenvalues --   -0.41799  -0.41744  -0.41684  -0.41502  -0.41444
 Alpha  occ. eigenvalues --   -0.41239  -0.40989  -0.40271  -0.40109  -0.39727
 Alpha  occ. eigenvalues --   -0.38857  -0.38330  -0.38303  -0.38171  -0.38005
 Alpha  occ. eigenvalues --   -0.37977  -0.37850  -0.37654  -0.37597  -0.37489
 Alpha  occ. eigenvalues --   -0.37391  -0.37361  -0.37011  -0.36929  -0.36887
 Alpha  occ. eigenvalues --   -0.36708  -0.36655  -0.36327  -0.35949  -0.35467
 Alpha  occ. eigenvalues --   -0.35098  -0.34740  -0.34216  -0.33548  -0.33271
 Alpha  occ. eigenvalues --   -0.33019  -0.32457  -0.32092  -0.31861  -0.31383
 Alpha  occ. eigenvalues --   -0.30425  -0.29737  -0.29408  -0.29277  -0.27897
 Alpha  occ. eigenvalues --   -0.21051  -0.20876  -0.18808
 Alpha virt. eigenvalues --   -0.14029  -0.13415  -0.10410  -0.09034  -0.08930
 Alpha virt. eigenvalues --   -0.07096  -0.07046  -0.05070  -0.04723  -0.04368
 Alpha virt. eigenvalues --   -0.04058  -0.03976  -0.03122  -0.02689  -0.02171

 Mulliken charges:
               1
     1  N   -0.770597
     2  H    0.419174
     3  H    0.405614
     4  H    0.448834
     5  C   -0.120334
     6  H    0.231172
     7  C    0.658714
     8  C   -0.489771
     9  H    0.225633
    10  H    0.192563
    11  H    0.192356
    12  O   -0.567818
    13  N   -0.626187
    14  H    0.413663
    15  C   -0.098588
    16  H    0.209984
    17  C    0.644364
    18  C   -0.379334
    19  H    0.202738
    20  H    0.189338
    21  O   -0.531024
    22  C    0.641410
    23  N   -0.721724
    24  H    0.365302
    25  H    0.366313
    26  O   -0.553700
    27  N   -0.621851
    28  H    0.378271
    29  C   -0.081811
    30  H    0.193787
    31  C    0.644912
    32  C   -0.293724
    33  H    0.172532
    34  H    0.209199
    35  O   -0.537300
    36  C   -0.356346
    37  H    0.157543
    38  H    0.206615
    39  C    0.603598
    40  O   -0.520351
    41  O   -0.514234
    42  N   -0.622970
    43  H    0.364203
    44  C   -0.070960
    45  H    0.185633
    46  C    0.647123
    47  C   -0.270586
    48  H    0.143924
    49  H    0.122590
    50  O   -0.532253
    51  C   -0.090941
    52  H    0.181570
    53  C   -0.473709
    54  H    0.128535
    55  H    0.178941
    56  H    0.150319
    57  C   -0.450068
    58  H    0.132700
    59  H    0.138079
    60  H    0.153283
    61  N   -0.619248
    62  H    0.361520
    63  C   -0.026873
    64  H    0.157960
    65  C    0.636223
    66  C   -0.289323
    67  H    0.138476
    68  H    0.156112
    69  O   -0.550185
    70  C   -0.083667
    71  H    0.139135
    72  C   -0.446743
    73  H    0.139219
    74  H    0.144826
    75  H    0.150421
    76  C   -0.443012
    77  H    0.139012
    78  H    0.147622
    79  H    0.147033
    80  N   -0.597219
    81  H    0.355608
    82  C   -0.069826
    83  H    0.171481
    84  C    0.641494
    85  C   -0.064705
    86  H    0.142898
    87  O   -0.543907
    88  C   -0.275875
    89  H    0.138592
    90  H    0.182083
    91  C   -0.500891
    92  H    0.128919
    93  H    0.173736
    94  H    0.161588
    95  C   -0.461808
    96  H    0.151372
    97  H    0.143305
    98  H    0.148298
    99  N   -0.618102
   100  H    0.353221
   101  C   -0.059694
   102  H    0.168906
   103  C    0.690864
   104  C   -0.385788
   105  H    0.199210
   106  H    0.189862
   107  O   -0.578610
   108  C    0.526179
   109  N   -0.824928
   110  H    0.415092
   111  H    0.342607
   112  O   -0.459280
   113  N   -0.596211
   114  H    0.343148
   115  C   -0.011346
   116  H    0.184364
   117  C    0.635298
   118  C   -0.117474
   119  H    0.127395
   120  O   -0.630431
   121  C   -0.482072
   122  H    0.210430
   123  H    0.143222
   124  H    0.158626
   125  C   -0.457816
   126  H    0.169500
   127  H    0.155732
   128  H    0.136875
   129  N   -0.598934
   130  H    0.371219
   131  C   -0.083786
   132  H    0.147035
   133  C    0.595444
   134  C   -0.257161
   135  H    0.166955
   136  H    0.146423
   137  O   -0.572934
   138  C   -0.304122
   139  H    0.156807
   140  H    0.142738
   141  C   -0.264995
   142  H    0.172263
   143  H    0.156302
   144  C   -0.191086
   145  H    0.200531
   146  H    0.181679
   147  N   -0.801648
   148  H    0.415075
   149  H    0.458455
   150  H    0.385665
   151  O   -0.615985
   152  H    0.437285
 Sum of Mulliken charges =   1.00000

 Dipole moment (field-independent basis, Debye):
    X=            -38.0276    Y=            -25.6712    Z=            -20.1657  Tot=             50.1175
 Quadrupole moment (field-independent basis, Debye-Ang):
   XX=            -52.8973   YY=           -553.1061   ZZ=           -203.1261
   XY=            -48.4957   XZ=            225.4611   YZ=             34.0229

 Normal termination of Gaussian 16 at Mon Jul 18 04:59:13 2022.
