 Gaussian 16, Revision C.01,
 Gaussian 16:  ES64L-G16RevC.01  3-Jul-2019

 ----------------------------------------------------------------------
 # B3LYP/6-31G* empiricaldispersion=gd3 guess=read geom=check nosymm in
 tegral(ultrafinegrid)
 ----------------------------------------------------------------------

 ------------------------------------------------------
 Candidate Structure: Conf:578 Charge calc in gas phase
 ------------------------------------------------------
 Structure from the checkpoint file:  "conf-578.chk"
 Charge =  1 Multiplicity = 1

                          Input orientation:
 ---------------------------------------------------------------------
 Center     Atomic      Atomic             Coordinates (Angstroms)
 Number     Number       Type             X           Y           Z
 ---------------------------------------------------------------------
      1          7           0       -5.163385    2.898281    2.232468
      2          1           0       -5.370815    3.207200    1.261076
      3          1           0       -5.618967    1.985437    2.373187
      4          1           0       -5.495398    3.642396    2.870503
      5          6           0       -3.680401    2.703181    2.405588
      6          1           0       -3.208225    3.612709    2.028159
      7          6           0       -3.372436    1.457898    1.545790
      8          6           0       -3.285046    2.425456    3.868083
      9          1           0       -3.478306    1.368988    4.077344
     10          1           0       -2.200650    2.567493    3.924674
     11          8           0       -4.135729    0.498564    1.681469
     12          6           0       -3.975435    3.251246    4.982475
     13          1           0       -3.428063    3.110414    5.916544
     14          1           0       -4.994525    2.880506    5.143844
     15          6           0       -4.102468    4.722271    4.662387
     16          8           0       -4.828624    5.149162    3.773395
     17          8           0       -3.349485    5.512217    5.427671
     18          7           0       -2.337395    1.545886    0.709487
     19          1           0       -1.699040    2.339749    0.697097
     20          6           0       -1.931303    0.494050   -0.221146
     21          1           0       -2.184090   -0.474459    0.211125
     22          6           0       -0.406430    0.628138   -0.404153
     23          6           0       -2.655635    0.652529   -1.587158
     24          1           0       -2.316283   -0.172138   -2.223330
     25          1           0       -2.313246    1.588588   -2.046404
     26          8           0        0.046120    1.842453   -0.344837
     27          6           0       -4.148777    0.678094   -1.473397
     28          6           0       -5.002159   -0.396098   -1.478987
     29          1           0       -4.788186   -1.441934   -1.650565
     30          6           0       -4.956720    1.830930   -1.173105
     31          6           0       -6.296378    1.376259   -0.987907
     32          6           0       -4.680748    3.200934   -1.021865
     33          1           0       -3.670710    3.575008   -1.166987
     34          7           0       -6.288060    0.016769   -1.188313
     35          1           0       -7.096125   -0.585673   -1.152627
     36          6           0       -7.037640    3.594507   -0.497049
     37          1           0       -7.827618    4.295319   -0.244443
     38          6           0       -7.340913    2.243586   -0.648600
     39          1           0       -8.355398    1.879068   -0.514286
     40          6           0       -5.717855    4.072145   -0.683170
     41          1           0       -5.518154    5.135219   -0.580050
     42          7           0        0.196841   -0.494534   -0.615348
     43          1           0        0.296878   -2.486495   -0.639831
     44          6           0        1.641421   -0.584993   -0.769508
     45          1           0        2.084161   -0.649528    0.237492
     46          6           0        2.322154    0.528553   -1.553317
     47          6           0        1.919093   -1.946152   -1.478110
     48          1           0        1.614751   -1.821261   -2.531082
     49          8           0        2.048187    0.778408   -2.731812
     50          6           0        3.385612   -2.350910   -1.412278
     51          1           0        4.025868   -1.610711   -1.905241
     52          1           0        3.528867   -3.316264   -1.906301
     53          1           0        3.705089   -2.452972   -0.369080
     54          8           0        1.148996   -2.940948   -0.842386
     55          7           0        3.304968    1.192606   -0.882181
     56          1           0        3.561829    0.881960    0.044221
     57          6           0        4.087704    2.257921   -1.460020
     58          1           0        3.778420    2.338198   -2.501764
     59          6           0        5.566328    1.886971   -1.422031
     60          6           0        3.889756    3.605510   -0.712959
     61          1           0        4.497855    4.378546   -1.200211
     62          1           0        4.311458    3.477341    0.291878
     63          8           0        6.051185    1.053248   -0.694386
     64          6           0        2.424479    4.050772   -0.574105
     65          1           0        1.795925    3.187935   -0.334150
     66          1           0        2.344844    4.748852    0.268643
     67          6           0        1.850785    4.802224   -1.785848
     68          1           0        0.794372    5.038414   -1.621097
     69          1           0        2.378223    5.751972   -1.922466
     70          7           0        1.958712    4.102962   -3.072509
     71          1           0        2.797045    4.272185   -3.609536
     72          7           0        0.040764    2.810798   -2.844799
     73          1           0       -0.509187    2.092122   -3.299187
     74          1           0        0.114043    2.615293   -1.813656
     75          7           0        1.288509    2.682395   -4.798367
     76          1           0        2.114453    2.977516   -5.303892
     77          1           0        1.150133    1.677306   -4.846513
     78          6           0        1.116645    3.177778   -3.540770
     79          8           0        6.279385    2.655260   -2.276779
     80          1           0        7.217452    2.404635   -2.173941
     81          1           0       -3.508526    6.439123    5.160627
 ---------------------------------------------------------------------

 SCF Done:  E(RB3LYP) =  -2054.03911068     A.U. after    1 cycles

 Alpha  occ. eigenvalues --  -19.32446 -19.27835 -19.27269 -19.22051 -19.21973
 Alpha  occ. eigenvalues --  -19.18786 -19.17006 -19.16410 -14.55554 -14.49270
 Alpha  occ. eigenvalues --  -14.47366 -14.46859 -14.45838 -14.45343 -14.43444
 Alpha  occ. eigenvalues --  -14.35537 -10.45326 -10.43813 -10.39963 -10.39590
 Alpha  occ. eigenvalues --  -10.37685 -10.35685 -10.33307 -10.32958 -10.32923
 Alpha  occ. eigenvalues --  -10.32186 -10.32039 -10.31380 -10.30429 -10.30110
 Alpha  occ. eigenvalues --  -10.28732 -10.28720 -10.28395 -10.28346 -10.28281
 Alpha  occ. eigenvalues --  -10.27783 -10.27633 -10.27476 -10.27329 -10.27064
 Alpha  occ. eigenvalues --  -10.26649 -10.21448  -1.23629  -1.18587  -1.14900
 Alpha  occ. eigenvalues --   -1.14393  -1.12722  -1.10575  -1.10168  -1.09715
 Alpha  occ. eigenvalues --   -1.06853  -1.06722  -1.04624  -1.02690  -1.01912
 Alpha  occ. eigenvalues --   -1.00254  -0.99785  -0.93773  -0.93473  -0.93144
 Alpha  occ. eigenvalues --   -0.89261  -0.88982  -0.86768  -0.84932  -0.84081
 Alpha  occ. eigenvalues --   -0.83045  -0.81339  -0.80282  -0.78414  -0.77999
 Alpha  occ. eigenvalues --   -0.75673  -0.74430  -0.73750  -0.72128  -0.71633
 Alpha  occ. eigenvalues --   -0.71012  -0.70234  -0.69585  -0.69143  -0.68813
 Alpha  occ. eigenvalues --   -0.68398  -0.67763  -0.66475  -0.65201  -0.64924
 Alpha  occ. eigenvalues --   -0.63747  -0.62862  -0.62769  -0.62084  -0.61215
 Alpha  occ. eigenvalues --   -0.60816  -0.60396  -0.59451  -0.59159  -0.58334
 Alpha  occ. eigenvalues --   -0.58062  -0.57806  -0.57662  -0.56640  -0.56322
 Alpha  occ. eigenvalues --   -0.55938  -0.55816  -0.55654  -0.55445  -0.54768
 Alpha  occ. eigenvalues --   -0.54116  -0.53834  -0.53267  -0.52964  -0.52612
 Alpha  occ. eigenvalues --   -0.52389  -0.51814  -0.51389  -0.51162  -0.50773
 Alpha  occ. eigenvalues --   -0.50545  -0.49867  -0.49588  -0.49470  -0.49186
 Alpha  occ. eigenvalues --   -0.48528  -0.48232  -0.47782  -0.47403  -0.47036
 Alpha  occ. eigenvalues --   -0.46549  -0.46106  -0.46027  -0.45392  -0.44753
 Alpha  occ. eigenvalues --   -0.44545  -0.43697  -0.43490  -0.43192  -0.43008
 Alpha  occ. eigenvalues --   -0.42808  -0.42344  -0.42184  -0.41364  -0.40968
 Alpha  occ. eigenvalues --   -0.40012  -0.39865  -0.38989  -0.37543  -0.37108
 Alpha  occ. eigenvalues --   -0.36455  -0.36254  -0.35759  -0.35457  -0.33557
 Alpha  occ. eigenvalues --   -0.33231  -0.32115  -0.32026  -0.30529  -0.29285
 Alpha  occ. eigenvalues --   -0.28642  -0.28282
 Alpha virt. eigenvalues --   -0.12446  -0.10838  -0.09554  -0.09161  -0.07708
 Alpha virt. eigenvalues --   -0.07181  -0.05555  -0.04871  -0.04620  -0.03681
 Alpha virt. eigenvalues --   -0.03005  -0.02744  -0.01564  -0.00558  -0.00441

 Mulliken charges:
               1
     1  N   -0.770664
     2  H    0.424208
     3  H    0.404174
     4  H    0.416665
     5  C   -0.103133
     6  H    0.188259
     7  C    0.652859
     8  C   -0.299082
     9  H    0.210716
    10  H    0.197122
    11  O   -0.543578
    12  C   -0.380821
    13  H    0.216243
    14  H    0.191313
    15  C    0.604574
    16  O   -0.490470
    17  O   -0.527259
    18  N   -0.602056
    19  H    0.343213
    20  C   -0.012486
    21  H    0.184890
    22  C    0.515596
    23  C   -0.369652
    24  H    0.175762
    25  H    0.131965
    26  O   -0.680003
    27  C    0.085083
    28  C    0.030674
    29  H    0.177717
    30  C    0.076897
    31  C    0.326452
    32  C   -0.242077
    33  H    0.136108
    34  N   -0.685400
    35  H    0.344190
    36  C   -0.171804
    37  H    0.152114
    38  C   -0.170091
    39  H    0.151355
    40  C   -0.211887
    41  H    0.146063
    42  N   -0.532585
    43  H    0.398038
    44  C   -0.051752
    45  H    0.129398
    46  C    0.649720
    47  C    0.164460
    48  H    0.115270
    49  O   -0.599215
    50  C   -0.462551
    51  H    0.139084
    52  H    0.166535
    53  H    0.150457
    54  O   -0.648814
    55  N   -0.589671
    56  H    0.345450
    57  C   -0.047076
    58  H    0.168101
    59  C    0.592149
    60  C   -0.285721
    61  H    0.154613
    62  H    0.162619
    63  O   -0.447678
    64  C   -0.305838
    65  H    0.227493
    66  H    0.151687
    67  C   -0.161508
    68  H    0.183564
    69  H    0.173141
    70  N   -0.583158
    71  H    0.352447
    72  N   -0.767375
    73  H    0.356182
    74  H    0.429167
    75  N   -0.732438
    76  H    0.349547
    77  H    0.384065
    78  C    0.763319
    79  O   -0.573292
    80  H    0.424513
    81  H    0.433906
 Sum of Mulliken charges =   1.00000

 Dipole moment (field-independent basis, Debye):
    X=            -11.0755    Y=             21.1083    Z=              1.3000  Tot=             23.8730
 Quadrupole moment (field-independent basis, Debye-Ang):
   XX=           -110.6236   YY=           -167.2410   ZZ=           -165.8276
   XY=             -4.7479   XZ=            -58.7905   YZ=             15.4260

 Normal termination of Gaussian 16 at Sat May 14 00:58:05 2022.
