 Gaussian 16, Revision C.01,
 Gaussian 16:  ES64L-G16RevC.01  3-Jul-2019

 ----------------------------------------------------------------------
 # B3LYP/6-31G* empiricaldispersion=gd3 guess=read geom=check nosymm in
 tegral(ultrafinegrid)
 ----------------------------------------------------------------------

 ------------------------------------------------------
 Candidate Structure: Conf:746 Charge calc in gas phase
 ------------------------------------------------------
 Structure from the checkpoint file:  "conf-746.chk"
 Charge =  1 Multiplicity = 1

                          Input orientation:
 ---------------------------------------------------------------------
 Center     Atomic      Atomic             Coordinates (Angstroms)
 Number     Number       Type             X           Y           Z
 ---------------------------------------------------------------------
      1          7           0       -2.615689    0.676159    3.337673
      2          1           0       -0.628813    1.016712    3.033681
      3          1           0       -2.692472    1.630223    3.691914
      4          1           0       -2.919026    0.047262    4.079240
      5          6           0       -3.493211    0.540879    2.164767
      6          1           0       -3.309101   -0.448926    1.738001
      7          6           0       -3.018161    1.611815    1.173178
      8          6           0       -5.001432    0.679188    2.457732
      9          1           0       -5.271295   -0.056620    3.226060
     10          1           0       -5.191702    1.674549    2.875567
     11          8           0       -2.739830    2.744289    1.554211
     12          6           0       -5.923737    0.504417    1.226055
     13          1           0       -5.737379    1.309153    0.511523
     14          1           0       -6.966370    0.574052    1.542082
     15          6           0       -5.699226   -0.793709    0.488871
     16          8           0       -4.721317   -1.050477   -0.201981
     17          8           0       -6.691184   -1.680586    0.668073
     18          7           0       -2.837418    1.189933   -0.113926
     19          1           0       -3.300651    0.328629   -0.398677
     20          6           0       -2.194054    2.040623   -1.105984
     21          1           0       -2.164621    1.448957   -2.029550
     22          6           0       -0.722533    2.326052   -0.728673
     23          6           0       -2.949379    3.357335   -1.424103
     24          1           0       -2.430285    3.817625   -2.273313
     25          1           0       -2.845316    4.032765   -0.574216
     26          8           0       -0.091014    3.264982   -1.252988
     27          6           0       -4.398792    3.125479   -1.732672
     28          6           0       -4.929037    2.537610   -2.857495
     29          1           0       -4.434934    2.171322   -3.748003
     30          6           0       -5.509412    3.404914   -0.856630
     31          6           0       -6.688230    2.953583   -1.513865
     32          6           0       -5.618917    3.973855    0.427306
     33          1           0       -4.732490    4.299754    0.961654
     34          7           0       -6.300591    2.429864   -2.730454
     35          1           0       -6.925529    2.066070   -3.433023
     36          6           0       -8.031545    3.608168    0.342078
     37          1           0       -8.999171    3.696865    0.827502
     38          6           0       -7.955882    3.047496   -0.927109
     39          1           0       -8.844844    2.693318   -1.441822
     40          6           0       -6.875312    4.067135    1.011627
     41          1           0       -6.974778    4.501965    2.002193
     42          7           0       -0.177044    1.507725    0.172792
     43          1           0       -0.789207    0.809467    0.569684
     44          6           0        1.150472    1.670674    0.748239
     45          1           0        1.318707    2.741160    0.907072
     46          6           0        2.163129    1.065079   -0.230569
     47          6           0        1.168642    0.977356    2.131078
     48          1           0        0.971795   -0.093156    1.961302
     49          8           0        2.226063   -0.137745   -0.441605
     50          6           0        2.528377    1.144447    2.803775
     51          1           0        3.341965    0.743494    2.189906
     52          1           0        2.523635    0.627291    3.766852
     53          1           0        2.718709    2.206888    2.993399
     54          8           0        0.173938    1.580945    2.932385
     55          7           0        2.922183    1.987083   -0.895592
     56          1           0        2.892699    2.944138   -0.578331
     57          6           0        3.942048    1.600498   -1.840554
     58          1           0        3.632827    0.633674   -2.250450
     59          6           0        5.281326    1.377551   -1.129760
     60          6           0        4.073685    2.618148   -2.996189
     61          1           0        4.788709    2.213506   -3.716629
     62          1           0        4.523533    3.545565   -2.611484
     63          8           0        5.496619    1.605933    0.035955
     64          6           0        2.716447    2.928998   -3.671550
     65          1           0        2.811411    2.885332   -4.764712
     66          1           0        1.982500    2.166264   -3.388462
     67          6           0        2.164676    4.301834   -3.252884
     68          1           0        2.267686    4.435493   -2.174861
     69          1           0        2.714041    5.123426   -3.726667
     70          7           0        0.729968    4.459559   -3.508528
     71          1           0        0.137961    4.064284   -2.752995
     72          7           0        0.880232    5.254623   -5.697421
     73          1           0        0.559646    5.943716   -6.362431
     74          1           0        1.827557    4.921530   -5.795534
     75          7           0       -1.136720    5.310254   -4.571053
     76          1           0       -1.662799    5.285816   -3.708539
     77          1           0       -1.646926    5.450050   -5.430682
     78          6           0        0.174347    4.997095   -4.577460
     79          8           0        6.199418    0.887594   -1.992722
     80          1           0        7.026904    0.753743   -1.490911
     81          1           0       -6.456715   -2.486577    0.167030
 ---------------------------------------------------------------------

 SCF Done:  E(RB3LYP) =  -2054.07053368     A.U. after    1 cycles

 Alpha  occ. eigenvalues --  -19.28308 -19.27583 -19.22959 -19.22281 -19.21949
 Alpha  occ. eigenvalues --  -19.20149 -19.19369 -19.18833 -14.52136 -14.51764
 Alpha  occ. eigenvalues --  -14.50421 -14.45854 -14.45328 -14.44599 -14.44454
 Alpha  occ. eigenvalues --  -14.40942 -10.47963 -10.40941 -10.39887 -10.38812
 Alpha  occ. eigenvalues --  -10.36916 -10.36602 -10.35347 -10.33292 -10.32670
 Alpha  occ. eigenvalues --  -10.30661 -10.30597 -10.30493 -10.30463 -10.29993
 Alpha  occ. eigenvalues --  -10.29789 -10.29371 -10.28293 -10.27732 -10.27549
 Alpha  occ. eigenvalues --  -10.26331 -10.26126 -10.25829 -10.25558 -10.25457
 Alpha  occ. eigenvalues --  -10.25075 -10.22908  -1.19291  -1.18377  -1.16415
 Alpha  occ. eigenvalues --   -1.13633  -1.12079  -1.11499  -1.10024  -1.09577
 Alpha  occ. eigenvalues --   -1.06855  -1.05648  -1.05453  -1.04827  -1.02467
 Alpha  occ. eigenvalues --   -1.01389  -1.00347  -0.97518  -0.91115  -0.91089
 Alpha  occ. eigenvalues --   -0.88929  -0.87459  -0.86765  -0.85020  -0.83587
 Alpha  occ. eigenvalues --   -0.80734  -0.80672  -0.79815  -0.78772  -0.77923
 Alpha  occ. eigenvalues --   -0.76995  -0.75037  -0.73982  -0.72334  -0.71998
 Alpha  occ. eigenvalues --   -0.70858  -0.70457  -0.69581  -0.68066  -0.67904
 Alpha  occ. eigenvalues --   -0.67026  -0.66852  -0.66568  -0.65717  -0.65157
 Alpha  occ. eigenvalues --   -0.64831  -0.63299  -0.62047  -0.61391  -0.61094
 Alpha  occ. eigenvalues --   -0.60295  -0.59672  -0.59567  -0.58828  -0.57986
 Alpha  occ. eigenvalues --   -0.57832  -0.57390  -0.56713  -0.56220  -0.56107
 Alpha  occ. eigenvalues --   -0.55658  -0.55352  -0.54973  -0.54861  -0.54305
 Alpha  occ. eigenvalues --   -0.53650  -0.53064  -0.52473  -0.52055  -0.51901
 Alpha  occ. eigenvalues --   -0.51495  -0.50723  -0.50191  -0.50005  -0.49587
 Alpha  occ. eigenvalues --   -0.49317  -0.49305  -0.49103  -0.48824  -0.48407
 Alpha  occ. eigenvalues --   -0.47982  -0.47397  -0.47185  -0.46800  -0.46563
 Alpha  occ. eigenvalues --   -0.46274  -0.46212  -0.45199  -0.45130  -0.44628
 Alpha  occ. eigenvalues --   -0.44481  -0.44254  -0.44060  -0.43759  -0.43396
 Alpha  occ. eigenvalues --   -0.43166  -0.42384  -0.42199  -0.40662  -0.40539
 Alpha  occ. eigenvalues --   -0.40124  -0.40096  -0.39686  -0.38018  -0.37329
 Alpha  occ. eigenvalues --   -0.36633  -0.36457  -0.35626  -0.35090  -0.34322
 Alpha  occ. eigenvalues --   -0.33910  -0.33419  -0.33245  -0.32435  -0.31772
 Alpha  occ. eigenvalues --   -0.29703  -0.27847
 Alpha virt. eigenvalues --   -0.12089  -0.08903  -0.08634  -0.08128  -0.07606
 Alpha virt. eigenvalues --   -0.07152  -0.06920  -0.05944  -0.05273  -0.04690
 Alpha virt. eigenvalues --   -0.03804  -0.02417  -0.01559  -0.00902  -0.00442

 Mulliken charges:
               1
     1  N   -0.744539
     2  H    0.429343
     3  H    0.341652
     4  H    0.321416
     5  C   -0.065557
     6  H    0.163717
     7  C    0.602375
     8  C   -0.291211
     9  H    0.156705
    10  H    0.174429
    11  O   -0.524019
    12  C   -0.372196
    13  H    0.214078
    14  H    0.188575
    15  C    0.590273
    16  O   -0.490831
    17  O   -0.540758
    18  N   -0.659981
    19  H    0.388781
    20  C   -0.035318
    21  H    0.169841
    22  C    0.674393
    23  C   -0.354637
    24  H    0.099652
    25  H    0.201059
    26  O   -0.608528
    27  C    0.073937
    28  C   -0.010708
    29  H    0.141610
    30  C    0.045399
    31  C    0.312785
    32  C   -0.220034
    33  H    0.164079
    34  N   -0.683330
    35  H    0.336590
    36  C   -0.151900
    37  H    0.142640
    38  C   -0.165950
    39  H    0.137904
    40  C   -0.148450
    41  H    0.138522
    42  N   -0.578451
    43  H    0.352669
    44  C   -0.035025
    45  H    0.164156
    46  C    0.638489
    47  C    0.090717
    48  H    0.141805
    49  O   -0.520204
    50  C   -0.460276
    51  H    0.170675
    52  H    0.166466
    53  H    0.153944
    54  O   -0.655813
    55  N   -0.597510
    56  H    0.337885
    57  C   -0.052822
    58  H    0.213653
    59  C    0.594173
    60  C   -0.308402
    61  H    0.193762
    62  H    0.153980
    63  O   -0.445944
    64  C   -0.266607
    65  H    0.141727
    66  H    0.184289
    67  C   -0.181773
    68  H    0.192682
    69  H    0.169927
    70  N   -0.606629
    71  H    0.412581
    72  N   -0.761334
    73  H    0.379625
    74  H    0.385131
    75  N   -0.776727
    76  H    0.403080
    77  H    0.376495
    78  C    0.808239
    79  O   -0.565686
    80  H    0.425718
    81  H    0.419525
 Sum of Mulliken charges =   1.00000

 Dipole moment (field-independent basis, Debye):
    X=             -6.5906    Y=             15.9291    Z=            -18.1974  Tot=             25.0663
 Quadrupole moment (field-independent basis, Debye-Ang):
   XX=           -141.3853   YY=           -158.2636   ZZ=           -129.0678
   XY=             13.9524   XZ=            -12.5934   YZ=            -98.3549

 Normal termination of Gaussian 16 at Sat May 14 00:57:53 2022.
