 Gaussian 16, Revision C.01,
 Gaussian 16:  ES64L-G16RevC.01  3-Jul-2019

 ----------------------------------------------------------------------
 # B3LYP/6-31G* empiricaldispersion=gd3 guess=read geom=check nosymm in
 tegral(ultrafinegrid)
 ----------------------------------------------------------------------

 ------------------------------------------------------
 Candidate Structure: Conf:747 Charge calc in gas phase
 ------------------------------------------------------
 Structure from the checkpoint file:  "conf-747.chk"
 Charge =  1 Multiplicity = 1

                          Input orientation:
 ---------------------------------------------------------------------
 Center     Atomic      Atomic             Coordinates (Angstroms)
 Number     Number       Type             X           Y           Z
 ---------------------------------------------------------------------
      1          7           0       -2.613956   -0.403422    4.926088
      2          1           0       -3.491167   -0.671431    5.379982
      3          1           0       -2.341467   -1.160809    4.228659
      4          1           0       -1.893638   -0.283939    5.642633
      5          6           0       -2.756965    0.804026    4.017613
      6          1           0       -3.687586    1.315706    4.273906
      7          6           0       -2.807977    0.161980    2.608528
      8          6           0       -1.555028    1.750594    4.146706
      9          1           0       -1.734088    2.603361    3.486570
     10          1           0       -1.507973    2.152913    5.165035
     11          8           0       -2.451106   -1.019893    2.512917
     12          6           0       -0.214394    1.127507    3.742216
     13          1           0       -0.254896    0.718021    2.730804
     14          1           0        0.101855    0.309926    4.405525
     15          6           0        0.872012    2.187020    3.760012
     16          8           0        0.741388    3.301245    4.209787
     17          8           0        2.010726    1.718929    3.210048
     18          7           0       -3.169426    0.961770    1.604873
     19          1           0       -3.255478    1.948247    1.822699
     20          6           0       -2.711920    0.710825    0.234995
     21          1           0       -2.602363   -0.370377    0.132473
     22          6           0       -1.336821    1.412099    0.099624
     23          6           0       -3.738613    1.235105   -0.792443
     24          1           0       -3.319906    1.054948   -1.790527
     25          1           0       -3.820935    2.324994   -0.686407
     26          8           0       -0.991832    2.257825    0.937819
     27          6           0       -5.079302    0.588284   -0.643813
     28          6           0       -6.244544    1.189876   -0.239310
     29          1           0       -6.435935    2.227474   -0.000117
     30          6           0       -5.384716   -0.805835   -0.850567
     31          6           0       -6.762572   -0.980131   -0.549530
     32          6           0       -4.633570   -1.917800   -1.269952
     33          1           0       -3.582797   -1.813320   -1.529134
     34          7           0       -7.257304    0.253062   -0.169437
     35          1           0       -8.227586    0.458803    0.010713
     36          6           0       -6.629329   -3.302020   -1.066767
     37          1           0       -7.092949   -4.279572   -1.162034
     38          6           0       -7.399187   -2.220704   -0.653573
     39          1           0       -8.455576   -2.334624   -0.426150
     40          6           0       -5.260648   -3.152704   -1.373120
     41          1           0       -4.692820   -4.018074   -1.702142
     42          7           0       -0.614804    1.031494   -0.952677
     43          1           0       -0.932993    0.331735   -1.631964
     44          6           0        0.675383    1.572526   -1.340582
     45          1           0        0.593344    2.649841   -1.525707
     46          6           0        1.049617    0.837282   -2.657251
     47          6           0        1.785666    1.371499   -0.262618
     48          1           0        1.525492    1.977714    0.608754
     49          8           0        0.243278    0.001802   -3.130710
     50          6           0        1.931052   -0.090861    0.162223
     51          1           0        1.009747   -0.456355    0.629930
     52          1           0        2.741368   -0.178742    0.892948
     53          1           0        2.146183   -0.734987   -0.698135
     54          8           0        3.005771    1.890556   -0.799310
     55          7           0        2.253989    1.153442   -3.112570
     56          1           0        2.888095    1.709701   -1.815205
     57          6           0        2.624948    0.432776   -4.311591
     58          1           0        1.908301    0.644519   -5.115930
     59          6           0        2.592791   -1.084354   -4.085201
     60          6           0        4.051631    0.778960   -4.815182
     61          1           0        4.072096    0.581326   -5.893261
     62          1           0        4.768951    0.068633   -4.389589
     63          8           0        3.088950   -1.660540   -3.126613
     64          6           0        4.554380    2.215372   -4.573175
     65          1           0        5.300268    2.448767   -5.344299
     66          1           0        3.734594    2.931106   -4.699389
     67          6           0        5.189519    2.508118   -3.196347
     68          1           0        5.679842    3.485516   -3.218645
     69          1           0        4.446709    2.559831   -2.407287
     70          7           0        6.234821    1.538765   -2.806160
     71          1           0        7.150800    1.674865   -3.215979
     72          7           0        4.941246    0.050062   -1.527519
     73          1           0        4.460234   -0.838335   -1.678156
     74          1           0        4.322450    0.798195   -1.152352
     75          7           0        6.875708   -0.672873   -2.565290
     76          1           0        7.422158   -0.669545   -3.414209
     77          1           0        6.794548   -1.548635   -2.068768
     78          6           0        5.990790    0.317227   -2.305095
     79          8           0        2.058523   -1.756725   -5.113839
     80          1           0        2.097507   -2.704945   -4.885301
     81          1           0        2.657260    2.450255    3.212028
 ---------------------------------------------------------------------

 SCF Done:  E(RB3LYP) =  -2054.01149577     A.U. after    1 cycles

 Alpha  occ. eigenvalues --  -19.28149 -19.26256 -19.25033 -19.22647 -19.19560
 Alpha  occ. eigenvalues --  -19.19291 -19.18142 -19.14427 -14.59613 -14.48402
 Alpha  occ. eigenvalues --  -14.47992 -14.47777 -14.44482 -14.44365 -14.42403
 Alpha  occ. eigenvalues --  -14.33748 -10.43269 -10.42675 -10.41101 -10.40137
 Alpha  occ. eigenvalues --  -10.37342 -10.36298 -10.32579 -10.32510 -10.30919
 Alpha  occ. eigenvalues --  -10.30873 -10.30240 -10.28740 -10.28723 -10.28122
 Alpha  occ. eigenvalues --  -10.27843 -10.27685 -10.27258 -10.26313 -10.25598
 Alpha  occ. eigenvalues --  -10.25092 -10.24907 -10.24694 -10.24633 -10.24345
 Alpha  occ. eigenvalues --  -10.23950 -10.22852  -1.19100  -1.18738  -1.16067
 Alpha  occ. eigenvalues --   -1.13409  -1.11727  -1.11058  -1.10336  -1.06771
 Alpha  occ. eigenvalues --   -1.06358  -1.05222  -1.04904  -1.04317  -1.01477
 Alpha  occ. eigenvalues --   -0.98979  -0.98838  -0.93795  -0.92687  -0.90024
 Alpha  occ. eigenvalues --   -0.88766  -0.86253  -0.86174  -0.83875  -0.81778
 Alpha  occ. eigenvalues --   -0.80869  -0.79579  -0.78627  -0.77831  -0.76882
 Alpha  occ. eigenvalues --   -0.75352  -0.73972  -0.73627  -0.72756  -0.72441
 Alpha  occ. eigenvalues --   -0.70802  -0.68910  -0.68448  -0.68408  -0.68332
 Alpha  occ. eigenvalues --   -0.67549  -0.66438  -0.65656  -0.65345  -0.64658
 Alpha  occ. eigenvalues --   -0.62598  -0.62472  -0.61691  -0.60522  -0.60135
 Alpha  occ. eigenvalues --   -0.59959  -0.59847  -0.59637  -0.58462  -0.57175
 Alpha  occ. eigenvalues --   -0.56794  -0.56563  -0.56414  -0.56030  -0.54914
 Alpha  occ. eigenvalues --   -0.54827  -0.54612  -0.53509  -0.53285  -0.53067
 Alpha  occ. eigenvalues --   -0.52791  -0.52516  -0.51775  -0.51128  -0.51045
 Alpha  occ. eigenvalues --   -0.50816  -0.50395  -0.50144  -0.49596  -0.49283
 Alpha  occ. eigenvalues --   -0.48887  -0.48521  -0.48388  -0.48071  -0.47498
 Alpha  occ. eigenvalues --   -0.47320  -0.47253  -0.47159  -0.46626  -0.46197
 Alpha  occ. eigenvalues --   -0.45790  -0.45534  -0.44644  -0.44065  -0.43884
 Alpha  occ. eigenvalues --   -0.43398  -0.42496  -0.42148  -0.41577  -0.41388
 Alpha  occ. eigenvalues --   -0.40829  -0.40501  -0.40322  -0.39568  -0.39408
 Alpha  occ. eigenvalues --   -0.39368  -0.38548  -0.38360  -0.38124  -0.36907
 Alpha  occ. eigenvalues --   -0.36393  -0.36218  -0.34190  -0.33518  -0.33144
 Alpha  occ. eigenvalues --   -0.32727  -0.31637  -0.30200  -0.28412  -0.28406
 Alpha  occ. eigenvalues --   -0.26728  -0.26443
 Alpha virt. eigenvalues --   -0.11671  -0.10992  -0.09096  -0.07596  -0.07324
 Alpha virt. eigenvalues --   -0.06047  -0.05421  -0.04544  -0.04025  -0.03926
 Alpha virt. eigenvalues --   -0.03385  -0.01321  -0.00756  -0.00579  -0.00334

 Mulliken charges:
               1
     1  N   -0.754535
     2  H    0.417230
     3  H    0.434188
     4  H    0.412954
     5  C   -0.130321
     6  H    0.215063
     7  C    0.656054
     8  C   -0.296852
     9  H    0.228568
    10  H    0.186449
    11  O   -0.535487
    12  C   -0.387805
    13  H    0.232815
    14  H    0.157892
    15  C    0.615642
    16  O   -0.446606
    17  O   -0.560925
    18  N   -0.542945
    19  H    0.349579
    20  C   -0.111894
    21  H    0.210236
    22  C    0.642011
    23  C   -0.384190
    24  H    0.188573
    25  H    0.155682
    26  O   -0.576515
    27  C    0.088525
    28  C   -0.011086
    29  H    0.151205
    30  C    0.083744
    31  C    0.309222
    32  C   -0.213219
    33  H    0.128826
    34  N   -0.689993
    35  H    0.335217
    36  C   -0.150604
    37  H    0.137376
    38  C   -0.162382
    39  H    0.133392
    40  C   -0.139953
    41  H    0.133698
    42  N   -0.622550
    43  H    0.363732
    44  C   -0.063666
    45  H    0.175352
    46  C    0.591249
    47  C    0.145322
    48  H    0.147391
    49  O   -0.606714
    50  C   -0.488586
    51  H    0.135045
    52  H    0.146257
    53  H    0.170904
    54  O   -0.717359
    55  N   -0.639261
    56  H    0.440224
    57  C    0.012429
    58  H    0.162516
    59  C    0.597790
    60  C   -0.316850
    61  H    0.162167
    62  H    0.123436
    63  O   -0.525498
    64  C   -0.253212
    65  H    0.135924
    66  H    0.179150
    67  C   -0.186879
    68  H    0.173097
    69  H    0.221507
    70  N   -0.575593
    71  H    0.346993
    72  N   -0.779062
    73  H    0.389472
    74  H    0.412241
    75  N   -0.747478
    76  H    0.364231
    77  H    0.375062
    78  C    0.749977
    79  O   -0.544000
    80  H    0.408320
    81  H    0.428088
 Sum of Mulliken charges =   1.00000

 Dipole moment (field-independent basis, Debye):
    X=              1.4366    Y=             -0.2515    Z=              9.8685  Tot=              9.9757
 Quadrupole moment (field-independent basis, Debye-Ang):
   XX=            -54.4978   YY=           -233.1857   ZZ=           -139.2542
   XY=             -7.3508   XZ=           -101.2916   YZ=             -8.0451

 Normal termination of Gaussian 16 at Sat May 14 00:57:42 2022.
