 Gaussian 16, Revision C.01,
 Gaussian 16:  ES64L-G16RevC.01  3-Jul-2019

 ----------------------------------------------------------------------
 # B3LYP/6-31G* empiricaldispersion=gd3 guess=read geom=check nosymm in
 tegral(ultrafinegrid)
 ----------------------------------------------------------------------

 ------------------------------------------------------
 Candidate Structure: Conf:515 Charge calc in gas phase
 ------------------------------------------------------
 Structure from the checkpoint file:  "conf-515.chk"
 Charge =  1 Multiplicity = 1

                          Input orientation:
 ---------------------------------------------------------------------
 Center     Atomic      Atomic             Coordinates (Angstroms)
 Number     Number       Type             X           Y           Z
 ---------------------------------------------------------------------
      1          7           0       -0.487799   -0.870117    1.900896
      2          1           0        0.185930   -0.867194    1.136105
      3          1           0        0.272060    0.656517    2.865696
      4          1           0       -0.402234   -1.763592    2.380439
      5          6           0       -1.857116   -0.692820    1.367616
      6          1           0       -2.195900   -1.573329    0.795724
      7          6           0       -1.720204    0.434014    0.334496
      8          6           0       -2.849996   -0.420311    2.501502
      9          1           0       -2.504830    0.448655    3.074117
     10          1           0       -3.834670   -0.187698    2.078627
     11          8           0       -0.938883    0.318876   -0.612100
     12          6           0       -3.002993   -1.620445    3.450888
     13          1           0       -2.067399   -1.846271    3.967348
     14          1           0       -3.304512   -2.509983    2.880217
     15          6           0       -4.041342   -1.401772    4.534192
     16          8           0       -3.875078   -1.599636    5.713699
     17          8           0       -5.220168   -0.963015    4.016487
     18          7           0       -2.377733    1.609102    0.541538
     19          1           0       -3.108257    1.712300    1.235100
     20          6           0       -2.027189    2.761340   -0.271782
     21          1           0       -2.112491    2.485046   -1.324498
     22          6           0       -0.549861    3.140949   -0.065923
     23          6           0       -2.960611    3.957059    0.029811
     24          1           0       -2.671842    4.771166   -0.647937
     25          1           0       -2.765062    4.317050    1.047781
     26          8           0        0.099969    3.689535   -0.985427
     27          6           0       -4.408573    3.607823   -0.127682
     28          6           0       -5.367714    3.640642    0.857916
     29          1           0       -5.279911    3.949015    1.891171
     30          6           0       -5.063746    3.137688   -1.324667
     31          6           0       -6.427669    2.912727   -0.989582
     32          6           0       -4.642163    2.877886   -2.641449
     33          1           0       -3.605750    3.031098   -2.928656
     34          7           0       -6.578541    3.227451    0.346349
     35          1           0       -7.446713    3.194854    0.858990
     36          6           0       -6.913391    2.204019   -3.213078
     37          1           0       -7.613246    1.843158   -3.960732
     38          6           0       -7.362193    2.449399   -1.921050
     39          1           0       -8.400217    2.286603   -1.645571
     40          6           0       -5.565176    2.414730   -3.569785
     41          1           0       -5.248939    2.206871   -4.588465
     42          7           0       -0.046786    2.842410    1.127554
     43          1           0       -0.624856    2.321156    1.788488
     44          6           0        1.356193    2.769426    1.514896
     45          1           0        1.840185    3.740828    1.375891
     46          6           0        2.087123    1.690279    0.686126
     47          6           0        1.347890    2.364321    3.031512
     48          1           0        2.282115    1.827094    3.243132
     49          8           0        1.988639    0.495479    0.962866
     50          6           0        1.227814    3.592521    3.927715
     51          1           0        2.098884    4.247081    3.818576
     52          1           0        1.150422    3.278743    4.971753
     53          1           0        0.326550    4.164536    3.675825
     54          8           0        0.214935    1.540835    3.296979
     55          7           0        2.851218    2.161142   -0.330889
     56          1           0        2.831691    3.152496   -0.530994
     57          6           0        3.642185    1.298704   -1.193905
     58          1           0        3.727349    0.337712   -0.673624
     59          6           0        5.072592    1.798913   -1.406229
     60          6           0        2.976030    1.070370   -2.568892
     61          1           0        3.713176    0.626666   -3.243222
     62          1           0        2.724475    2.058095   -2.979891
     63          8           0        5.795891    1.336682   -2.257810
     64          6           0        1.719728    0.186542   -2.465920
     65          1           0        1.989843   -0.867620   -2.589837
     66          1           0        1.260514    0.266956   -1.479072
     67          6           0        0.648497    0.533897   -3.502538
     68          1           0        1.060941    0.485811   -4.519368
     69          1           0       -0.189771   -0.167562   -3.417836
     70          7           0        0.168773    1.900697   -3.251153
     71          1           0        0.375323    2.316201   -2.340490
     72          7           0       -1.247022    2.041686   -5.096057
     73          1           0       -1.741346    2.627051   -5.753597
     74          1           0       -0.917256    1.153069   -5.442528
     75          7           0       -1.083121    3.805429   -3.578733
     76          1           0       -0.769434    4.104725   -2.649590
     77          1           0       -1.884486    4.260117   -3.991319
     78          6           0       -0.718655    2.572330   -3.974595
     79          8           0        5.429436    2.802343   -0.578679
     80          1           0        6.350500    3.036735   -0.805729
     81          1           0       -5.834771   -0.879599    4.770573
 ---------------------------------------------------------------------

 SCF Done:  E(RB3LYP) =  -2054.08539670     A.U. after    1 cycles

 Alpha  occ. eigenvalues --  -19.28875 -19.26841 -19.24155 -19.22674 -19.22470
 Alpha  occ. eigenvalues --  -19.22075 -19.21540 -19.20959 -14.51311 -14.49679
 Alpha  occ. eigenvalues --  -14.49583 -14.47146 -14.46893 -14.46642 -14.46499
 Alpha  occ. eigenvalues --  -14.41615 -10.46702 -10.41121 -10.40448 -10.39393
 Alpha  occ. eigenvalues --  -10.39311 -10.38796 -10.34536 -10.34427 -10.33561
 Alpha  occ. eigenvalues --  -10.33223 -10.32959 -10.32451 -10.31296 -10.30695
 Alpha  occ. eigenvalues --  -10.30547 -10.28736 -10.28696 -10.28553 -10.28409
 Alpha  occ. eigenvalues --  -10.27818 -10.27774 -10.27441 -10.27402 -10.26979
 Alpha  occ. eigenvalues --  -10.26911 -10.25504  -1.19634  -1.17519  -1.15740
 Alpha  occ. eigenvalues --   -1.15136  -1.14222  -1.13459  -1.10584  -1.09818
 Alpha  occ. eigenvalues --   -1.08589  -1.06867  -1.04661  -1.04333  -1.03519
 Alpha  occ. eigenvalues --   -1.02911  -1.02292  -0.98548  -0.92669  -0.90818
 Alpha  occ. eigenvalues --   -0.90473  -0.88191  -0.87624  -0.85884  -0.85023
 Alpha  occ. eigenvalues --   -0.82373  -0.81466  -0.80550  -0.79998  -0.79090
 Alpha  occ. eigenvalues --   -0.77112  -0.75854  -0.73106  -0.72793  -0.71706
 Alpha  occ. eigenvalues --   -0.71300  -0.71085  -0.69523  -0.69234  -0.68994
 Alpha  occ. eigenvalues --   -0.68600  -0.68157  -0.67686  -0.67355  -0.65742
 Alpha  occ. eigenvalues --   -0.63921  -0.63697  -0.63182  -0.62875  -0.62277
 Alpha  occ. eigenvalues --   -0.61324  -0.60636  -0.59877  -0.59480  -0.59113
 Alpha  occ. eigenvalues --   -0.58553  -0.58240  -0.57428  -0.57013  -0.56367
 Alpha  occ. eigenvalues --   -0.56188  -0.56016  -0.55627  -0.55114  -0.54825
 Alpha  occ. eigenvalues --   -0.54669  -0.53948  -0.53478  -0.53208  -0.52831
 Alpha  occ. eigenvalues --   -0.52223  -0.52042  -0.51887  -0.51738  -0.51565
 Alpha  occ. eigenvalues --   -0.51036  -0.50645  -0.50356  -0.49731  -0.49281
 Alpha  occ. eigenvalues --   -0.49064  -0.48486  -0.48086  -0.47825  -0.47470
 Alpha  occ. eigenvalues --   -0.47340  -0.46694  -0.46399  -0.45921  -0.45844
 Alpha  occ. eigenvalues --   -0.45132  -0.44952  -0.44863  -0.44608  -0.44251
 Alpha  occ. eigenvalues --   -0.44053  -0.44020  -0.42407  -0.42080  -0.41902
 Alpha  occ. eigenvalues --   -0.40974  -0.40536  -0.39574  -0.39027  -0.38931
 Alpha  occ. eigenvalues --   -0.38759  -0.37591  -0.36678  -0.36141  -0.36124
 Alpha  occ. eigenvalues --   -0.36008  -0.34876  -0.34240  -0.34093  -0.33947
 Alpha  occ. eigenvalues --   -0.31073  -0.29395
 Alpha virt. eigenvalues --   -0.10817  -0.10586  -0.10068  -0.08866  -0.08102
 Alpha virt. eigenvalues --   -0.07769  -0.07146  -0.06387  -0.06180  -0.03525
 Alpha virt. eigenvalues --   -0.02871  -0.01805  -0.01729  -0.01262  -0.00269

 Mulliken charges:
               1
     1  N   -0.776869
     2  H    0.364228
     3  H    0.456991
     4  H    0.328065
     5  C   -0.042271
     6  H    0.158047
     7  C    0.618448
     8  C   -0.299781
     9  H    0.171435
    10  H    0.167348
    11  O   -0.543392
    12  C   -0.357634
    13  H    0.187665
    14  H    0.180299
    15  C    0.571567
    16  O   -0.437997
    17  O   -0.569499
    18  N   -0.636881
    19  H    0.352084
    20  C   -0.016314
    21  H    0.173873
    22  C    0.647918
    23  C   -0.395584
    24  H    0.167315
    25  H    0.165985
    26  O   -0.610523
    27  C    0.056949
    28  C   -0.005848
    29  H    0.168122
    30  C    0.090085
    31  C    0.313211
    32  C   -0.203746
    33  H    0.083366
    34  N   -0.684539
    35  H    0.343841
    36  C   -0.149104
    37  H    0.146292
    38  C   -0.154543
    39  H    0.146466
    40  C   -0.138116
    41  H    0.115964
    42  N   -0.584083
    43  H    0.371552
    44  C   -0.077624
    45  H    0.169072
    46  C    0.635710
    47  C    0.116018
    48  H    0.161576
    49  O   -0.539407
    50  C   -0.451346
    51  H    0.153973
    52  H    0.182750
    53  H    0.150040
    54  O   -0.674881
    55  N   -0.594735
    56  H    0.349400
    57  C   -0.072868
    58  H    0.224489
    59  C    0.590705
    60  C   -0.280418
    61  H    0.197695
    62  H    0.143814
    63  O   -0.444579
    64  C   -0.344680
    65  H    0.173998
    66  H    0.222784
    67  C   -0.144535
    68  H    0.165125
    69  H    0.190848
    70  N   -0.624043
    71  H    0.407902
    72  N   -0.764152
    73  H    0.376139
    74  H    0.385341
    75  N   -0.787645
    76  H    0.411997
    77  H    0.364196
    78  C    0.807200
    79  O   -0.565417
    80  H    0.427508
    81  H    0.417657
 Sum of Mulliken charges =   1.00000

 Dipole moment (field-independent basis, Debye):
    X=             -8.4859    Y=             11.5405    Z=             -9.3948  Tot=             17.1305
 Quadrupole moment (field-independent basis, Debye-Ang):
   XX=           -158.2943   YY=           -197.1790   ZZ=           -184.3426
   XY=            -12.6621   XZ=              6.7451   YZ=            -14.3715

 Normal termination of Gaussian 16 at Sat May 14 00:58:07 2022.
