 Gaussian 16, Revision C.01,
 Gaussian 16:  ES64L-G16RevC.01  3-Jul-2019

 ----------------------------------------------------------------------
 # B3LYP/6-31G* empiricaldispersion=gd3 guess=read geom=check nosymm in
 tegral(ultrafinegrid)
 ----------------------------------------------------------------------

 ------------------------------------------------------
 Candidate Structure: Conf:305 Charge calc in gas phase
 ------------------------------------------------------
 Structure from the checkpoint file:  "conf-305.chk"
 Charge =  1 Multiplicity = 1

                          Input orientation:
 ---------------------------------------------------------------------
 Center     Atomic      Atomic             Coordinates (Angstroms)
 Number     Number       Type             X           Y           Z
 ---------------------------------------------------------------------
      1          7           0       -2.382461   -1.079226    3.010441
      2          1           0       -3.083851   -1.740388    2.675610
      3          1           0       -1.151379   -1.609470    1.567610
      4          1           0       -2.266726   -1.219428    4.010238
      5          6           0       -2.850808    0.277711    2.716954
      6          1           0       -3.578278    0.656716    3.454073
      7          6           0       -3.544697    0.190174    1.333462
      8          6           0       -1.637166    1.226282    2.623572
      9          1           0       -1.118991    1.004390    1.689196
     10          1           0       -1.965414    2.270288    2.562396
     11          8           0       -3.925872   -0.890302    0.896869
     12          6           0       -0.617272    1.113281    3.758790
     13          1           0       -0.394448    0.058345    3.965465
     14          1           0       -0.967800    1.563362    4.691860
     15          6           0        0.707234    1.728171    3.348862
     16          8           0        1.164194    1.711129    2.223555
     17          8           0        1.362372    2.267687    4.395501
     18          7           0       -3.615032    1.334372    0.589466
     19          1           0       -3.250425    2.192806    0.983875
     20          6           0       -3.476357    1.282329   -0.875026
     21          1           0       -3.980386    0.381184   -1.227060
     22          6           0       -1.952158    1.176653   -1.083851
     23          6           0       -4.111892    2.524929   -1.530290
     24          1           0       -5.195281    2.362038   -1.502256
     25          1           0       -3.822473    2.528321   -2.587226
     26          8           0       -1.253791    2.184189   -1.196879
     27          6           0       -3.804875    3.863370   -0.915311
     28          6           0       -4.443226    4.407236    0.176750
     29          1           0       -5.237925    3.993833    0.783258
     30          6           0       -2.875991    4.862392   -1.382607
     31          6           0       -3.010445    5.992070   -0.534207
     32          6           0       -1.954201    4.914124   -2.440496
     33          1           0       -1.801641    4.046703   -3.073813
     34          7           0       -3.959718    5.677845    0.419454
     35          1           0       -4.310233    6.308854    1.122335
     36          6           0       -1.380966    7.191232   -1.790260
     37          1           0       -0.792149    8.086215   -1.970051
     38          6           0       -2.270396    7.164416   -0.723460
     39          1           0       -2.389646    8.020114   -0.064594
     40          6           0       -1.222154    6.074960   -2.638869
     41          1           0       -0.504224    6.122848   -3.451544
     42          7           0       -1.411512   -0.075325   -1.011665
     43          1           0       -2.010837   -0.851198   -0.735018
     44          6           0       -0.009153   -0.244631   -0.604916
     45          1           0        0.243927    0.553811    0.105821
     46          6           0        0.920141   -0.087643   -1.825103
     47          6           0        0.189325   -1.643672    0.064751
     48          1           0        0.352051   -2.362198   -0.744162
     49          8           0        1.505696   -1.064923   -2.342826
     50          6           0        1.414946   -1.614949    0.978717
     51          1           0        2.315969   -1.348286    0.415102
     52          1           0        1.561539   -2.598259    1.435102
     53          1           0        1.283353   -0.868749    1.771165
     54          8           0       -0.967625   -2.089140    0.720813
     55          7           0        1.066094    1.158568   -2.291925
     56          1           0        0.484272    1.906691   -1.895933
     57          6           0        1.909662    1.396618   -3.447070
     58          1           0        2.877587    0.925099   -3.239563
     59          6           0        2.168835    2.883822   -3.597316
     60          6           0        1.330651    0.752603   -4.743193
     61          1           0        0.890157    1.498807   -5.413812
     62          1           0        0.508626    0.112733   -4.419712
     63          8           0        1.699161    3.754814   -2.907341
     64          6           0        2.371077   -0.127335   -5.450907
     65          1           0        3.017796    0.458000   -6.111833
     66          1           0        3.027003   -0.547739   -4.683215
     67          6           0        1.719196   -1.308503   -6.191245
     68          1           0        0.785203   -1.600695   -5.696586
     69          1           0        1.461203   -1.061733   -7.223473
     70          7           0        2.579690   -2.501501   -6.250377
     71          1           0        2.919284   -2.793947   -7.154862
     72          7           0        2.393583   -3.048735   -3.979718
     73          1           0        2.707767   -3.628172   -3.213291
     74          1           0        1.985006   -2.163953   -3.639904
     75          7           0        3.613191   -4.396637   -5.415270
     76          1           0        3.968615   -4.631352   -6.329656
     77          1           0        3.764102   -5.072653   -4.681900
     78          6           0        2.856314   -3.296261   -5.204366
     79          8           0        3.004868    3.100580   -4.637441
     80          1           0        3.136899    4.064898   -4.702732
     81          1           0        2.214047    2.602720    4.056542
 ---------------------------------------------------------------------

 SCF Done:  E(RB3LYP) =  -2054.05257170     A.U. after    1 cycles

 Alpha  occ. eigenvalues --  -19.28714 -19.26946 -19.23055 -19.21916 -19.21410
 Alpha  occ. eigenvalues --  -19.20017 -19.19779 -19.19778 -14.52275 -14.52213
 Alpha  occ. eigenvalues --  -14.50462 -14.44548 -14.43626 -14.43411 -14.43115
 Alpha  occ. eigenvalues --  -14.40466 -10.48376 -10.41117 -10.39616 -10.38151
 Alpha  occ. eigenvalues --  -10.36641 -10.36566 -10.35823 -10.33433 -10.30934
 Alpha  occ. eigenvalues --  -10.30916 -10.30668 -10.30582 -10.30134 -10.29437
 Alpha  occ. eigenvalues --  -10.27767 -10.27285 -10.27141 -10.26574 -10.26031
 Alpha  occ. eigenvalues --  -10.24202 -10.23789 -10.23408 -10.22958 -10.22919
 Alpha  occ. eigenvalues --  -10.22859 -10.22397  -1.19606  -1.17902  -1.16553
 Alpha  occ. eigenvalues --   -1.13123  -1.12164  -1.11386  -1.10816  -1.08832
 Alpha  occ. eigenvalues --   -1.07827  -1.06128  -1.04330  -1.02949  -1.01710
 Alpha  occ. eigenvalues --   -1.00505  -0.99349  -0.97420  -0.91525  -0.88386
 Alpha  occ. eigenvalues --   -0.87402  -0.86792  -0.86116  -0.84312  -0.82158
 Alpha  occ. eigenvalues --   -0.81354  -0.79105  -0.78100  -0.77983  -0.77530
 Alpha  occ. eigenvalues --   -0.76375  -0.74078  -0.72998  -0.72745  -0.71593
 Alpha  occ. eigenvalues --   -0.70659  -0.70215  -0.67788  -0.67018  -0.66979
 Alpha  occ. eigenvalues --   -0.66572  -0.65522  -0.65468  -0.65028  -0.63984
 Alpha  occ. eigenvalues --   -0.63539  -0.61836  -0.61385  -0.61167  -0.60794
 Alpha  occ. eigenvalues --   -0.59581  -0.59052  -0.58699  -0.58199  -0.57802
 Alpha  occ. eigenvalues --   -0.57672  -0.56690  -0.56525  -0.56305  -0.55666
 Alpha  occ. eigenvalues --   -0.55047  -0.54614  -0.54401  -0.53377  -0.53047
 Alpha  occ. eigenvalues --   -0.52849  -0.52472  -0.52208  -0.52067  -0.51671
 Alpha  occ. eigenvalues --   -0.51037  -0.50404  -0.50146  -0.49442  -0.49225
 Alpha  occ. eigenvalues --   -0.48787  -0.48578  -0.48253  -0.47625  -0.47343
 Alpha  occ. eigenvalues --   -0.47045  -0.46749  -0.46458  -0.46293  -0.46042
 Alpha  occ. eigenvalues --   -0.45600  -0.45352  -0.44613  -0.44505  -0.44351
 Alpha  occ. eigenvalues --   -0.44145  -0.43660  -0.43241  -0.43110  -0.42710
 Alpha  occ. eigenvalues --   -0.42525  -0.42397  -0.40876  -0.40607  -0.39850
 Alpha  occ. eigenvalues --   -0.39072  -0.38439  -0.38022  -0.37813  -0.36921
 Alpha  occ. eigenvalues --   -0.36302  -0.35715  -0.35225  -0.34976  -0.33764
 Alpha  occ. eigenvalues --   -0.33607  -0.33206  -0.32862  -0.32380  -0.30954
 Alpha  occ. eigenvalues --   -0.26882  -0.25240
 Alpha virt. eigenvalues --   -0.11760  -0.09043  -0.08523  -0.08096  -0.07309
 Alpha virt. eigenvalues --   -0.06401  -0.05898  -0.04856  -0.04367  -0.03772
 Alpha virt. eigenvalues --   -0.01840  -0.01319  -0.01223  -0.00178   0.00067

 Mulliken charges:
               1
     1  N   -0.762266
     2  H    0.355991
     3  H    0.429212
     4  H    0.320662
     5  C   -0.063967
     6  H    0.161371
     7  C    0.599354
     8  C   -0.301144
     9  H    0.186091
    10  H    0.155864
    11  O   -0.510184
    12  C   -0.365942
    13  H    0.191241
    14  H    0.181912
    15  C    0.589838
    16  O   -0.462688
    17  O   -0.553984
    18  N   -0.594525
    19  H    0.347122
    20  C   -0.057034
    21  H    0.185828
    22  C    0.604721
    23  C   -0.352648
    24  H    0.166975
    25  H    0.159925
    26  O   -0.526362
    27  C    0.050846
    28  C   -0.018045
    29  H    0.155076
    30  C    0.097231
    31  C    0.307869
    32  C   -0.176357
    33  H    0.110972
    34  N   -0.688289
    35  H    0.331967
    36  C   -0.149781
    37  H    0.128245
    38  C   -0.162313
    39  H    0.127676
    40  C   -0.134312
    41  H    0.116400
    42  N   -0.623394
    43  H    0.375538
    44  C   -0.124707
    45  H    0.214010
    46  C    0.658255
    47  C    0.144494
    48  H    0.137791
    49  O   -0.607841
    50  C   -0.482661
    51  H    0.146212
    52  H    0.160128
    53  H    0.159945
    54  O   -0.666774
    55  N   -0.618584
    56  H    0.413901
    57  C   -0.011119
    58  H    0.192749
    59  C    0.565782
    60  C   -0.285450
    61  H    0.176512
    62  H    0.171402
    63  O   -0.429372
    64  C   -0.288631
    65  H    0.183475
    66  H    0.157127
    67  C   -0.171585
    68  H    0.192478
    69  H    0.193262
    70  N   -0.602872
    71  H    0.361576
    72  N   -0.789164
    73  H    0.370298
    74  H    0.447863
    75  N   -0.772707
    76  H    0.378818
    77  H    0.381890
    78  C    0.834151
    79  O   -0.571530
    80  H    0.427890
    81  H    0.418303
 Sum of Mulliken charges =   1.00000

 Dipole moment (field-independent basis, Debye):
    X=              8.6907    Y=             -6.3401    Z=            -15.7708  Tot=             19.0904
 Quadrupole moment (field-independent basis, Debye-Ang):
   XX=           -183.5133   YY=           -172.0039   ZZ=            -80.3381
   XY=            -52.3527   XZ=            -80.1265   YZ=             69.7888

 Normal termination of Gaussian 16 at Sat May 14 00:58:06 2022.
