 Gaussian 16, Revision C.01,
 Gaussian 16:  ES64L-G16RevC.01  3-Jul-2019

 ----------------------------------------------------------------------
 # B3LYP/6-31G* empiricaldispersion=gd3 guess=read geom=check nosymm in
 tegral(ultrafinegrid)
 ----------------------------------------------------------------------

 ------------------------------------------------------
 Candidate Structure: Conf:669 Charge calc in gas phase
 ------------------------------------------------------
 Structure from the checkpoint file:  "conf-669.chk"
 Charge =  1 Multiplicity = 1

                          Input orientation:
 ---------------------------------------------------------------------
 Center     Atomic      Atomic             Coordinates (Angstroms)
 Number     Number       Type             X           Y           Z
 ---------------------------------------------------------------------
      1          7           0       -4.368404   -2.180316    1.624980
      2          1           0       -5.264357   -1.845612    1.224379
      3          1           0       -3.963542   -2.864057    0.942665
      4          1           0       -4.522648   -2.596132    2.545919
      5          6           0       -3.359965   -1.052283    1.628505
      6          1           0       -3.902345   -0.118007    1.764336
      7          6           0       -2.790951   -1.147968    0.193140
      8          6           0       -2.348327   -1.264880    2.766796
      9          1           0       -2.927828   -1.302296    3.701544
     10          1           0       -1.871771   -2.244461    2.634745
     11          8           0       -2.890037   -2.227132   -0.408838
     12          6           0       -1.222203   -0.226080    2.898747
     13          1           0       -0.414853   -0.425529    2.100688
     14          1           0       -0.697104   -0.387788    3.843735
     15          6           0       -1.595220    1.202315    2.773811
     16          8           0       -2.478883    1.676343    2.056663
     17          8           0       -0.770036    2.011641    3.468700
     18          7           0       -2.288699   -0.015018   -0.280319
     19          1           0       -2.355352    0.796000    0.334460
     20          6           0       -1.906296    0.219227   -1.668823
     21          1           0       -1.733593   -0.766525   -2.108617
     22          6           0       -0.550247    0.974911   -1.640765
     23          6           0       -3.021550    0.975117   -2.467674
     24          1           0       -3.512484    0.269944   -3.146118
     25          1           0       -2.523754    1.732773   -3.078640
     26          8           0       -0.369032    2.015047   -2.303274
     27          6           0       -4.038608    1.612884   -1.567599
     28          6           0       -3.991237    2.873808   -1.029546
     29          1           0       -3.291787    3.674399   -1.226700
     30          6           0       -5.146894    0.945805   -0.929628
     31          6           0       -5.717680    1.862551    0.001608
     32          6           0       -5.693791   -0.342610   -1.037747
     33          1           0       -5.275118   -1.059086   -1.738664
     34          7           0       -5.002123    3.031834   -0.097249
     35          1           0       -5.154660    3.859438    0.457854
     36          6           0       -7.303037    0.225539    0.715949
     37          1           0       -8.147772   -0.068579    1.332346
     38          6           0       -6.785938    1.512174    0.835340
     39          1           0       -7.203215    2.220554    1.545338
     40          6           0       -6.769236   -0.694004   -0.218622
     41          1           0       -7.241136   -1.667324   -0.338237
     42          7           0        0.343194    0.371706   -0.861057
     43          1           0        0.115390   -0.464985   -0.218596
     44          6           0        1.519685    0.909516   -0.209813
     45          1           0        1.266959    1.853889    0.299011
     46          6           0        2.696733    1.237101   -1.108695
     47          6           0        1.864836   -0.214708    0.907747
     48          1           0        2.704156   -0.800169    0.479893
     49          8           0        3.866037    1.230368   -0.716028
     50          6           0        2.386298    0.492520    2.165604
     51          1           0        3.270611    1.099883    1.939131
     52          1           0        2.652497   -0.253677    2.921761
     53          1           0        1.608728    1.141079    2.590604
     54          8           0        0.764424   -1.001383    1.120569
     55          7           0        2.395523    1.593887   -2.398809
     56          1           0        1.439388    1.922206   -2.585748
     57          6           0        3.501201    2.013715   -3.210075
     58          1           0        4.268183    1.241740   -3.108033
     59          6           0        4.209251    3.269826   -2.701997
     60          6           0        3.123425    2.164321   -4.713708
     61          1           0        3.501187    3.109255   -5.127005
     62          1           0        2.034043    2.224438   -4.792520
     63          8           0        5.384774    3.522080   -2.978126
     64          6           0        3.622112    0.978380   -5.556776
     65          1           0        3.423484    0.048670   -5.010623
     66          1           0        3.053935    0.920430   -6.492649
     67          6           0        5.116925    1.043213   -5.941867
     68          1           0        5.416602    0.076169   -6.353302
     69          1           0        5.291382    1.792659   -6.720183
     70          7           0        5.980267    1.380126   -4.804893
     71          1           0        5.884226    2.330511   -4.434012
     72          7           0        7.088005   -0.646229   -4.377963
     73          1           0        7.317462   -1.344298   -3.685752
     74          1           0        7.061667   -0.938853   -5.341672
     75          7           0        6.952149    1.006401   -2.759960
     76          1           0        6.516540    1.864524   -2.428119
     77          1           0        7.734351    0.633453   -2.242014
     78          6           0        6.673320    0.578076   -4.001112
     79          8           0        3.449870    4.102048   -2.007062
     80          1           0        4.001008    4.864486   -1.742813
     81          1           0       -1.017980    2.928097    3.243443
 ---------------------------------------------------------------------

 SCF Done:  E(RB3LYP) =  -2054.00494206     A.U. after    1 cycles

 Alpha  occ. eigenvalues --  -19.30261 -19.26370 -19.25082 -19.21299 -19.21000
 Alpha  occ. eigenvalues --  -19.17927 -19.17875 -19.08672 -14.54834 -14.50996
 Alpha  occ. eigenvalues --  -14.49983 -14.49574 -14.45110 -14.43933 -14.41488
 Alpha  occ. eigenvalues --  -14.38841 -10.46820 -10.42806 -10.38967 -10.37994
 Alpha  occ. eigenvalues --  -10.35298 -10.34710 -10.34347 -10.34319 -10.32758
 Alpha  occ. eigenvalues --  -10.30152 -10.29945 -10.29744 -10.29512 -10.29121
 Alpha  occ. eigenvalues --  -10.28824 -10.26675 -10.26559 -10.26555 -10.26498
 Alpha  occ. eigenvalues --  -10.26311 -10.25788 -10.25545 -10.25104 -10.24761
 Alpha  occ. eigenvalues --  -10.24409 -10.19093  -1.21594  -1.17343  -1.15297
 Alpha  occ. eigenvalues --   -1.13790  -1.12095  -1.09834  -1.08899  -1.08566
 Alpha  occ. eigenvalues --   -1.07984  -1.05077  -1.04788  -1.03147  -1.01565
 Alpha  occ. eigenvalues --   -0.99287  -0.98458  -0.93805  -0.91538  -0.90530
 Alpha  occ. eigenvalues --   -0.89051  -0.87196  -0.85443  -0.83636  -0.81336
 Alpha  occ. eigenvalues --   -0.80791  -0.80479  -0.79271  -0.78051  -0.77238
 Alpha  occ. eigenvalues --   -0.75070  -0.73847  -0.72905  -0.72275  -0.71817
 Alpha  occ. eigenvalues --   -0.70400  -0.69741  -0.69100  -0.68152  -0.68003
 Alpha  occ. eigenvalues --   -0.67039  -0.66648  -0.66062  -0.64622  -0.64414
 Alpha  occ. eigenvalues --   -0.63594  -0.62889  -0.62549  -0.61580  -0.61286
 Alpha  occ. eigenvalues --   -0.60986  -0.59760  -0.59113  -0.58729  -0.58308
 Alpha  occ. eigenvalues --   -0.56737  -0.56653  -0.56267  -0.56025  -0.55642
 Alpha  occ. eigenvalues --   -0.55121  -0.54743  -0.54536  -0.54368  -0.53817
 Alpha  occ. eigenvalues --   -0.53539  -0.53221  -0.52261  -0.51801  -0.51436
 Alpha  occ. eigenvalues --   -0.51004  -0.50517  -0.50382  -0.50056  -0.49130
 Alpha  occ. eigenvalues --   -0.49028  -0.48458  -0.47732  -0.47402  -0.46934
 Alpha  occ. eigenvalues --   -0.46585  -0.46331  -0.46008  -0.45764  -0.45421
 Alpha  occ. eigenvalues --   -0.45213  -0.44944  -0.44760  -0.44374  -0.44100
 Alpha  occ. eigenvalues --   -0.43487  -0.42908  -0.42618  -0.42416  -0.41633
 Alpha  occ. eigenvalues --   -0.41407  -0.41286  -0.41105  -0.40275  -0.39664
 Alpha  occ. eigenvalues --   -0.38963  -0.38807  -0.38559  -0.37203  -0.36024
 Alpha  occ. eigenvalues --   -0.35431  -0.35014  -0.34607  -0.34489  -0.32867
 Alpha  occ. eigenvalues --   -0.32318  -0.31184  -0.30068  -0.29327  -0.27592
 Alpha  occ. eigenvalues --   -0.24649  -0.22689
 Alpha virt. eigenvalues --   -0.11364  -0.09872  -0.08978  -0.06976  -0.06740
 Alpha virt. eigenvalues --   -0.06638  -0.05909  -0.04677  -0.04416  -0.03725
 Alpha virt. eigenvalues --   -0.02973  -0.01919  -0.00834  -0.00668  -0.00007

 Mulliken charges:
               1
     1  N   -0.758250
     2  H    0.404687
     3  H    0.415905
     4  H    0.395561
     5  C   -0.133917
     6  H    0.236393
     7  C    0.664450
     8  C   -0.283155
     9  H    0.150258
    10  H    0.184432
    11  O   -0.564994
    12  C   -0.422005
    13  H    0.303518
    14  H    0.181364
    15  C    0.594791
    16  O   -0.532842
    17  O   -0.546256
    18  N   -0.613686
    19  H    0.400754
    20  C   -0.044121
    21  H    0.199359
    22  C    0.585107
    23  C   -0.370439
    24  H    0.154746
    25  H    0.192098
    26  O   -0.581219
    27  C    0.047452
    28  C    0.015955
    29  H    0.174942
    30  C    0.079364
    31  C    0.328737
    32  C   -0.224012
    33  H    0.153552
    34  N   -0.681527
    35  H    0.339084
    36  C   -0.159589
    37  H    0.142404
    38  C   -0.161151
    39  H    0.143991
    40  C   -0.220303
    41  H    0.140698
    42  N   -0.617793
    43  H    0.391308
    44  C   -0.110596
    45  H    0.153642
    46  C    0.624429
    47  C    0.220506
    48  H    0.085540
    49  O   -0.553905
    50  C   -0.475916
    51  H    0.136561
    52  H    0.139560
    53  H    0.127053
    54  O   -0.688783
    55  N   -0.641634
    56  H    0.391102
    57  C   -0.017146
    58  H    0.171751
    59  C    0.619198
    60  C   -0.320170
    61  H    0.163163
    62  H    0.197462
    63  O   -0.535187
    64  C   -0.275722
    65  H    0.174481
    66  H    0.174848
    67  C   -0.165434
    68  H    0.163832
    69  H    0.196734
    70  N   -0.601932
    71  H    0.397932
    72  N   -0.760478
    73  H    0.384837
    74  H    0.381369
    75  N   -0.752803
    76  H    0.415103
    77  H    0.373654
    78  C    0.779704
    79  O   -0.520249
    80  H    0.431095
    81  H    0.410747
 Sum of Mulliken charges =   1.00000

 Dipole moment (field-independent basis, Debye):
    X=              7.1988    Y=              2.5936    Z=            -10.4174  Tot=             12.9256
 Quadrupole moment (field-independent basis, Debye-Ang):
   XX=            -38.0341   YY=           -197.4860   ZZ=           -149.5680
   XY=             18.0576   XZ=           -127.3865   YZ=             -9.2395

 Normal termination of Gaussian 16 at Sat May 14 00:58:05 2022.
