 Gaussian 16, Revision C.01,
 Gaussian 16:  ES64L-G16RevC.01  3-Jul-2019

 ----------------------------------------------------------------------
 # B3LYP/6-31G* empiricaldispersion=gd3 guess=read geom=check nosymm in
 tegral(ultrafinegrid)
 ----------------------------------------------------------------------

 ------------------------------------------------------
 Candidate Structure: Conf:190 Charge calc in gas phase
 ------------------------------------------------------
 Structure from the checkpoint file:  "conf-190.chk"
 Charge =  1 Multiplicity = 1

                          Input orientation:
 ---------------------------------------------------------------------
 Center     Atomic      Atomic             Coordinates (Angstroms)
 Number     Number       Type             X           Y           Z
 ---------------------------------------------------------------------
      1          7           0       -3.461652   -1.419345   -4.233814
      2          1           0       -4.195864   -0.717849   -4.327779
      3          1           0       -2.614889   -1.013835   -4.630525
      4          1           0       -3.722876   -2.237318   -4.780639
      5          6           0       -3.247689   -1.744262   -2.812049
      6          1           0       -4.183491   -2.135947   -2.391315
      7          6           0       -2.907890   -0.445203   -2.072073
      8          6           0       -2.161586   -2.797798   -2.612762
      9          1           0       -1.228837   -2.443749   -3.050931
     10          1           0       -1.989726   -2.909839   -1.539231
     11          8           0       -2.739177    0.599941   -2.671791
     12          6           0       -2.540269   -4.156439   -3.192211
     13          1           0       -2.640953   -4.102793   -4.281531
     14          1           0       -3.491560   -4.501639   -2.788487
     15          6           0       -1.517007   -5.214582   -2.897798
     16          8           0       -1.739458   -6.291563   -2.406546
     17          8           0       -0.272780   -4.835237   -3.276875
     18          7           0       -2.774876   -0.561910   -0.724167
     19          1           0       -3.128194   -1.389160   -0.266094
     20          6           0       -2.488155    0.604694    0.088315
     21          1           0       -3.026341    1.463713   -0.320709
     22          6           0       -1.001738    1.003458    0.100007
     23          6           0       -2.935487    0.381784    1.550386
     24          1           0       -2.805309    1.328227    2.075301
     25          1           0       -2.276982   -0.349031    2.029303
     26          8           0       -0.654082    2.053847    0.620908
     27          6           0       -4.356700   -0.082234    1.646326
     28          6           0       -5.481559    0.694199    1.649352
     29          1           0       -5.578469    1.769067    1.628047
     30          6           0       -4.805292   -1.452285    1.686816
     31          6           0       -6.210692   -1.433921    1.685450
     32          6           0       -4.129814   -2.676544    1.712704
     33          1           0       -3.046323   -2.715577    1.731257
     34          7           0       -6.601868   -0.114084    1.667029
     35          1           0       -7.549616    0.211259    1.668005
     36          6           0       -6.281472   -3.807766    1.700905
     37          1           0       -6.833271   -4.739719    1.702156
     38          6           0       -6.973305   -2.605037    1.689406
     39          1           0       -8.056782   -2.570984    1.682827
     40          6           0       -4.874772   -3.843472    1.715677
     41          1           0       -4.369566   -4.800701    1.724462
     42          7           0       -0.139385    0.122657   -0.448722
     43          1           0       -0.462491   -0.753783   -0.807659
     44          6           0        1.273545    0.322768   -0.495160
     45          1           0        1.488589    1.379935   -0.329929
     46          6           0        1.775094   -0.139357   -1.863878
     47          6           0        2.002854   -0.533700    0.644135
     48          1           0        3.111283   -0.434632    0.376328
     49          8           0        1.091877   -0.787228   -2.635535
     50          6           0        1.857955    0.294290    1.966342
     51          1           0        2.458781    1.203417    1.882812
     52          1           0        2.204006   -0.289535    2.821398
     53          1           0        0.816476    0.592661    2.130041
     54          8           0        1.584760   -1.721902    0.685027
     55          7           0        3.054175    0.202808   -2.150452
     56          1           0        3.620660    0.709847   -1.488709
     57          6           0        3.668700   -0.218244   -3.392232
     58          1           0        3.303615   -1.219457   -3.635942
     59          6           0        5.161847   -0.265156   -3.164258
     60          6           0        3.300695    0.729236   -4.549151
     61          1           0        3.746569    1.709574   -4.364387
     62          1           0        2.221031    0.856879   -4.509785
     63          8           0        5.758120    0.370914   -2.332203
     64          6           0        3.711975    0.212571   -5.919106
     65          1           0        4.798115    0.106806   -5.981699
     66          1           0        3.292659   -0.785171   -6.073957
     67          6           0        3.255178    1.133188   -7.033782
     68          1           0        3.637643    2.138296   -6.845820
     69          1           0        3.660414    0.799947   -7.996655
     70          7           0        1.776752    1.178657   -7.080711
     71          1           0        1.328646    0.289735   -6.910904
     72          7           0        1.747806    2.988129   -8.557559
     73          1           0        1.313261    3.377357   -9.379986
     74          1           0        2.754694    2.944873   -8.587962
     75          7           0       -0.214640    1.777700   -8.127078
     76          1           0       -0.695697    1.276002   -7.391189
     77          1           0       -0.728315    2.583294   -8.456131
     78          6           0        1.114921    1.976144   -7.930471
     79          8           0        5.775486   -1.097553   -4.029544
     80          1           0        6.720141   -1.030869   -3.843110
     81          1           0        0.307874   -5.579629   -3.073451
 ---------------------------------------------------------------------

 SCF Done:  E(RB3LYP) =  -2053.86159794     A.U. after    3 cycles

 Alpha  occ. eigenvalues --  -19.28540 -19.27454 -19.24513 -19.23243 -19.21559
 Alpha  occ. eigenvalues --  -19.16025 -19.14090 -19.02276 -14.63967 -14.53179
 Alpha  occ. eigenvalues --  -14.53013 -14.52861 -14.46749 -14.44490 -14.40344
 Alpha  occ. eigenvalues --  -14.38471 -10.47748 -10.41815 -10.41628 -10.40769
 Alpha  occ. eigenvalues --  -10.39451 -10.36525 -10.33427 -10.32789 -10.32136
 Alpha  occ. eigenvalues --  -10.31864 -10.30931 -10.30200 -10.29955 -10.28378
 Alpha  occ. eigenvalues --  -10.28296 -10.28115 -10.25533 -10.25517 -10.25158
 Alpha  occ. eigenvalues --  -10.24885 -10.24876 -10.24543 -10.24516 -10.22626
 Alpha  occ. eigenvalues --  -10.20675 -10.15022  -1.20034  -1.19934  -1.18741
 Alpha  occ. eigenvalues --   -1.17729  -1.16086  -1.10878  -1.09626  -1.08604
 Alpha  occ. eigenvalues --   -1.07200  -1.06699  -1.06477  -1.04726  -1.03486
 Alpha  occ. eigenvalues --   -0.98033  -0.96004  -0.95618  -0.92777  -0.91855
 Alpha  occ. eigenvalues --   -0.90800  -0.89061  -0.87021  -0.85381  -0.82931
 Alpha  occ. eigenvalues --   -0.80295  -0.80238  -0.79283  -0.78704  -0.78415
 Alpha  occ. eigenvalues --   -0.77763  -0.75644  -0.75480  -0.74984  -0.73206
 Alpha  occ. eigenvalues --   -0.73038  -0.71083  -0.70629  -0.70382  -0.69314
 Alpha  occ. eigenvalues --   -0.68882  -0.67350  -0.66487  -0.65732  -0.65646
 Alpha  occ. eigenvalues --   -0.65435  -0.64324  -0.63614  -0.62113  -0.61536
 Alpha  occ. eigenvalues --   -0.61377  -0.60913  -0.60715  -0.60482  -0.59408
 Alpha  occ. eigenvalues --   -0.58095  -0.57608  -0.57146  -0.56948  -0.56519
 Alpha  occ. eigenvalues --   -0.56340  -0.55509  -0.55004  -0.54644  -0.53995
 Alpha  occ. eigenvalues --   -0.53807  -0.53456  -0.53172  -0.52698  -0.51430
 Alpha  occ. eigenvalues --   -0.50876  -0.50341  -0.50127  -0.50010  -0.49745
 Alpha  occ. eigenvalues --   -0.49614  -0.49226  -0.49029  -0.48426  -0.48161
 Alpha  occ. eigenvalues --   -0.47638  -0.47319  -0.46788  -0.46083  -0.46040
 Alpha  occ. eigenvalues --   -0.45258  -0.44980  -0.44847  -0.44583  -0.43911
 Alpha  occ. eigenvalues --   -0.43431  -0.42431  -0.42158  -0.41497  -0.41277
 Alpha  occ. eigenvalues --   -0.40925  -0.40418  -0.40119  -0.39453  -0.39285
 Alpha  occ. eigenvalues --   -0.38787  -0.38526  -0.37220  -0.36746  -0.36068
 Alpha  occ. eigenvalues --   -0.35299  -0.35023  -0.34135  -0.32521  -0.30599
 Alpha  occ. eigenvalues --   -0.29908  -0.29024  -0.28403  -0.27441  -0.26741
 Alpha  occ. eigenvalues --   -0.17296  -0.16220
 Alpha virt. eigenvalues --   -0.15067  -0.13911  -0.10780  -0.10321  -0.08713
 Alpha virt. eigenvalues --   -0.07930  -0.07453  -0.07241  -0.06840  -0.05824
 Alpha virt. eigenvalues --   -0.04541  -0.04487  -0.04102  -0.03148  -0.01717

 Mulliken charges:
               1
     1  N   -0.708561
     2  H    0.428036
     3  H    0.416733
     4  H    0.418553
     5  C   -0.164266
     6  H    0.226611
     7  C    0.639312
     8  C   -0.310482
     9  H    0.230099
    10  H    0.229654
    11  O   -0.515533
    12  C   -0.370565
    13  H    0.144677
    14  H    0.199907
    15  C    0.585060
    16  O   -0.424549
    17  O   -0.556815
    18  N   -0.636896
    19  H    0.356934
    20  C   -0.020429
    21  H    0.178797
    22  C    0.631202
    23  C   -0.407813
    24  H    0.201968
    25  H    0.188399
    26  O   -0.541868
    27  C    0.067144
    28  C   -0.001640
    29  H    0.164216
    30  C    0.061628
    31  C    0.315241
    32  C   -0.255407
    33  H    0.152211
    34  N   -0.690853
    35  H    0.333586
    36  C   -0.156170
    37  H    0.138388
    38  C   -0.162664
    39  H    0.135383
    40  C   -0.148007
    41  H    0.140349
    42  N   -0.564747
    43  H    0.323631
    44  C   -0.116409
    45  H    0.155518
    46  C    0.637859
    47  C    0.261591
    48  H   -0.008816
    49  O   -0.598308
    50  C   -0.457978
    51  H    0.097088
    52  H    0.134379
    53  H    0.130651
    54  O   -0.638117
    55  N   -0.619314
    56  H    0.355696
    57  C   -0.007794
    58  H    0.186860
    59  C    0.575362
    60  C   -0.274435
    61  H    0.157990
    62  H    0.167477
    63  O   -0.444040
    64  C   -0.311181
    65  H    0.190633
    66  H    0.154639
    67  C   -0.173913
    68  H    0.188497
    69  H    0.179305
    70  N   -0.572269
    71  H    0.353365
    72  N   -0.731981
    73  H    0.375806
    74  H    0.386328
    75  N   -0.738071
    76  H    0.354868
    77  H    0.370281
    78  C    0.722126
    79  O   -0.569550
    80  H    0.421228
    81  H    0.434172
 Sum of Mulliken charges =   1.00000

 Dipole moment (field-independent basis, Debye):
    X=            -13.1969    Y=              1.7705    Z=            -44.4002  Tot=             46.3537
 Quadrupole moment (field-independent basis, Debye-Ang):
   XX=           -121.6670   YY=           -227.1787   ZZ=             56.0491
   XY=             26.2585   XZ=            -15.0053   YZ=            -30.9127

 Normal termination of Gaussian 16 at Sat May 14 00:58:40 2022.
