 Gaussian 16, Revision C.01,
 Gaussian 16:  ES64L-G16RevC.01  3-Jul-2019

 ----------------------------------------------------------------------
 # B3LYP/6-31G* empiricaldispersion=gd3 guess=read geom=check nosymm in
 tegral(ultrafinegrid)
 ----------------------------------------------------------------------

 ------------------------------------------------------
 Candidate Structure: Conf:962 Charge calc in gas phase
 ------------------------------------------------------
 Structure from the checkpoint file:  "conf-962.chk"
 Charge =  1 Multiplicity = 1

                          Input orientation:
 ---------------------------------------------------------------------
 Center     Atomic      Atomic             Coordinates (Angstroms)
 Number     Number       Type             X           Y           Z
 ---------------------------------------------------------------------
      1          7           0       -1.307334    1.635921    4.082425
      2          1           0       -1.826727    0.878639    4.535889
      3          1           0       -0.321634    1.050375    3.549829
      4          1           0       -1.054132    2.348721    4.769067
      5          6           0       -2.130606    2.198636    2.967125
      6          1           0       -2.970433    2.776934    3.372667
      7          6           0       -2.676275    0.924293    2.248022
      8          6           0       -1.152025    3.134285    2.209133
      9          1           0       -0.838607    3.898675    2.933729
     10          1           0       -0.260358    2.565011    1.967984
     11          8           0       -2.697764   -0.133933    2.852471
     12          6           0       -1.600084    3.883848    0.944783
     13          1           0       -2.421612    4.581791    1.131003
     14          1           0       -1.909305    3.211669    0.138546
     15          6           0       -0.412990    4.627643    0.351060
     16          8           0        0.736583    4.232427    0.384986
     17          8           0       -0.792993    5.764115   -0.257552
     18          7           0       -3.085506    1.034024    0.937805
     19          1           0       -3.028973    1.967043    0.548833
     20          6           0       -2.596019    0.009119   -0.010841
     21          1           0       -2.561390   -0.943561    0.520771
     22          6           0       -1.175929    0.510302   -0.348925
     23          6           0       -3.468963   -0.085178   -1.257138
     24          1           0       -3.506720    0.916829   -1.709143
     25          1           0       -4.494316   -0.344918   -0.968872
     26          8           0       -1.056775    1.361495   -1.257782
     27          6           0       -2.944253   -1.064931   -2.272536
     28          6           0       -1.742507   -1.731030   -2.297608
     29          1           0       -0.917445   -1.723893   -1.598774
     30          6           0       -3.656658   -1.452145   -3.469878
     31          6           0       -2.819224   -2.344477   -4.189597
     32          6           0       -4.913344   -1.114232   -4.000139
     33          1           0       -5.567168   -0.423879   -3.473061
     34          7           0       -1.621937   -2.454623   -3.483843
     35          1           0       -1.017517   -3.261845   -3.558856
     36          6           0       -4.470778   -2.590166   -5.890205
     37          1           0       -4.812350   -3.030162   -6.822841
     38          6           0       -3.212930   -2.926652   -5.398202
     39          1           0       -2.567267   -3.620737   -5.929796
     40          6           0       -5.309990   -1.689526   -5.202165
     41          1           0       -6.282875   -1.446887   -5.619944
     42          7           0       -0.200602    0.122854    0.461405
     43          1           0       -0.438421   -0.356412    1.345713
     44          6           0        1.081710    0.786027    0.637016
     45          1           0        0.951912    1.859272    0.449574
     46          6           0        2.128367    0.251148   -0.326214
     47          6           0        1.490490    0.524223    2.184866
     48          1           0        2.153381   -0.356323    2.171424
     49          8           0        2.061389   -0.852248   -0.854354
     50          6           0        2.292721    1.710429    2.735204
     51          1           0        3.251853    1.841943    2.217767
     52          1           0        2.515962    1.522241    3.790161
     53          1           0        1.744783    2.656798    2.659010
     54          8           0        0.363156    0.181655    2.923404
     55          7           0        3.163600    1.123071   -0.554323
     56          1           0        3.232144    1.958710    0.018038
     57          6           0        4.416250    0.732473   -1.191497
     58          1           0        4.530417   -0.355135   -1.119753
     59          6           0        5.552992    1.401000   -0.419834
     60          6           0        4.449735    1.143851   -2.687791
     61          1           0        5.453845    1.010398   -3.103828
     62          1           0        4.228199    2.221635   -2.719996
     63          8           0        5.397752    2.233975    0.448408
     64          6           0        3.402492    0.347157   -3.480999
     65          1           0        3.769657   -0.664981   -3.684119
     66          1           0        2.534907    0.199140   -2.838310
     67          6           0        2.910898    1.024569   -4.777989
     68          1           0        3.050821    2.112506   -4.749542
     69          1           0        3.441732    0.680040   -5.667789
     70          7           0        1.478102    0.744877   -4.994853
     71          1           0        1.235251    0.053290   -5.691205
     72          7           0        0.818741    2.013730   -3.158996
     73          1           0        0.236447    1.998537   -2.310179
     74          1           0        1.757059    2.371202   -3.057338
     75          7           0       -0.685114    0.564355   -4.116137
     76          1           0       -0.861617   -0.312961   -4.589852
     77          1           0       -1.265113    0.722559   -3.296582
     78          6           0        0.547298    1.087269   -4.088007
     79          8           0        6.752390    0.971981   -0.849239
     80          1           0        7.438797    1.439828   -0.332614
     81          1           0        0.005019    6.171317   -0.650303
 ---------------------------------------------------------------------

 SCF Done:  E(RB3LYP) =  -2054.04605801     A.U. after    1 cycles

 Alpha  occ. eigenvalues --  -19.30153 -19.29552 -19.24684 -19.24198 -19.23662
 Alpha  occ. eigenvalues --  -19.23414 -19.20882 -19.16755 -14.50265 -14.48386
 Alpha  occ. eigenvalues --  -14.48206 -14.48081 -14.46661 -14.46534 -14.45746
 Alpha  occ. eigenvalues --  -14.45412 -10.45426 -10.42988 -10.42152 -10.40399
 Alpha  occ. eigenvalues --  -10.39678 -10.37970 -10.35924 -10.35126 -10.33983
 Alpha  occ. eigenvalues --  -10.33810 -10.31395 -10.31335 -10.31249 -10.31002
 Alpha  occ. eigenvalues --  -10.30566 -10.30287 -10.29955 -10.29277 -10.28878
 Alpha  occ. eigenvalues --  -10.27642 -10.26928 -10.26780 -10.26502 -10.26277
 Alpha  occ. eigenvalues --  -10.25820 -10.24821  -1.21057  -1.20526  -1.15785
 Alpha  occ. eigenvalues --   -1.14826  -1.14140  -1.12834  -1.12088  -1.11680
 Alpha  occ. eigenvalues --   -1.06195  -1.05448  -1.04204  -1.03860  -1.03414
 Alpha  occ. eigenvalues --   -1.02064  -1.01606  -1.00816  -0.91915  -0.91322
 Alpha  occ. eigenvalues --   -0.90896  -0.89828  -0.86898  -0.85486  -0.83551
 Alpha  occ. eigenvalues --   -0.83109  -0.81448  -0.80050  -0.79907  -0.78922
 Alpha  occ. eigenvalues --   -0.76548  -0.75879  -0.74665  -0.72254  -0.71824
 Alpha  occ. eigenvalues --   -0.71318  -0.70478  -0.70203  -0.69096  -0.68251
 Alpha  occ. eigenvalues --   -0.67835  -0.67562  -0.67015  -0.66924  -0.65474
 Alpha  occ. eigenvalues --   -0.64188  -0.63315  -0.62656  -0.62109  -0.61879
 Alpha  occ. eigenvalues --   -0.61365  -0.61010  -0.60266  -0.59826  -0.59382
 Alpha  occ. eigenvalues --   -0.59001  -0.58487  -0.58176  -0.57296  -0.57074
 Alpha  occ. eigenvalues --   -0.56873  -0.56584  -0.56158  -0.55974  -0.55555
 Alpha  occ. eigenvalues --   -0.55149  -0.54757  -0.54348  -0.53998  -0.53324
 Alpha  occ. eigenvalues --   -0.52577  -0.52266  -0.51920  -0.51470  -0.51286
 Alpha  occ. eigenvalues --   -0.50978  -0.50696  -0.50651  -0.50124  -0.49704
 Alpha  occ. eigenvalues --   -0.49324  -0.48988  -0.48698  -0.48432  -0.48150
 Alpha  occ. eigenvalues --   -0.47541  -0.47372  -0.47128  -0.46558  -0.46188
 Alpha  occ. eigenvalues --   -0.45859  -0.45790  -0.45418  -0.44834  -0.44579
 Alpha  occ. eigenvalues --   -0.43270  -0.43097  -0.42298  -0.41856  -0.41744
 Alpha  occ. eigenvalues --   -0.41407  -0.41314  -0.40105  -0.39147  -0.38938
 Alpha  occ. eigenvalues --   -0.38369  -0.37729  -0.37113  -0.36969  -0.35636
 Alpha  occ. eigenvalues --   -0.35435  -0.35306  -0.34379  -0.32157  -0.30997
 Alpha  occ. eigenvalues --   -0.30580  -0.29036
 Alpha virt. eigenvalues --   -0.11877  -0.10412  -0.09782  -0.09386  -0.09004
 Alpha virt. eigenvalues --   -0.07816  -0.07325  -0.05907  -0.05465  -0.03662
 Alpha virt. eigenvalues --   -0.03014  -0.02934  -0.02493  -0.01394  -0.00974

 Mulliken charges:
               1
     1  N   -0.773350
     2  H    0.391794
     3  H    0.458735
     4  H    0.359784
     5  C   -0.110950
     6  H    0.196047
     7  C    0.614086
     8  C   -0.289935
     9  H    0.167432
    10  H    0.202136
    11  O   -0.471215
    12  C   -0.396780
    13  H    0.193436
    14  H    0.195111
    15  C    0.595314
    16  O   -0.464194
    17  O   -0.546939
    18  N   -0.594126
    19  H    0.336820
    20  C   -0.070248
    21  H    0.209021
    22  C    0.602244
    23  C   -0.339777
    24  H    0.157561
    25  H    0.185234
    26  O   -0.606491
    27  C    0.055463
    28  C   -0.058582
    29  H    0.189047
    30  C    0.092510
    31  C    0.260893
    32  C   -0.206728
    33  H    0.135879
    34  N   -0.702215
    35  H    0.344107
    36  C   -0.147080
    37  H    0.146994
    38  C   -0.173687
    39  H    0.136786
    40  C   -0.136114
    41  H    0.144754
    42  N   -0.568514
    43  H    0.390835
    44  C   -0.148670
    45  H    0.182245
    46  C    0.618889
    47  C    0.186832
    48  H    0.133540
    49  O   -0.525686
    50  C   -0.506051
    51  H    0.160232
    52  H    0.166598
    53  H    0.145884
    54  O   -0.717716
    55  N   -0.623618
    56  H    0.365031
    57  C   -0.049352
    58  H    0.210480
    59  C    0.586712
    60  C   -0.276278
    61  H    0.186040
    62  H    0.136663
    63  O   -0.456241
    64  C   -0.308506
    65  H    0.173873
    66  H    0.199907
    67  C   -0.187819
    68  H    0.179246
    69  H    0.195142
    70  N   -0.582034
    71  H    0.358476
    72  N   -0.767987
    73  H    0.417878
    74  H    0.366529
    75  N   -0.771939
    76  H    0.374473
    77  H    0.406784
    78  C    0.767232
    79  O   -0.556110
    80  H    0.431272
    81  H    0.422952
 Sum of Mulliken charges =   1.00000

 Dipole moment (field-independent basis, Debye):
    X=              2.3976    Y=              8.5704    Z=             -9.0343  Tot=             12.6814
 Quadrupole moment (field-independent basis, Debye-Ang):
   XX=           -184.5456   YY=           -204.6642   ZZ=           -151.2525
   XY=              0.0281   XZ=            -25.5849   YZ=             25.8431

 Normal termination of Gaussian 16 at Sat May 14 00:58:02 2022.
