 Gaussian 16, Revision C.01,
 Gaussian 16:  ES64L-G16RevC.01  3-Jul-2019

 ----------------------------------------------------------------------
 # B3LYP/6-31G* empiricaldispersion=gd3 guess=read geom=check nosymm in
 tegral(ultrafinegrid)
 ----------------------------------------------------------------------

 ------------------------------------------------------
 Candidate Structure: Conf:477 Charge calc in gas phase
 ------------------------------------------------------
 Structure from the checkpoint file:  "conf-477.chk"
 Charge =  1 Multiplicity = 1

                          Input orientation:
 ---------------------------------------------------------------------
 Center     Atomic      Atomic             Coordinates (Angstroms)
 Number     Number       Type             X           Y           Z
 ---------------------------------------------------------------------
      1          7           0       -1.864146   -1.441229   -4.615880
      2          1           0       -2.573034   -2.032229   -5.063085
      3          1           0       -2.239830   -0.501376   -4.354732
      4          1           0       -0.898008   -1.287007   -5.298905
      5          6           0       -1.334401   -2.027829   -3.319952
      6          1           0       -2.097914   -2.685247   -2.890312
      7          6           0       -1.182859   -0.797324   -2.394288
      8          6           0       -0.031499   -2.830510   -3.557756
      9          1           0       -0.203243   -3.497840   -4.410398
     10          1           0        0.119869   -3.479864   -2.687107
     11          8           0       -1.715174    0.288617   -2.727288
     12          6           0        1.260744   -2.020891   -3.789654
     13          1           0        1.488443   -1.378289   -2.933709
     14          1           0        2.098634   -2.725599   -3.849306
     15          6           0        1.319711   -1.200412   -5.083759
     16          8           0        2.454126   -0.682765   -5.358858
     17          8           0        0.287688   -1.074200   -5.840743
     18          7           0       -0.490428   -0.984567   -1.255936
     19          1           0        0.060740   -1.828590   -1.113328
     20          6           0       -0.076256    0.155013   -0.420271
     21          1           0       -0.418329    1.061224   -0.924455
     22          6           0        1.458244    0.120869   -0.388897
     23          6           0       -0.662697    0.068948    1.006884
     24          1           0       -0.344308    0.955594    1.570774
     25          1           0       -0.238472   -0.811415    1.506785
     26          8           0        2.103630   -0.848730   -0.854738
     27          6           0       -2.206595   -0.011963    1.035949
     28          1           0       -2.504160   -0.928615    0.510864
     29          6           0       -2.679415   -0.101180    2.503766
     30          1           0       -2.403289    0.812339    3.044394
     31          1           0       -3.768253   -0.208384    2.548033
     32          1           0       -2.226413   -0.957920    3.016102
     33          6           0       -2.856574    1.200022    0.330654
     34          1           0       -2.492303    2.134625    0.776324
     35          1           0       -2.643642    1.203444   -0.742530
     36          1           0       -3.943919    1.167911    0.460454
     37          7           0        2.058143    1.197931    0.164634
     38          1           0        1.539439    1.926269    0.653285
     39          6           0        3.513930    1.239189    0.334673
     40          1           0        3.878845    0.219534    0.489342
     41          6           0        3.779296    2.084954    1.567145
     42          6           0        4.252818    1.863996   -0.879873
     43          1           0        5.324866    1.808503   -0.664614
     44          1           0        3.973128    2.922470   -0.955266
     45          8           0        2.926115    2.689537    2.207857
     46          6           0        3.913020    1.149123   -2.200878
     47          1           0        4.036460    0.068690   -2.088316
     48          1           0        2.862071    1.332310   -2.447232
     49          6           0        4.777285    1.669040   -3.364567
     50          1           0        5.831478    1.419346   -3.186661
     51          1           0        4.682282    2.760990   -3.432527
     52          7           0        4.292523    1.058406   -4.617492
     53          1           0        3.663949    0.226239   -4.581308
     54          7           0        5.256786    2.647879   -6.037148
     55          1           0        5.254102    3.158611   -6.911167
     56          1           0        5.948828    2.903440   -5.345104
     57          7           0        3.662682    1.121103   -6.826639
     58          1           0        3.821432    1.377243   -7.792867
     59          1           0        2.981232    0.368742   -6.554806
     60          6           0        4.411566    1.610007   -5.831850
     61          8           0        5.119815    2.113207    1.829544
     62          1           0        5.301204    2.687072    2.624982
 ---------------------------------------------------------------------

 SCF Done:  E(RB3LYP) =  -1447.52115121     A.U. after   12 cycles

 Alpha  occ. eigenvalues --  -19.29884 -19.24802 -19.24028 -19.22672 -19.22214
 Alpha  occ. eigenvalues --  -19.21251 -14.50243 -14.49436 -14.47885 -14.47168
 Alpha  occ. eigenvalues --  -14.47127 -14.46516 -10.44406 -10.42820 -10.41218
 Alpha  occ. eigenvalues --  -10.39872 -10.39725 -10.36671 -10.34643 -10.34102
 Alpha  occ. eigenvalues --  -10.33928 -10.31090 -10.29968 -10.29371 -10.28690
 Alpha  occ. eigenvalues --  -10.28291 -10.27117 -10.24519 -10.24326  -1.19598
 Alpha  occ. eigenvalues --   -1.15269  -1.14183  -1.13638  -1.12587  -1.11464
 Alpha  occ. eigenvalues --   -1.06499  -1.04481  -1.03937  -1.03173  -1.01995
 Alpha  occ. eigenvalues --   -1.00614  -0.91655  -0.90493  -0.89130  -0.86438
 Alpha  occ. eigenvalues --   -0.84225  -0.81516  -0.79080  -0.75751  -0.75288
 Alpha  occ. eigenvalues --   -0.74828  -0.74087  -0.71849  -0.71354  -0.70164
 Alpha  occ. eigenvalues --   -0.69322  -0.68899  -0.67816  -0.67241  -0.65465
 Alpha  occ. eigenvalues --   -0.64715  -0.63341  -0.62268  -0.61526  -0.60752
 Alpha  occ. eigenvalues --   -0.60534  -0.59306  -0.58771  -0.58385  -0.57827
 Alpha  occ. eigenvalues --   -0.57578  -0.56978  -0.56492  -0.56313  -0.54968
 Alpha  occ. eigenvalues --   -0.54580  -0.53783  -0.53120  -0.52481  -0.52094
 Alpha  occ. eigenvalues --   -0.51803  -0.50807  -0.50384  -0.50087  -0.49947
 Alpha  occ. eigenvalues --   -0.49346  -0.48916  -0.48433  -0.47949  -0.47211
 Alpha  occ. eigenvalues --   -0.46965  -0.46769  -0.46266  -0.45898  -0.45574
 Alpha  occ. eigenvalues --   -0.44604  -0.44495  -0.44184  -0.41854  -0.40990
 Alpha  occ. eigenvalues --   -0.40700  -0.40176  -0.39742  -0.38378  -0.38049
 Alpha  occ. eigenvalues --   -0.37448  -0.37127  -0.36638  -0.36621  -0.36177
 Alpha  occ. eigenvalues --   -0.35758  -0.35529
 Alpha virt. eigenvalues --   -0.10522  -0.09998  -0.08929  -0.08296  -0.06750
 Alpha virt. eigenvalues --   -0.05218  -0.04446  -0.02629  -0.02177  -0.01807
 Alpha virt. eigenvalues --   -0.01353  -0.00238   0.00578   0.01364   0.01740

 Mulliken charges:
               1
     1  N   -0.800810
     2  H    0.375831
     3  H    0.404309
     4  H    0.472252
     5  C   -0.085950
     6  H    0.207829
     7  C    0.626664
     8  C   -0.318891
     9  H    0.182833
    10  H    0.170538
    11  O   -0.534692
    12  C   -0.402331
    13  H    0.211792
    14  H    0.193090
    15  C    0.634411
    16  O   -0.593550
    17  O   -0.598796
    18  N   -0.575622
    19  H    0.357963
    20  C   -0.099983
    21  H    0.210904
    22  C    0.636130
    23  C   -0.266426
    24  H    0.151127
    25  H    0.150128
    26  O   -0.549492
    27  C   -0.072421
    28  H    0.126678
    29  C   -0.444364
    30  H    0.150660
    31  H    0.157980
    32  H    0.146784
    33  C   -0.478617
    34  H    0.139884
    35  H    0.178642
    36  H    0.156947
    37  N   -0.610581
    38  H    0.364879
    39  C   -0.043717
    40  H    0.215065
    41  C    0.597756
    42  C   -0.275271
    43  H    0.179576
    44  H    0.154163
    45  O   -0.459979
    46  C   -0.302483
    47  H    0.191784
    48  H    0.161352
    49  C   -0.135508
    50  H    0.171923
    51  H    0.161814
    52  N   -0.638877
    53  H    0.411944
    54  N   -0.773821
    55  H    0.372084
    56  H    0.377089
    57  N   -0.790106
    58  H    0.354407
    59  H    0.424721
    60  C    0.809955
    61  O   -0.572627
    62  H    0.433031
 Sum of Mulliken charges =   1.00000

 Dipole moment (field-independent basis, Debye):
    X=             10.8288    Y=              2.6838    Z=            -15.6965  Tot=             19.2573
 Quadrupole moment (field-independent basis, Debye-Ang):
   XX=            -80.0915   YY=           -137.6128   ZZ=            -67.5842
   XY=             54.0608   XZ=            -43.3870   YZ=            -15.9668

 Normal termination of Gaussian 16 at Sat Jul  9 00:18:34 2022.
