 Gaussian 16, Revision C.01,
 Gaussian 16:  ES64L-G16RevC.01  3-Jul-2019

 ----------------------------------------------------------------------
 # B3LYP/6-31G* empiricaldispersion=gd3 guess=read geom=check nosymm in
 tegral(ultrafinegrid)
 ----------------------------------------------------------------------

 ------------------------------------------------------
 Candidate Structure: Conf:538 Charge calc in gas phase
 ------------------------------------------------------
 Structure from the checkpoint file:  "conf-538.chk"
 Charge =  1 Multiplicity = 1

                          Input orientation:
 ---------------------------------------------------------------------
 Center     Atomic      Atomic             Coordinates (Angstroms)
 Number     Number       Type             X           Y           Z
 ---------------------------------------------------------------------
      1          7           0       -1.342011    0.173542    4.940615
      2          1           0       -1.873998   -0.315442    5.655456
      3          1           0       -0.565606    0.645806    5.398761
      4          6           0       -0.869467   -0.766008    3.935745
      5          1           0       -1.721264   -1.376023    3.625081
      6          6           0       -0.416686    0.019395    2.720716
      7          6           0        0.284131   -1.706140    4.393975
      8          1           0       -0.096568   -2.261358    5.258925
      9          1           0        1.115102   -1.086329    4.750310
     10          8           0        0.247348    1.108434    2.988443
     11          6           0        0.846143   -2.690657    3.340084
     12          1           0        1.610659   -3.315222    3.806893
     13          1           0        1.316551   -2.133064    2.522123
     14          6           0       -0.221914   -3.570498    2.734495
     15          8           0       -1.123341   -3.163893    2.006273
     16          8           0       -0.111985   -4.853600    3.077424
     17          7           0       -0.675271   -0.431845    1.523508
     18          1           0       -1.100824   -1.371320    1.501908
     19          6           0       -0.216571    0.136350    0.253539
     20          1           0       -0.686316    1.121363    0.139634
     21          6           0        1.314798    0.296830    0.304826
     22          6           0       -0.668049   -0.771979   -0.916940
     23          1           0       -0.247583   -0.342828   -1.833776
     24          1           0       -0.199457   -1.754301   -0.785023
     25          8           0        2.003515   -0.337013    1.099415
     26          6           0       -2.171991   -0.891565   -1.009724
     27          6           0       -2.838537   -2.041160   -0.561413
     28          1           0       -2.269005   -2.879568   -0.170656
     29          6           0       -2.937701    0.167675   -1.513225
     30          1           0       -2.446030    1.066243   -1.882248
     31          6           0       -4.225920   -2.130959   -0.607406
     32          1           0       -4.744977   -3.020975   -0.267648
     33          6           0       -4.326510    0.091590   -1.567129
     34          1           0       -4.904268    0.920390   -1.970048
     35          8           0       -6.328497   -1.211607   -1.129969
     36          1           0       -6.746117   -0.427442   -1.519944
     37          6           0       -4.978451   -1.062952   -1.110787
     38          7           0        1.822221    1.229120   -0.535621
     39          1           0        1.184609    1.816205   -1.059306
     40          6           0        3.165357    1.749369   -0.312923
     41          1           0        3.842517    0.899293   -0.189216
     42          6           0        3.263053    2.549548    0.989876
     43          6           0        3.638145    2.611833   -1.496141
     44          1           0        2.947779    3.458891   -1.625936
     45          1           0        4.605815    3.040632   -1.217236
     46          8           0        4.284425    3.006012    1.423977
     47          6           0        3.769231    1.821208   -2.802754
     48          1           0        2.797289    1.387283   -3.081236
     49          1           0        4.456586    0.981036   -2.639563
     50          6           0        4.296748    2.689700   -3.950545
     51          1           0        3.623951    3.545515   -4.105082
     52          1           0        5.279241    3.091315   -3.673188
     53          6           0        4.442261    1.924049   -5.271470
     54          1           0        3.441260    1.611743   -5.623285
     55          1           0        4.834847    2.613855   -6.026605
     56          7           0        5.394250    0.814436   -5.134882
     57          1           0        5.746812    0.540661   -6.049084
     58          1           0        4.929088   -0.008923   -4.758579
     59          8           0        2.048736    2.756686    1.624004
     60          1           0        0.767123    1.525577    2.258896
     61          1           0        2.253627    3.331136    2.388871
     62          1           0       -0.837768   -5.350272    2.649643
 ---------------------------------------------------------------------

 SCF Done:  E(RB3LYP) =  -1526.26961247     A.U. after    3 cycles

 Alpha  occ. eigenvalues --  -19.35983 -19.33252 -19.32300 -19.27330 -19.26599
 Alpha  occ. eigenvalues --  -19.26344 -19.25984 -14.53805 -14.49926 -14.44062
 Alpha  occ. eigenvalues --  -14.37868 -10.47596 -10.45257 -10.44367 -10.42921
 Alpha  occ. eigenvalues --  -10.38710 -10.36840 -10.36110 -10.34361 -10.32561
 Alpha  occ. eigenvalues --  -10.32535 -10.31874 -10.29799 -10.29456 -10.29245
 Alpha  occ. eigenvalues --  -10.28701 -10.28512 -10.27728 -10.27707 -10.27526
 Alpha  occ. eigenvalues --  -10.25607  -1.26126  -1.23541  -1.22965  -1.18071
 Alpha  occ. eigenvalues --   -1.14836  -1.14399  -1.14276  -1.11338  -1.06636
 Alpha  occ. eigenvalues --   -1.02354  -0.96045  -0.94701  -0.93445  -0.91728
 Alpha  occ. eigenvalues --   -0.90474  -0.86444  -0.85467  -0.84407  -0.83361
 Alpha  occ. eigenvalues --   -0.80920  -0.78935  -0.78192  -0.75937  -0.74906
 Alpha  occ. eigenvalues --   -0.73690  -0.72565  -0.71926  -0.71790  -0.70708
 Alpha  occ. eigenvalues --   -0.69000  -0.66394  -0.65604  -0.65170  -0.64199
 Alpha  occ. eigenvalues --   -0.63879  -0.62587  -0.62142  -0.61662  -0.60857
 Alpha  occ. eigenvalues --   -0.60264  -0.59226  -0.58554  -0.58330  -0.57076
 Alpha  occ. eigenvalues --   -0.56824  -0.56251  -0.55749  -0.55716  -0.55524
 Alpha  occ. eigenvalues --   -0.55429  -0.54681  -0.54466  -0.53876  -0.53236
 Alpha  occ. eigenvalues --   -0.52959  -0.52069  -0.51928  -0.51171  -0.50934
 Alpha  occ. eigenvalues --   -0.50463  -0.50108  -0.49884  -0.49372  -0.48887
 Alpha  occ. eigenvalues --   -0.48058  -0.47676  -0.47163  -0.46482  -0.45862
 Alpha  occ. eigenvalues --   -0.45651  -0.45396  -0.44602  -0.44407  -0.43063
 Alpha  occ. eigenvalues --   -0.42560  -0.42293  -0.42062  -0.41514  -0.40779
 Alpha  occ. eigenvalues --   -0.40413  -0.39525  -0.37936  -0.36271  -0.34816
 Alpha  occ. eigenvalues --   -0.31304  -0.30142
 Alpha virt. eigenvalues --   -0.16581  -0.13001  -0.12359  -0.11440  -0.09990
 Alpha virt. eigenvalues --   -0.08687  -0.06808  -0.04583  -0.03761  -0.03206
 Alpha virt. eigenvalues --   -0.01251  -0.00850  -0.00239  -0.00066   0.00241

 Mulliken charges:
               1
     1  N   -0.701504
     2  H    0.334113
     3  H    0.326187
     4  C   -0.099071
     5  H    0.199451
     6  C    0.675014
     7  C   -0.296067
     8  H    0.183545
     9  H    0.181086
    10  O   -0.587251
    11  C   -0.395116
    12  H    0.206502
    13  H    0.223015
    14  C    0.605483
    15  O   -0.501037
    16  O   -0.524445
    17  N   -0.576153
    18  H    0.441305
    19  C   -0.077821
    20  H    0.192405
    21  C    0.586699
    22  C   -0.407207
    23  H    0.182741
    24  H    0.186733
    25  O   -0.504632
    26  C    0.164349
    27  C   -0.207808
    28  H    0.156880
    29  C   -0.188063
    30  H    0.124123
    31  C   -0.159633
    32  H    0.161649
    33  C   -0.186241
    34  H    0.143186
    35  O   -0.624822
    36  H    0.419597
    37  C    0.359389
    38  N   -0.591967
    39  H    0.346092
    40  C   -0.048061
    41  H    0.226314
    42  C    0.617324
    43  C   -0.306727
    44  H    0.144867
    45  H    0.200223
    46  O   -0.413086
    47  C   -0.269152
    48  H    0.121713
    49  H    0.160634
    50  C   -0.235694
    51  H    0.128119
    52  H    0.158295
    53  C   -0.151427
    54  H    0.115593
    55  H    0.155651
    56  N   -0.715499
    57  H    0.311609
    58  H    0.294936
    59  O   -0.627183
    60  H    0.491048
    61  H    0.437990
    62  H    0.431802
 Sum of Mulliken charges =   1.00000

 Dipole moment (field-independent basis, Debye):
    X=             -1.8908    Y=             -0.4372    Z=              4.3515  Tot=              4.7646
 Quadrupole moment (field-independent basis, Debye-Ang):
   XX=           -165.5056   YY=           -144.9172   ZZ=           -116.2710
   XY=              2.5073   XZ=             -7.9414   YZ=            -20.0526

 Normal termination of Gaussian 16 at Thu Jun  2 00:17:52 2022.
