 Gaussian 16, Revision C.01,
 Gaussian 16:  ES64L-G16RevC.01  3-Jul-2019

 ----------------------------------------------------------------------
 # B3LYP/6-31G* empiricaldispersion=gd3 guess=read geom=check nosymm in
 tegral(ultrafinegrid)
 ----------------------------------------------------------------------

 ------------------------------------------------------
 Candidate Structure: Conf:817 Charge calc in gas phase
 ------------------------------------------------------
 Structure from the checkpoint file:  "conf-817.chk"
 Charge =  1 Multiplicity = 1

                          Input orientation:
 ---------------------------------------------------------------------
 Center     Atomic      Atomic             Coordinates (Angstroms)
 Number     Number       Type             X           Y           Z
 ---------------------------------------------------------------------
      1          7           0        0.336860   -2.469575    4.036951
      2          1           0        0.924190   -3.068642    3.457401
      3          1           0        0.962515   -1.786713    4.460650
      4          6           0       -0.638609   -1.800459    3.190606
      5          1           0       -1.121220   -1.016294    3.783916
      6          6           0        0.003899   -1.147951    1.950157
      7          6           0       -1.709032   -2.835094    2.769495
      8          1           0       -2.083995   -3.288791    3.691663
      9          1           0       -1.219686   -3.632030    2.196540
     10          8           0        1.019790   -1.626859    1.437161
     11          6           0       -2.890334   -2.300276    1.926355
     12          1           0       -3.592961   -3.115224    1.737681
     13          1           0       -2.534060   -1.924957    0.962021
     14          6           0       -3.608422   -1.165218    2.619241
     15          8           0       -3.217343   -0.004205    2.640277
     16          8           0       -4.712434   -1.558464    3.260822
     17          7           0       -0.619492   -0.031967    1.475920
     18          1           0       -1.521487    0.215071    1.895632
     19          6           0       -0.237069    0.641138    0.254490
     20          1           0       -0.955548    1.452084    0.092222
     21          6           0        1.110710    1.309070    0.387847
     22          6           0       -0.314341   -0.297280   -1.026978
     23          1           0        0.242001   -1.206977   -0.800963
     24          1           0       -1.375929   -0.557212   -1.104552
     25          8           0        1.853554    1.168195    1.467229
     26          6           0        0.206186    0.366236   -2.274303
     27          6           0       -0.460539    1.477934   -2.821534
     28          1           0       -1.463256    1.727994   -2.478993
     29          6           0        1.485569    0.057936   -2.764179
     30          1           0        2.030991   -0.778092   -2.338058
     31          6           0        0.160678    2.306820   -3.751961
     32          1           0       -0.341736    3.180380   -4.154701
     33          6           0        2.115418    0.872310   -3.704860
     34          1           0        3.108958    0.624107   -4.067051
     35          8           0        2.050776    2.904869   -5.021971
     36          1           0        3.052061    2.810037   -5.042260
     37          6           0        1.476698    2.033895   -4.181317
     38          7           0        1.687110    2.029848   -0.535610
     39          1           0        1.275737    2.182869   -1.454675
     40          6           0        3.103040    2.245440   -0.247066
     41          1           0        3.646292    1.503405   -0.843682
     42          6           0        3.167663    1.749917    1.185514
     43          6           0        3.632730    3.666351   -0.512288
     44          1           0        2.974442    4.137578   -1.251505
     45          1           0        3.565207    4.266931    0.400236
     46          8           0        4.008944    1.785236    2.011607
     47          6           0        5.081338    3.629844   -1.035205
     48          1           0        5.690510    3.039909   -0.339715
     49          1           0        5.489078    4.647066   -1.005916
     50          6           0        5.213966    3.060815   -2.461554
     51          1           0        6.255260    2.756707   -2.628470
     52          1           0        4.610921    2.148699   -2.575801
     53          6           0        4.806714    4.048955   -3.559287
     54          1           0        3.816012    4.472988   -3.355087
     55          1           0        5.519887    4.885968   -3.572751
     56          7           0        4.713194    3.365104   -4.868244
     57          1           0        5.541676    2.792332   -5.029396
     58          1           0        4.701754    4.056592   -5.618633
     59          8           0        3.153389   -0.748365   -0.108658
     60          1           0        3.923083   -1.330504   -0.028074
     61          1           0        2.462431   -1.159162    0.454745
     62          1           0       -5.093864   -0.780145    3.712869
 ---------------------------------------------------------------------

 SCF Done:  E(RB3LYP) =  -1526.27230683     A.U. after    1 cycles

 Alpha  occ. eigenvalues --  -19.37274 -19.30755 -19.30435 -19.25382 -19.25053
 Alpha  occ. eigenvalues --  -19.24730 -19.24280 -14.55229 -14.48158 -14.44575
 Alpha  occ. eigenvalues --  -14.40566 -10.48512 -10.47866 -10.43312 -10.40437
 Alpha  occ. eigenvalues --  -10.39592 -10.39428 -10.35379 -10.32814 -10.32517
 Alpha  occ. eigenvalues --  -10.32300 -10.32134 -10.30558 -10.30467 -10.30286
 Alpha  occ. eigenvalues --  -10.30118 -10.30021 -10.29661 -10.29569 -10.29209
 Alpha  occ. eigenvalues --  -10.29172  -1.29587  -1.21615  -1.21252  -1.15810
 Alpha  occ. eigenvalues --   -1.13945  -1.12457  -1.12226  -1.10420  -1.05598
 Alpha  occ. eigenvalues --   -1.00405  -0.98525  -0.96798  -0.95370  -0.91732
 Alpha  occ. eigenvalues --   -0.89584  -0.88766  -0.85615  -0.85409  -0.82911
 Alpha  occ. eigenvalues --   -0.80952  -0.79979  -0.78202  -0.77352  -0.74922
 Alpha  occ. eigenvalues --   -0.74316  -0.72379  -0.71239  -0.70099  -0.69608
 Alpha  occ. eigenvalues --   -0.69529  -0.67153  -0.66165  -0.64990  -0.64255
 Alpha  occ. eigenvalues --   -0.63214  -0.62404  -0.61448  -0.60501  -0.60180
 Alpha  occ. eigenvalues --   -0.60094  -0.59386  -0.59081  -0.58576  -0.57917
 Alpha  occ. eigenvalues --   -0.57725  -0.57629  -0.56625  -0.56211  -0.55516
 Alpha  occ. eigenvalues --   -0.55310  -0.54864  -0.54794  -0.54077  -0.53591
 Alpha  occ. eigenvalues --   -0.52722  -0.52549  -0.51823  -0.51782  -0.50957
 Alpha  occ. eigenvalues --   -0.50660  -0.50085  -0.49853  -0.49501  -0.49166
 Alpha  occ. eigenvalues --   -0.48244  -0.47729  -0.46652  -0.46519  -0.46166
 Alpha  occ. eigenvalues --   -0.45805  -0.45607  -0.44919  -0.44420  -0.44242
 Alpha  occ. eigenvalues --   -0.43791  -0.43089  -0.42560  -0.41972  -0.40446
 Alpha  occ. eigenvalues --   -0.39341  -0.38258  -0.37808  -0.37018  -0.36245
 Alpha  occ. eigenvalues --   -0.33288  -0.31933
 Alpha virt. eigenvalues --   -0.19263  -0.13797  -0.11519  -0.10614  -0.10450
 Alpha virt. eigenvalues --   -0.09568  -0.04849  -0.04049  -0.03267  -0.02905
 Alpha virt. eigenvalues --   -0.02068  -0.01831  -0.01510  -0.00511  -0.00223

 Mulliken charges:
               1
     1  N   -0.686273
     2  H    0.316764
     3  H    0.313799
     4  C   -0.096042
     5  H    0.170469
     6  C    0.611954
     7  C   -0.272129
     8  H    0.198489
     9  H    0.171035
    10  O   -0.559597
    11  C   -0.364785
    12  H    0.201029
    13  H    0.168958
    14  C    0.599384
    15  O   -0.492212
    16  O   -0.529467
    17  N   -0.625857
    18  H    0.402802
    19  C   -0.099468
    20  H    0.213852
    21  C    0.721166
    22  C   -0.352603
    23  H    0.204388
    24  H    0.183663
    25  O   -0.449571
    26  C    0.080713
    27  C   -0.214230
    28  H    0.145037
    29  C   -0.172296
    30  H    0.168390
    31  C   -0.175324
    32  H    0.168123
    33  C   -0.218145
    34  H    0.152660
    35  O   -0.668920
    36  H    0.463152
    37  C    0.354770
    38  N   -0.598059
    39  H    0.400944
    40  C   -0.038135
    41  H    0.265492
    42  C    0.635011
    43  C   -0.296181
    44  H    0.175969
    45  H    0.190047
    46  O   -0.363222
    47  C   -0.284717
    48  H    0.173534
    49  H    0.172316
    50  C   -0.297328
    51  H    0.164680
    52  H    0.146362
    53  C   -0.134166
    54  H    0.158168
    55  H    0.161484
    56  N   -0.778929
    57  H    0.330395
    58  H    0.343930
    59  O   -0.847913
    60  H    0.409774
    61  H    0.447677
    62  H    0.429188
 Sum of Mulliken charges =   1.00000

 Dipole moment (field-independent basis, Debye):
    X=              7.1067    Y=              6.7784    Z=             -3.0420  Tot=             10.2813
 Quadrupole moment (field-independent basis, Debye-Ang):
   XX=           -101.8869   YY=           -142.4340   ZZ=           -154.6772
   XY=             35.2559   XZ=            -47.1403   YZ=            -22.6986

 Normal termination of Gaussian 16 at Thu Jun  2 00:17:38 2022.
