 Gaussian 16, Revision C.01,
 Gaussian 16:  ES64L-G16RevC.01  3-Jul-2019

 ----------------------------------------------------------------------
 # B3LYP/6-31G* empiricaldispersion=gd3 guess=read geom=check nosymm in
 tegral(ultrafinegrid)
 ----------------------------------------------------------------------

 ------------------------------------------------------
 Candidate Structure: Conf:879 Charge calc in gas phase
 ------------------------------------------------------
 Structure from the checkpoint file:  "conf-879.chk"
 Charge =  1 Multiplicity = 1

                          Input orientation:
 ---------------------------------------------------------------------
 Center     Atomic      Atomic             Coordinates (Angstroms)
 Number     Number       Type             X           Y           Z
 ---------------------------------------------------------------------
      1          7           0        1.130152   -2.720006   -0.313787
      2          1           0        1.186132   -3.730592   -0.207083
      3          1           0        1.155534   -2.505003   -1.318714
      4          6           0       -0.070165   -2.218873    0.342480
      5          1           0        0.026193   -2.436279    1.411631
      6          6           0       -0.057588   -0.700390    0.179745
      7          6           0       -1.418368   -2.811314   -0.144608
      8          1           0       -1.340260   -3.902597   -0.074874
      9          1           0       -1.557334   -2.563690   -1.203202
     10          8           0        0.323793   -0.161941   -0.876879
     11          6           0       -2.669149   -2.328356    0.632642
     12          1           0       -3.553406   -2.853005    0.263803
     13          1           0       -2.817221   -1.259916    0.469925
     14          6           0       -2.544113   -2.530487    2.122817
     15          8           0       -1.900425   -1.806530    2.873895
     16          8           0       -3.191777   -3.614269    2.567542
     17          7           0       -0.415195    0.031376    1.260045
     18          1           0       -0.856824   -0.475027    2.034943
     19          6           0       -0.484982    1.490367    1.278935
     20          1           0       -0.921346    1.763909    2.242067
     21          6           0        0.901018    2.108746    1.254154
     22          6           0       -1.346467    2.149768    0.145405
     23          1           0       -1.488760    3.198762    0.433496
     24          1           0       -0.778553    2.136161   -0.786389
     25          8           0        1.106310    3.108097    2.072321
     26          6           0       -2.667326    1.450684   -0.060428
     27          6           0       -2.922869    0.766257   -1.257934
     28          1           0       -2.157314    0.734784   -2.028191
     29          6           0       -3.660378    1.457391    0.926319
     30          1           0       -3.495024    1.985864    1.862990
     31          6           0       -4.135395    0.119955   -1.475149
     32          1           0       -4.340576   -0.400121   -2.404993
     33          6           0       -4.874069    0.800982    0.730333
     34          1           0       -5.634678    0.817321    1.507684
     35          8           0       -6.273420   -0.535151   -0.738391
     36          1           0       -6.900006   -0.418127   -0.006800
     37          6           0       -5.118154    0.131412   -0.476911
     38          7           0        1.797357    1.657964    0.419401
     39          1           0        1.419809    0.951659   -0.247792
     40          6           0        3.259102    1.877679    0.411949
     41          1           0        3.577761    1.964438    1.459886
     42          6           0        3.609787    3.213649   -0.249043
     43          6           0        3.934432    0.655971   -0.229020
     44          1           0        5.017114    0.806690   -0.164447
     45          1           0        3.691154   -0.201043    0.410957
     46          8           0        4.354466    3.395286   -1.168588
     47          6           0        3.524392    0.343162   -1.680545
     48          1           0        4.010911    1.048882   -2.361612
     49          1           0        2.445925    0.484481   -1.807724
     50          6           0        3.868351   -1.107525   -2.060627
     51          1           0        4.957962   -1.211013   -2.141579
     52          1           0        3.528989   -1.781378   -1.264636
     53          6           0        3.220309   -1.566742   -3.372475
     54          1           0        3.457361   -0.845656   -4.174354
     55          1           0        3.665983   -2.523037   -3.667402
     56          7           0        1.771704   -1.796705   -3.206099
     57          1           0        1.381786   -2.154282   -4.076773
     58          1           0        1.286314   -0.922487   -3.012991
     59          8           0        2.962989    4.227213    0.416812
     60          1           0        1.876981    3.657110    1.783710
     61          1           0        3.205916    5.083384    0.012215
     62          1           0       -3.039242   -3.679737    3.530827
 ---------------------------------------------------------------------

 SCF Done:  E(RB3LYP) =  -1526.28282089     A.U. after    1 cycles

 Alpha  occ. eigenvalues --  -19.36969 -19.35239 -19.30219 -19.28997 -19.26936
 Alpha  occ. eigenvalues --  -19.25087 -19.24874 -14.54205 -14.48697 -14.39899
 Alpha  occ. eigenvalues --  -14.39304 -10.48548 -10.46895 -10.42972 -10.41297
 Alpha  occ. eigenvalues --  -10.39599 -10.38826 -10.34652 -10.32413 -10.31943
 Alpha  occ. eigenvalues --  -10.31097 -10.29556 -10.29529 -10.29445 -10.29369
 Alpha  occ. eigenvalues --  -10.28908 -10.28828 -10.28760 -10.28316 -10.28015
 Alpha  occ. eigenvalues --  -10.26401  -1.27273  -1.25078  -1.21334  -1.16877
 Alpha  occ. eigenvalues --   -1.16818  -1.15151  -1.12123  -1.11804  -1.05562
 Alpha  occ. eigenvalues --   -0.97664  -0.96235  -0.95709  -0.94862  -0.91133
 Alpha  occ. eigenvalues --   -0.88990  -0.87382  -0.85533  -0.84613  -0.81611
 Alpha  occ. eigenvalues --   -0.81060  -0.79947  -0.77423  -0.76601  -0.74446
 Alpha  occ. eigenvalues --   -0.73812  -0.72492  -0.71904  -0.70182  -0.69707
 Alpha  occ. eigenvalues --   -0.68612  -0.67529  -0.66640  -0.64634  -0.64016
 Alpha  occ. eigenvalues --   -0.63742  -0.63433  -0.61563  -0.60399  -0.60192
 Alpha  occ. eigenvalues --   -0.59794  -0.58729  -0.58132  -0.57789  -0.57526
 Alpha  occ. eigenvalues --   -0.56691  -0.56369  -0.56222  -0.55908  -0.55543
 Alpha  occ. eigenvalues --   -0.55141  -0.54715  -0.53757  -0.53686  -0.52851
 Alpha  occ. eigenvalues --   -0.52765  -0.51943  -0.51650  -0.50988  -0.50688
 Alpha  occ. eigenvalues --   -0.49839  -0.49782  -0.49036  -0.48505  -0.48152
 Alpha  occ. eigenvalues --   -0.47381  -0.47339  -0.47182  -0.46870  -0.46550
 Alpha  occ. eigenvalues --   -0.45883  -0.45608  -0.45560  -0.43378  -0.43065
 Alpha  occ. eigenvalues --   -0.42580  -0.42350  -0.42202  -0.41731  -0.41190
 Alpha  occ. eigenvalues --   -0.39523  -0.38344  -0.38126  -0.35094  -0.32532
 Alpha  occ. eigenvalues --   -0.31784  -0.31577
 Alpha virt. eigenvalues --   -0.18103  -0.14181  -0.11246  -0.10182  -0.09941
 Alpha virt. eigenvalues --   -0.08899  -0.07069  -0.03858  -0.02955  -0.01702
 Alpha virt. eigenvalues --   -0.01664  -0.01114  -0.00107   0.00560   0.01017

 Mulliken charges:
               1
     1  N   -0.764850
     2  H    0.306494
     3  H    0.373981
     4  C   -0.067875
     5  H    0.165216
     6  C    0.643464
     7  C   -0.290434
     8  H    0.168566
     9  H    0.171563
    10  O   -0.589820
    11  C   -0.374063
    12  H    0.194428
    13  H    0.199353
    14  C    0.595550
    15  O   -0.494723
    16  O   -0.534211
    17  N   -0.619579
    18  H    0.406041
    19  C   -0.061343
    20  H    0.211733
    21  C    0.621407
    22  C   -0.377075
    23  H    0.180613
    24  H    0.181255
    25  O   -0.548882
    26  C    0.170010
    27  C   -0.200080
    28  H    0.150032
    29  C   -0.191162
    30  H    0.138122
    31  C   -0.163983
    32  H    0.163306
    33  C   -0.195384
    34  H    0.144930
    35  O   -0.626065
    36  H    0.419956
    37  C    0.357017
    38  N   -0.589974
    39  H    0.459651
    40  C   -0.111987
    41  H    0.214319
    42  C    0.640131
    43  C   -0.294436
    44  H    0.190039
    45  H    0.182101
    46  O   -0.388883
    47  C   -0.304662
    48  H    0.177494
    49  H    0.145734
    50  C   -0.269948
    51  H    0.149115
    52  H    0.174778
    53  C   -0.146658
    54  H    0.129709
    55  H    0.158740
    56  N   -0.744485
    57  H    0.312630
    58  H    0.321707
    59  O   -0.620685
    60  H    0.474754
    61  H    0.451694
    62  H    0.425609
 Sum of Mulliken charges =   1.00000

 Dipole moment (field-independent basis, Debye):
    X=              0.5509    Y=              4.6681    Z=              3.6315  Tot=              5.9399
 Quadrupole moment (field-independent basis, Debye-Ang):
   XX=           -126.7585   YY=           -131.2973   ZZ=           -158.3598
   XY=             22.0966   XZ=            -11.2713   YZ=              6.3277

 Normal termination of Gaussian 16 at Thu Jun  2 00:17:36 2022.
