 Gaussian 16, Revision C.01,
 Gaussian 16:  ES64L-G16RevC.01  3-Jul-2019

 ----------------------------------------------------------------------
 # B3LYP/6-31G* empiricaldispersion=gd3 guess=read geom=check nosymm in
 tegral(ultrafinegrid)
 ----------------------------------------------------------------------

 ------------------------------------------------------
 Candidate Structure: Conf:772 Charge calc in gas phase
 ------------------------------------------------------
 Structure from the checkpoint file:  "conf-772.chk"
 Charge =  1 Multiplicity = 1

                          Input orientation:
 ---------------------------------------------------------------------
 Center     Atomic      Atomic             Coordinates (Angstroms)
 Number     Number       Type             X           Y           Z
 ---------------------------------------------------------------------
      1          7           0       -0.362327   -3.635183    2.948852
      2          1           0       -0.870108   -4.117505    2.208033
      3          1           0        0.624932   -3.766905    2.736738
      4          6           0       -0.674987   -2.211114    2.939464
      5          1           0       -0.101659   -1.754616    3.760132
      6          6           0       -0.139691   -1.497845    1.680133
      7          6           0       -2.161363   -1.977862    3.258105
      8          1           0       -2.333455   -0.913289    3.446897
      9          1           0       -2.352512   -2.494827    4.201407
     10          8           0        0.912062   -1.874634    1.139719
     11          6           0       -3.161319   -2.493388    2.189710
     12          1           0       -3.821747   -3.266149    2.587848
     13          1           0       -2.635981   -2.954099    1.339828
     14          6           0       -4.004999   -1.389851    1.586902
     15          8           0       -3.601550   -0.260160    1.342127
     16          8           0       -5.250243   -1.783204    1.309891
     17          7           0       -0.787020   -0.406206    1.206799
     18          1           0       -1.754800   -0.201923    1.471959
     19          6           0       -0.323893    0.212945   -0.023577
     20          1           0       -0.811163    1.195467   -0.083642
     21          6           0        1.145242    0.539920    0.096546
     22          6           0       -0.709713   -0.620027   -1.276040
     23          1           0       -0.268727   -1.614234   -1.160977
     24          1           0       -1.798367   -0.736086   -1.214748
     25          8           0        1.604846    1.010500    1.236056
     26          6           0       -0.306277   -0.003771   -2.598452
     27          6           0       -0.762065    1.271076   -2.977047
     28          1           0       -1.466580    1.805129   -2.342929
     29          6           0        0.579108   -0.669184   -3.459419
     30          1           0        0.930746   -1.666910   -3.204559
     31          6           0       -0.341562    1.867457   -4.158181
     32          1           0       -0.697796    2.848768   -4.453585
     33          6           0        1.013259   -0.080496   -4.650261
     34          1           0        1.693129   -0.618877   -5.306516
     35          8           0        0.930195    1.838250   -6.136359
     36          1           0        1.493696    1.266071   -6.681440
     37          6           0        0.554143    1.194097   -5.004308
     38          7           0        2.025526    0.572383   -0.865958
     39          1           0        1.801246    0.294323   -1.821704
     40          6           0        3.297828    1.162066   -0.438637
     41          1           0        4.097255    0.424577   -0.535768
     42          6           0        3.019174    1.368391    1.041329
     43          6           0        3.617354    2.468002   -1.192140
     44          1           0        3.586346    2.241238   -2.266050
     45          1           0        2.823322    3.200825   -1.000894
     46          8           0        3.644320    1.829010    1.929344
     47          6           0        4.987496    3.046296   -0.815744
     48          1           0        5.764632    2.296141   -1.018704
     49          1           0        5.019267    3.243513    0.262413
     50          6           0        5.289533    4.336134   -1.586984
     51          1           0        5.271704    4.130944   -2.668018
     52          1           0        4.509452    5.084355   -1.399006
     53          6           0        6.642194    4.948255   -1.210029
     54          1           0        6.640986    5.178788   -0.137021
     55          1           0        7.437390    4.194769   -1.367200
     56          7           0        6.842980    6.203072   -1.936889
     57          1           0        7.022998    6.010033   -2.921328
     58          1           0        7.670641    6.681988   -1.587483
     59          8           0        3.574908   -1.153516    1.185125
     60          1           0        4.028504   -1.214920    2.038946
     61          1           0        2.739568   -1.646542    1.295768
     62          1           0       -5.724875   -1.030956    0.904683
 ---------------------------------------------------------------------

 SCF Done:  E(RB3LYP) =  -1526.25079181     A.U. after    3 cycles

 Alpha  occ. eigenvalues --  -19.36626 -19.31370 -19.29878 -19.28473 -19.26389
 Alpha  occ. eigenvalues --  -19.25405 -19.24507 -14.55022 -14.49011 -14.41796
 Alpha  occ. eigenvalues --  -14.37642 -10.48634 -10.47305 -10.44365 -10.41526
 Alpha  occ. eigenvalues --  -10.39666 -10.38906 -10.36491 -10.33906 -10.32666
 Alpha  occ. eigenvalues --  -10.31974 -10.31675 -10.31537 -10.31237 -10.30949
 Alpha  occ. eigenvalues --  -10.30647 -10.30355 -10.30002 -10.28512 -10.27885
 Alpha  occ. eigenvalues --  -10.26382  -1.29029  -1.22611  -1.20575  -1.17100
 Alpha  occ. eigenvalues --   -1.16785  -1.13506  -1.11758  -1.10286  -1.06217
 Alpha  occ. eigenvalues --   -0.99738  -0.97596  -0.95268  -0.94551  -0.91638
 Alpha  occ. eigenvalues --   -0.90123  -0.88112  -0.86589  -0.85743  -0.82639
 Alpha  occ. eigenvalues --   -0.81582  -0.79676  -0.78212  -0.76455  -0.75517
 Alpha  occ. eigenvalues --   -0.73817  -0.72270  -0.71570  -0.70933  -0.70427
 Alpha  occ. eigenvalues --   -0.67802  -0.66487  -0.66247  -0.65680  -0.64556
 Alpha  occ. eigenvalues --   -0.63427  -0.62326  -0.61746  -0.61048  -0.60513
 Alpha  occ. eigenvalues --   -0.59963  -0.59310  -0.59092  -0.58347  -0.57881
 Alpha  occ. eigenvalues --   -0.57444  -0.57094  -0.56262  -0.55773  -0.55363
 Alpha  occ. eigenvalues --   -0.54852  -0.54391  -0.54023  -0.53872  -0.53722
 Alpha  occ. eigenvalues --   -0.53095  -0.52643  -0.52310  -0.51885  -0.51159
 Alpha  occ. eigenvalues --   -0.50789  -0.50633  -0.50290  -0.48564  -0.48376
 Alpha  occ. eigenvalues --   -0.47809  -0.47430  -0.47160  -0.46870  -0.45736
 Alpha  occ. eigenvalues --   -0.45483  -0.45248  -0.44994  -0.44342  -0.43604
 Alpha  occ. eigenvalues --   -0.43322  -0.42450  -0.41945  -0.41143  -0.40708
 Alpha  occ. eigenvalues --   -0.40235  -0.39156  -0.38965  -0.37171  -0.34408
 Alpha  occ. eigenvalues --   -0.33345  -0.29916
 Alpha virt. eigenvalues --   -0.18221  -0.12919  -0.12508  -0.12093  -0.11003
 Alpha virt. eigenvalues --   -0.10608  -0.04180  -0.03330  -0.02910  -0.02657
 Alpha virt. eigenvalues --   -0.02390  -0.01695  -0.01484  -0.01047  -0.00541

 Mulliken charges:
               1
     1  N   -0.683712
     2  H    0.305807
     3  H    0.320839
     4  C   -0.093471
     5  H    0.193217
     6  C    0.609468
     7  C   -0.301766
     8  H    0.174795
     9  H    0.202992
    10  O   -0.567975
    11  C   -0.372751
    12  H    0.214787
    13  H    0.180336
    14  C    0.593957
    15  O   -0.490074
    16  O   -0.529569
    17  N   -0.619022
    18  H    0.406263
    19  C   -0.071287
    20  H    0.218153
    21  C    0.729942
    22  C   -0.363684
    23  H    0.192495
    24  H    0.188675
    25  O   -0.455821
    26  C    0.109399
    27  C   -0.188149
    28  H    0.148732
    29  C   -0.248090
    30  H    0.160605
    31  C   -0.151662
    32  H    0.175873
    33  C   -0.183856
    34  H    0.154386
    35  O   -0.618658
    36  H    0.423448
    37  C    0.357334
    38  N   -0.617709
    39  H    0.396540
    40  C   -0.043864
    41  H    0.259678
    42  C    0.645575
    43  C   -0.274760
    44  H    0.168768
    45  H    0.164875
    46  O   -0.372859
    47  C   -0.283772
    48  H    0.149172
    49  H    0.176408
    50  C   -0.251336
    51  H    0.131182
    52  H    0.158623
    53  C   -0.137589
    54  H    0.148820
    55  H    0.119109
    56  N   -0.715343
    57  H    0.297898
    58  H    0.309414
    59  O   -0.826990
    60  H    0.410403
    61  H    0.434804
    62  H    0.430997
 Sum of Mulliken charges =   1.00000

 Dipole moment (field-independent basis, Debye):
    X=              3.1159    Y=             -0.4849    Z=             -4.5477  Tot=              5.5340
 Quadrupole moment (field-independent basis, Debye-Ang):
   XX=           -109.6095   YY=           -170.5997   ZZ=           -139.5605
   XY=             21.6679   XZ=            -26.5793   YZ=            -10.0158

 Normal termination of Gaussian 16 at Thu Jun  2 00:17:55 2022.
