 Gaussian 16, Revision C.01,
 Gaussian 16:  ES64L-G16RevC.01  3-Jul-2019

 ----------------------------------------------------------------------
 # B3LYP/6-31G* empiricaldispersion=gd3 guess=read geom=check nosymm in
 tegral(ultrafinegrid)
 ----------------------------------------------------------------------

 ------------------------------------------------------
 Candidate Structure: Conf:110 Charge calc in gas phase
 ------------------------------------------------------
 Structure from the checkpoint file:  "conf-110.chk"
 Charge =  1 Multiplicity = 1

                          Input orientation:
 ---------------------------------------------------------------------
 Center     Atomic      Atomic             Coordinates (Angstroms)
 Number     Number       Type             X           Y           Z
 ---------------------------------------------------------------------
      1          7           0       -0.125327   -2.144088    4.224861
      2          1           0        0.619149   -2.663133    3.760025
      3          1           0        0.329189   -1.398916    4.749166
      4          6           0       -1.014836   -1.583807    3.218532
      5          1           0       -1.675701   -0.862277    3.711057
      6          6           0       -0.256262   -0.855520    2.096473
      7          6           0       -1.875578   -2.729329    2.636163
      8          1           0       -2.361092   -3.219327    3.485217
      9          1           0       -1.209059   -3.469593    2.177283
     10          8           0        0.872140   -1.205595    1.726865
     11          6           0       -2.933559   -2.324030    1.583580
     12          1           0       -3.501582   -3.209781    1.289460
     13          1           0       -2.450323   -1.915113    0.691167
     14          6           0       -3.880875   -1.270288    2.110347
     15          8           0       -3.637134   -0.070864    2.148132
     16          8           0       -5.019846   -1.784563    2.584340
     17          7           0       -0.867425    0.215118    1.527286
     18          1           0       -1.855811    0.389300    1.732729
     19          6           0       -0.287901    0.810443    0.334999
     20          1           0       -0.601365    1.861747    0.306800
     21          6           0        1.222666    0.881752    0.529261
     22          6           0       -0.783588    0.099880   -0.952555
     23          1           0       -0.476205   -0.951711   -0.904406
     24          1           0       -1.877982    0.106347   -0.882481
     25          8           0        1.585332    1.523848    1.605023
     26          6           0       -0.329960    0.742358   -2.247958
     27          6           0        0.461307    0.038589   -3.171814
     28          1           0        0.676279   -1.016620   -3.004830
     29          6           0       -0.648544    2.076201   -2.538728
     30          1           0       -1.289000    2.642019   -1.865765
     31          6           0        0.961408    0.653745   -4.317806
     32          1           0        1.572610    0.109158   -5.029886
     33          6           0       -0.168169    2.700592   -3.686889
     34          1           0       -0.431143    3.734596   -3.895239
     35          8           0        1.207311    2.554961   -5.682953
     36          1           0        0.935800    3.483605   -5.766395
     37          6           0        0.660964    1.997517   -4.572711
     38          7           0        2.062134    0.505426   -0.408207
     39          1           0        1.632179    0.112376   -1.240534
     40          6           0        3.523511    0.717383   -0.531146
     41          1           0        3.801483    0.165549   -1.430458
     42          6           0        4.315269    0.042595    0.591056
     43          6           0        3.880388    2.205091   -0.725688
     44          1           0        3.633502    2.774678    0.177393
     45          1           0        4.969078    2.263387   -0.848232
     46          8           0        5.088620   -0.860139    0.446889
     47          6           0        3.170010    2.796531   -1.949535
     48          1           0        2.086388    2.800357   -1.775981
     49          1           0        3.331937    2.140990   -2.816682
     50          6           0        3.629203    4.215602   -2.302839
     51          1           0        3.519629    4.876882   -1.430963
     52          1           0        4.697999    4.208173   -2.558872
     53          6           0        2.824248    4.791326   -3.484007
     54          1           0        2.883270    4.092288   -4.328840
     55          1           0        1.764896    4.835032   -3.194997
     56          7           0        3.208967    6.112307   -3.967543
     57          1           0        4.174242    6.105000   -4.292937
     58          1           0        3.163860    6.796464   -3.213986
     59          8           0        4.075953    0.639751    1.803703
     60          1           0        2.535425    1.365099    1.838894
     61          1           0        4.578045    0.163444    2.494701
     62          1           0       -5.558532   -1.050694    2.940531
 ---------------------------------------------------------------------

 SCF Done:  E(RB3LYP) =  -1526.26780064     A.U. after    1 cycles

 Alpha  occ. eigenvalues --  -19.35376 -19.35051 -19.30591 -19.28681 -19.28363
 Alpha  occ. eigenvalues --  -19.25525 -19.24443 -14.54423 -14.48038 -14.41160
 Alpha  occ. eigenvalues --  -14.39243 -10.48752 -10.46830 -10.43487 -10.40301
 Alpha  occ. eigenvalues --  -10.39506 -10.38796 -10.36244 -10.33017 -10.32754
 Alpha  occ. eigenvalues --  -10.32357 -10.31469 -10.31026 -10.30965 -10.30768
 Alpha  occ. eigenvalues --  -10.30395 -10.29933 -10.29918 -10.29753 -10.29522
 Alpha  occ. eigenvalues --  -10.27910  -1.26374  -1.24872  -1.21766  -1.16721
 Alpha  occ. eigenvalues --   -1.16586  -1.16087  -1.12615  -1.11750  -1.05271
 Alpha  occ. eigenvalues --   -0.99038  -0.97365  -0.96339  -0.95132  -0.91460
 Alpha  occ. eigenvalues --   -0.89899  -0.88420  -0.86576  -0.86287  -0.81972
 Alpha  occ. eigenvalues --   -0.81171  -0.80860  -0.78683  -0.76446  -0.74539
 Alpha  occ. eigenvalues --   -0.73874  -0.73624  -0.72139  -0.70814  -0.70490
 Alpha  occ. eigenvalues --   -0.69837  -0.68929  -0.67674  -0.65704  -0.65216
 Alpha  occ. eigenvalues --   -0.63260  -0.62183  -0.61567  -0.60805  -0.60548
 Alpha  occ. eigenvalues --   -0.60050  -0.59386  -0.58871  -0.58672  -0.57942
 Alpha  occ. eigenvalues --   -0.57724  -0.57135  -0.56695  -0.56343  -0.55578
 Alpha  occ. eigenvalues --   -0.55392  -0.55081  -0.54833  -0.54455  -0.53645
 Alpha  occ. eigenvalues --   -0.53114  -0.52867  -0.52096  -0.51967  -0.51679
 Alpha  occ. eigenvalues --   -0.50854  -0.50289  -0.49958  -0.49322  -0.49184
 Alpha  occ. eigenvalues --   -0.48621  -0.47600  -0.47184  -0.46820  -0.46814
 Alpha  occ. eigenvalues --   -0.46315  -0.46111  -0.45333  -0.45018  -0.44702
 Alpha  occ. eigenvalues --   -0.44375  -0.44049  -0.42738  -0.42573  -0.41367
 Alpha  occ. eigenvalues --   -0.39469  -0.38307  -0.37735  -0.36912  -0.33752
 Alpha  occ. eigenvalues --   -0.33129  -0.31338
 Alpha virt. eigenvalues --   -0.16692  -0.14061  -0.12648  -0.11237  -0.10607
 Alpha virt. eigenvalues --   -0.09752  -0.07125  -0.04450  -0.02973  -0.02882
 Alpha virt. eigenvalues --   -0.02173  -0.01923  -0.00844  -0.00660  -0.00405

 Mulliken charges:
               1
     1  N   -0.686251
     2  H    0.317042
     3  H    0.310423
     4  C   -0.095831
     5  H    0.171744
     6  C    0.605068
     7  C   -0.271198
     8  H    0.199134
     9  H    0.170593
    10  O   -0.557956
    11  C   -0.366561
    12  H    0.201099
    13  H    0.168338
    14  C    0.598846
    15  O   -0.492134
    16  O   -0.530041
    17  N   -0.614464
    18  H    0.397496
    19  C   -0.020495
    20  H    0.207361
    21  C    0.643712
    22  C   -0.396984
    23  H    0.182063
    24  H    0.194827
    25  O   -0.561111
    26  C    0.143480
    27  C   -0.248186
    28  H    0.156694
    29  C   -0.193441
    30  H    0.148400
    31  C   -0.152676
    32  H    0.173824
    33  C   -0.183783
    34  H    0.159085
    35  O   -0.625650
    36  H    0.430327
    37  C    0.367748
    38  N   -0.573997
    39  H    0.392931
    40  C   -0.102117
    41  H    0.218502
    42  C    0.627698
    43  C   -0.278128
    44  H    0.162320
    45  H    0.186111
    46  O   -0.391711
    47  C   -0.280964
    48  H    0.144141
    49  H    0.152630
    50  C   -0.268517
    51  H    0.136093
    52  H    0.143969
    53  C   -0.159262
    54  H    0.150369
    55  H    0.132122
    56  N   -0.703305
    57  H    0.305491
    58  H    0.302146
    59  O   -0.611306
    60  H    0.481146
    61  H    0.453563
    62  H    0.429534
 Sum of Mulliken charges =   1.00000

 Dipole moment (field-independent basis, Debye):
    X=              3.8391    Y=              5.2058    Z=              0.4342  Tot=              6.4828
 Quadrupole moment (field-independent basis, Debye-Ang):
   XX=           -126.0722   YY=           -156.1767   ZZ=           -154.1507
   XY=             25.2398   XZ=             -6.3680   YZ=            -10.4438

 Normal termination of Gaussian 16 at Thu Jun  2 00:17:33 2022.
