 Gaussian 16, Revision C.01,
 Gaussian 16:  ES64L-G16RevC.01  3-Jul-2019

 ----------------------------------------------------------------------
 # B3LYP/6-31G* empiricaldispersion=gd3 guess=read geom=check nosymm in
 tegral(ultrafinegrid)
 ----------------------------------------------------------------------

 -----------------------------------------------------
 Candidate Structure: Conf:95 Charge calc in gas phase
 -----------------------------------------------------
 Structure from the checkpoint file:  "conf-95.chk"
 Charge =  1 Multiplicity = 1

                          Input orientation:
 ---------------------------------------------------------------------
 Center     Atomic      Atomic             Coordinates (Angstroms)
 Number     Number       Type             X           Y           Z
 ---------------------------------------------------------------------
      1          7           0        0.969435   -2.118252    3.860492
      2          1           0        1.782657   -2.366704    3.298056
      3          1           0        1.203615   -1.252163    4.341076
      4          6           0       -0.175070   -1.929597    2.986795
      5          1           0       -0.983871   -1.473220    3.573807
      6          6           0        0.129104   -1.029615    1.783129
      7          6           0       -0.667591   -3.292199    2.444832
      8          1           0        0.149198   -3.764796    1.887144
      9          1           0       -1.488101   -3.129727    1.733297
     10          8           0        1.257090   -0.919263    1.297436
     11          6           0       -1.130411   -4.221661    3.576099
     12          1           0       -1.977705   -3.791886    4.117211
     13          1           0       -0.304430   -4.351431    4.283285
     14          6           0       -1.563419   -5.580422    3.069973
     15          8           0       -2.641418   -6.092778    3.260515
     16          8           0       -0.575881   -6.180355    2.353938
     17          7           0       -0.915092   -0.352692    1.217177
     18          1           0       -1.854039   -0.438521    1.581472
     19          6           0       -0.709165    0.304581   -0.065892
     20          1           0       -1.520819    1.029493   -0.198713
     21          6           0        0.559178    1.145956    0.056470
     22          6           0       -0.721545   -0.726506   -1.224314
     23          1           0        0.046906   -1.474662   -1.005691
     24          1           0       -1.688873   -1.237768   -1.150725
     25          8           0        0.628968    1.869864    1.139767
     26          6           0       -0.526051   -0.157893   -2.615364
     27          6           0       -1.349233    0.868987   -3.111422
     28          1           0       -2.173813    1.243573   -2.508769
     29          6           0        0.505997   -0.629617   -3.440439
     30          1           0        1.144635   -1.439513   -3.093456
     31          6           0       -1.145679    1.412091   -4.372027
     32          1           0       -1.784127    2.199848   -4.757841
     33          6           0        0.724811   -0.091047   -4.710350
     34          1           0        1.526324   -0.478719   -5.334708
     35          8           0        0.042901    1.516035   -6.397435
     36          1           0        0.755092    1.085810   -6.897098
     37          6           0       -0.101981    0.935330   -5.181927
     38          7           0        1.444747    1.228486   -0.906764
     39          1           0        1.229280    0.718409   -1.766872
     40          6           0        2.817319    1.776355   -0.798974
     41          1           0        3.189860    1.518925    0.199665
     42          6           0        2.752932    3.305351   -0.923500
     43          6           0        3.703354    1.149743   -1.876271
     44          1           0        3.566788    0.061590   -1.833498
     45          1           0        3.354529    1.493336   -2.858022
     46          8           0        3.038751    3.963759   -1.881607
     47          6           0        5.183045    1.501587   -1.683064
     48          1           0        5.518943    1.133893   -0.702658
     49          1           0        5.323440    2.586551   -1.683532
     50          6           0        6.071744    0.903032   -2.779234
     51          1           0        5.990854   -0.192689   -2.780382
     52          1           0        5.713885    1.243880   -3.762491
     53          6           0        7.545858    1.296430   -2.617650
     54          1           0        7.903861    0.948291   -1.640172
     55          1           0        8.140749    0.762761   -3.378808
     56          7           0        7.695022    2.756150   -2.652346
     57          1           0        7.557558    3.093638   -3.604525
     58          1           0        8.645206    3.016776   -2.396157
     59          8           0        2.272087    3.836070    0.247931
     60          1           0        1.299453    2.594688    1.078798
     61          1           0        2.194551    4.806609    0.154389
     62          1           0       -0.922096   -7.051606    2.082294
 ---------------------------------------------------------------------

 SCF Done:  E(RB3LYP) =  -1526.25050315     A.U. after    3 cycles

 Alpha  occ. eigenvalues --  -19.36197 -19.35438 -19.29030 -19.28389 -19.26256
 Alpha  occ. eigenvalues --  -19.25185 -19.20480 -14.54754 -14.49981 -14.41422
 Alpha  occ. eigenvalues --  -14.38690 -10.49236 -10.46911 -10.41199 -10.39766
 Alpha  occ. eigenvalues --  -10.39424 -10.38773 -10.36415 -10.33474 -10.32720
 Alpha  occ. eigenvalues --  -10.31538 -10.31391 -10.31240 -10.30979 -10.30503
 Alpha  occ. eigenvalues --  -10.29923 -10.29179 -10.28543 -10.28026 -10.27487
 Alpha  occ. eigenvalues --  -10.27031  -1.27103  -1.25182  -1.17083  -1.16981
 Alpha  occ. eigenvalues --   -1.16939  -1.16717  -1.12134  -1.08054  -1.06424
 Alpha  occ. eigenvalues --   -0.99359  -0.97524  -0.95690  -0.95040  -0.91599
 Alpha  occ. eigenvalues --   -0.88147  -0.87653  -0.86598  -0.86139  -0.81905
 Alpha  occ. eigenvalues --   -0.81336  -0.80935  -0.77466  -0.76482  -0.74842
 Alpha  occ. eigenvalues --   -0.73721  -0.72502  -0.71367  -0.71121  -0.70568
 Alpha  occ. eigenvalues --   -0.67618  -0.67404  -0.66853  -0.65981  -0.65593
 Alpha  occ. eigenvalues --   -0.64883  -0.63322  -0.61797  -0.60647  -0.59782
 Alpha  occ. eigenvalues --   -0.59199  -0.59066  -0.57923  -0.57725  -0.57264
 Alpha  occ. eigenvalues --   -0.56660  -0.56306  -0.55780  -0.54943  -0.54696
 Alpha  occ. eigenvalues --   -0.54459  -0.54302  -0.53823  -0.53676  -0.53412
 Alpha  occ. eigenvalues --   -0.53255  -0.53025  -0.51909  -0.51714  -0.51010
 Alpha  occ. eigenvalues --   -0.50778  -0.49955  -0.49007  -0.48624  -0.47905
 Alpha  occ. eigenvalues --   -0.47783  -0.47378  -0.46975  -0.46702  -0.45610
 Alpha  occ. eigenvalues --   -0.45163  -0.44966  -0.44591  -0.44201  -0.43769
 Alpha  occ. eigenvalues --   -0.43468  -0.42464  -0.41917  -0.41751  -0.39554
 Alpha  occ. eigenvalues --   -0.38868  -0.38409  -0.37046  -0.34045  -0.33872
 Alpha  occ. eigenvalues --   -0.33297  -0.30986
 Alpha virt. eigenvalues --   -0.17545  -0.14448  -0.12463  -0.11368  -0.10374
 Alpha virt. eigenvalues --   -0.06905  -0.05765  -0.05092  -0.03124  -0.02795
 Alpha virt. eigenvalues --   -0.02404  -0.01357  -0.00886  -0.00725   0.00137

 Mulliken charges:
               1
     1  N   -0.685046
     2  H    0.320617
     3  H    0.315003
     4  C   -0.090125
     5  H    0.155933
     6  C    0.625179
     7  C   -0.279423
     8  H    0.179801
     9  H    0.140472
    10  O   -0.540117
    11  C   -0.330240
    12  H    0.172373
    13  H    0.211913
    14  C    0.561280
    15  O   -0.444116
    16  O   -0.566201
    17  N   -0.593861
    18  H    0.356081
    19  C   -0.039970
    20  H    0.205887
    21  C    0.663814
    22  C   -0.361769
    23  H    0.192098
    24  H    0.190419
    25  O   -0.557019
    26  C    0.089204
    27  C   -0.182666
    28  H    0.143363
    29  C   -0.228563
    30  H    0.157598
    31  C   -0.149151
    32  H    0.175268
    33  C   -0.180063
    34  H    0.152231
    35  O   -0.617627
    36  H    0.423421
    37  C    0.360140
    38  N   -0.602974
    39  H    0.406552
    40  C   -0.077967
    41  H    0.218596
    42  C    0.634477
    43  C   -0.307450
    44  H    0.163311
    45  H    0.176948
    46  O   -0.391651
    47  C   -0.273114
    48  H    0.140545
    49  H    0.194323
    50  C   -0.261662
    51  H    0.137759
    52  H    0.135006
    53  C   -0.143411
    54  H    0.146655
    55  H    0.134577
    56  N   -0.720412
    57  H    0.301195
    58  H    0.312284
    59  O   -0.615145
    60  H    0.477505
    61  H    0.450726
    62  H    0.417190
 Sum of Mulliken charges =   1.00000

 Dipole moment (field-independent basis, Debye):
    X=              7.3078    Y=              5.2546    Z=             -5.1822  Tot=             10.3861
 Quadrupole moment (field-independent basis, Debye-Ang):
   XX=           -132.0772   YY=           -157.3748   ZZ=           -141.4156
   XY=              4.5758   XZ=            -19.4569   YZ=              8.6355

 Normal termination of Gaussian 16 at Thu Jun  2 00:17:49 2022.
