 Gaussian 16, Revision C.01,
 Gaussian 16:  ES64L-G16RevC.01  3-Jul-2019

 ----------------------------------------------------------------------
 # B3LYP/6-31G* empiricaldispersion=gd3 guess=read geom=check nosymm in
 tegral(ultrafinegrid)
 ----------------------------------------------------------------------

 ------------------------------------------------------
 Candidate Structure: Conf:966 Charge calc in gas phase
 ------------------------------------------------------
 Structure from the checkpoint file:  "conf-966.chk"
 Charge =  1 Multiplicity = 1

                          Input orientation:
 ---------------------------------------------------------------------
 Center     Atomic      Atomic             Coordinates (Angstroms)
 Number     Number       Type             X           Y           Z
 ---------------------------------------------------------------------
      1          7           0       -4.106100   -1.067771    1.981714
      2          1           0       -4.449497   -1.549284    1.152317
      3          1           0       -4.658137   -1.416069    2.763962
      4          6           0       -2.692499   -1.381330    2.208185
      5          1           0       -2.451610   -2.447905    2.103463
      6          6           0       -1.864793   -0.608509    1.178605
      7          6           0       -2.313401   -0.937915    3.639110
      8          1           0       -2.678007   -1.703859    4.333074
      9          1           0       -2.865383   -0.014984    3.845226
     10          8           0       -1.825394    0.617025    1.092171
     11          6           0       -0.830953   -0.655903    3.908206
     12          1           0       -0.672741   -0.443959    4.971344
     13          1           0       -0.525269    0.252934    3.375726
     14          6           0        0.140690   -1.742396    3.501223
     15          8           0       -0.104164   -2.728532    2.834374
     16          8           0        1.386972   -1.462074    3.945022
     17          7           0       -1.116330   -1.374215    0.313368
     18          1           0       -0.846375   -2.307787    0.601782
     19          6           0       -0.304247   -0.660029   -0.637305
     20          1           0       -0.973127   -0.073819   -1.277228
     21          6           0        0.583343    0.355842    0.059145
     22          6           0        0.539027   -1.595646   -1.545793
     23          1           0        1.273272   -2.135564   -0.936995
     24          1           0       -0.158857   -2.339410   -1.947879
     25          8           0        1.068507    0.030155    1.227508
     26          6           0        1.215059   -0.825622   -2.661530
     27          6           0        0.443595   -0.180641   -3.645006
     28          1           0       -0.638450   -0.296485   -3.646088
     29          6           0        2.604419   -0.678211   -2.715707
     30          1           0        3.229591   -1.171559   -1.975063
     31          6           0        1.033564    0.593208   -4.638476
     32          1           0        0.437968    1.083107   -5.401568
     33          6           0        3.214211    0.085095   -3.714612
     34          1           0        4.297851    0.172791   -3.747464
     35          8           0        2.945477    1.496928   -5.676330
     36          1           0        3.915736    1.479919   -5.649824
     37          6           0        2.428390    0.725769   -4.679475
     38          7           0        0.951871    1.441211   -0.571131
     39          1           0        0.532714    1.600704   -1.483495
     40          6           0        2.010085    2.392642   -0.173718
     41          1           0        2.793228    1.807389    0.324594
     42          6           0        1.443377    3.359009    0.874611
     43          6           0        2.607276    3.075830   -1.409129
     44          1           0        3.315531    3.828296   -1.046283
     45          1           0        3.186605    2.313424   -1.942301
     46          8           0        1.292742    4.541348    0.765533
     47          6           0        1.616102    3.726351   -2.384640
     48          1           0        1.075463    4.539530   -1.888735
     49          1           0        0.862704    2.994431   -2.717490
     50          6           0        2.340332    4.225743   -3.641130
     51          1           0        2.994448    5.071498   -3.399875
     52          1           0        2.990234    3.424599   -4.015947
     53          6           0        1.389476    4.626584   -4.773896
     54          1           0        0.612287    3.843745   -4.881624
     55          1           0        0.863299    5.550509   -4.504479
     56          7           0        2.160738    4.868496   -5.992433
     57          1           0        1.577454    5.307776   -6.701345
     58          1           0        2.462266    3.974044   -6.377255
     59          8           0        1.139488    2.644827    2.005424
     60          1           0        1.330135    0.823830    1.753674
     61          1           0        0.725239    3.236864    2.663919
     62          1           0        1.961935   -2.199361    3.663881
 ---------------------------------------------------------------------

 SCF Done:  E(RB3LYP) =  -1526.25727140     A.U. after    3 cycles

 Alpha  occ. eigenvalues --  -19.37020 -19.35358 -19.30076 -19.29384 -19.29227
 Alpha  occ. eigenvalues --  -19.24773 -19.23880 -14.55955 -14.48388 -14.40864
 Alpha  occ. eigenvalues --  -14.38027 -10.49134 -10.47136 -10.42891 -10.40215
 Alpha  occ. eigenvalues --  -10.40063 -10.38849 -10.36872 -10.33491 -10.32319
 Alpha  occ. eigenvalues --  -10.31929 -10.31703 -10.31414 -10.31259 -10.30884
 Alpha  occ. eigenvalues --  -10.30531 -10.30415 -10.29553 -10.29109 -10.28532
 Alpha  occ. eigenvalues --  -10.26867  -1.27703  -1.25250  -1.21071  -1.17413
 Alpha  occ. eigenvalues --   -1.17080  -1.15845  -1.13151  -1.12078  -1.05429
 Alpha  occ. eigenvalues --   -0.98563  -0.97731  -0.95832  -0.95050  -0.91796
 Alpha  occ. eigenvalues --   -0.89493  -0.88458  -0.86803  -0.86270  -0.82235
 Alpha  occ. eigenvalues --   -0.81433  -0.81219  -0.78120  -0.76893  -0.75566
 Alpha  occ. eigenvalues --   -0.74898  -0.74082  -0.71990  -0.71366  -0.69934
 Alpha  occ. eigenvalues --   -0.68206  -0.67818  -0.67262  -0.66282  -0.65786
 Alpha  occ. eigenvalues --   -0.63761  -0.62664  -0.61850  -0.61408  -0.60550
 Alpha  occ. eigenvalues --   -0.60080  -0.59472  -0.59170  -0.58544  -0.57950
 Alpha  occ. eigenvalues --   -0.57576  -0.57188  -0.57089  -0.56438  -0.56092
 Alpha  occ. eigenvalues --   -0.55429  -0.55009  -0.54450  -0.54268  -0.53928
 Alpha  occ. eigenvalues --   -0.53192  -0.52513  -0.52350  -0.51919  -0.51491
 Alpha  occ. eigenvalues --   -0.50428  -0.50049  -0.49973  -0.49394  -0.49045
 Alpha  occ. eigenvalues --   -0.48447  -0.47879  -0.47626  -0.47205  -0.46854
 Alpha  occ. eigenvalues --   -0.45901  -0.45629  -0.45476  -0.44788  -0.44453
 Alpha  occ. eigenvalues --   -0.44172  -0.42988  -0.42677  -0.41851  -0.41448
 Alpha  occ. eigenvalues --   -0.38930  -0.38166  -0.37346  -0.37073  -0.33859
 Alpha  occ. eigenvalues --   -0.32956  -0.30391
 Alpha virt. eigenvalues --   -0.18223  -0.14296  -0.12859  -0.11385  -0.11027
 Alpha virt. eigenvalues --   -0.09203  -0.07553  -0.05616  -0.04365  -0.04047
 Alpha virt. eigenvalues --   -0.02384  -0.02040  -0.01499  -0.00851  -0.00036

 Mulliken charges:
               1
     1  N   -0.712158
     2  H    0.310851
     3  H    0.318347
     4  C   -0.061745
     5  H    0.152869
     6  C    0.636351
     7  C   -0.276051
     8  H    0.169921
     9  H    0.186434
    10  O   -0.529459
    11  C   -0.386057
    12  H    0.201546
    13  H    0.173590
    14  C    0.603007
    15  O   -0.483440
    16  O   -0.567835
    17  N   -0.609284
    18  H    0.372842
    19  C   -0.031749
    20  H    0.204565
    21  C    0.675934
    22  C   -0.391631
    23  H    0.181029
    24  H    0.205687
    25  O   -0.574421
    26  C    0.149654
    27  C   -0.226555
    28  H    0.155808
    29  C   -0.200869
    30  H    0.147384
    31  C   -0.155180
    32  H    0.176197
    33  C   -0.193607
    34  H    0.152776
    35  O   -0.632504
    36  H    0.426651
    37  C    0.369146
    38  N   -0.555884
    39  H    0.397166
    40  C   -0.111324
    41  H    0.206971
    42  C    0.647300
    43  C   -0.295547
    44  H    0.193337
    45  H    0.168199
    46  O   -0.387238
    47  C   -0.304802
    48  H    0.186514
    49  H    0.122749
    50  C   -0.247925
    51  H    0.166590
    52  H    0.126653
    53  C   -0.136794
    54  H    0.104472
    55  H    0.153140
    56  N   -0.723542
    57  H    0.308206
    58  H    0.304271
    59  O   -0.616691
    60  H    0.482823
    61  H    0.454172
    62  H    0.419140
 Sum of Mulliken charges =   1.00000

 Dipole moment (field-independent basis, Debye):
    X=              5.5241    Y=              0.4582    Z=             -1.0784  Tot=              5.6470
 Quadrupole moment (field-independent basis, Debye-Ang):
   XX=           -145.7921   YY=           -170.5470   ZZ=           -126.9984
   XY=             12.2042   XZ=            -13.3599   YZ=             -6.9959

 Normal termination of Gaussian 16 at Thu Jun  2 00:24:52 2022.
