 Gaussian 16, Revision C.01,
 Gaussian 16:  ES64L-G16RevC.01  3-Jul-2019

 ----------------------------------------------------------------------
 # B3LYP/6-31G* empiricaldispersion=gd3 guess=read geom=check nosymm in
 tegral(ultrafinegrid)
 ----------------------------------------------------------------------

 ------------------------------------------------------
 Candidate Structure: Conf:306 Charge calc in gas phase
 ------------------------------------------------------
 Structure from the checkpoint file:  "conf-306.chk"
 Charge =  1 Multiplicity = 1

                          Input orientation:
 ---------------------------------------------------------------------
 Center     Atomic      Atomic             Coordinates (Angstroms)
 Number     Number       Type             X           Y           Z
 ---------------------------------------------------------------------
      1          7           0        0.086315   -2.608947    3.967608
      2          1           0        0.604047   -3.225474    3.343020
      3          1           0        0.771110   -2.056013    4.478118
      4          6           0       -0.801854   -1.761418    3.194528
      5          1           0       -1.231234   -1.009319    3.870679
      6          6           0       -0.095584   -1.035318    2.041854
      7          6           0       -1.950957   -2.592499    2.580804
      8          1           0       -1.526058   -3.334054    1.893024
      9          1           0       -2.596252   -1.951522    1.969031
     10          8           0        0.943441   -1.454485    1.519735
     11          6           0       -2.792602   -3.300539    3.640728
     12          1           0       -3.235084   -2.584234    4.345589
     13          1           0       -2.176670   -3.971222    4.247472
     14          6           0       -3.916789   -4.090049    3.003403
     15          8           0       -4.158610   -4.123489    1.815809
     16          8           0       -4.633407   -4.758794    3.930717
     17          7           0       -0.673980    0.096716    1.554455
     18          1           0       -1.550840    0.428441    1.933760
     19          6           0       -0.184257    0.691898    0.320042
     20          1           0       -0.549672    1.726332    0.297886
     21          6           0        1.318733    0.848452    0.406407
     22          6           0       -0.681485   -0.051091   -0.948624
     23          1           0       -0.313528   -1.081407   -0.909577
     24          1           0       -1.772784   -0.101574   -0.858503
     25          8           0        1.828498    1.456920    1.454247
     26          6           0       -0.274341    0.631019   -2.240176
     27          6           0       -0.645174    1.961410   -2.498750
     28          1           0       -1.314158    2.482340   -1.817222
     29          6           0        0.545301   -0.016549   -3.175911
     30          1           0        0.803046   -1.065338   -3.035234
     31          6           0       -0.183706    2.636666   -3.621667
     32          1           0       -0.477025    3.661010   -3.825181
     33          6           0        1.031490    0.654654   -4.302291
     34          1           0        1.668953    0.133760   -5.012832
     35          8           0        1.149300    2.734167   -5.557307
     36          1           0        1.664167    2.182054   -6.167641
     37          6           0        0.681790    1.992303   -4.516885
     38          7           0        2.191621    0.614384   -0.533361
     39          1           0        1.923815    0.281253   -1.457768
     40          6           0        3.514593    1.157012   -0.213788
     41          1           0        4.234287    0.339860   -0.127271
     42          6           0        3.262980    1.690294    1.186923
     43          6           0        3.958872    2.219705   -1.235966
     44          1           0        4.949853    2.572007   -0.930132
     45          1           0        4.092958    1.696314   -2.191787
     46          8           0        3.929879    2.276384    1.960488
     47          6           0        2.981215    3.391263   -1.406796
     48          1           0        3.084184    4.085235   -0.562010
     49          1           0        1.946569    3.020676   -1.386221
     50          6           0        3.175279    4.131128   -2.736141
     51          1           0        4.203133    4.510458   -2.819020
     52          1           0        3.036988    3.415473   -3.559111
     53          6           0        2.171267    5.285437   -2.923055
     54          1           0        1.173060    4.931994   -2.630943
     55          1           0        2.415980    6.102859   -2.233053
     56          7           0        2.068068    5.835427   -4.269895
     57          1           0        1.860391    5.091244   -4.935070
     58          1           0        2.952568    6.250681   -4.556589
     59          8           0        3.631538   -0.837303    1.808867
     60          1           0        2.790678   -1.324382    1.884444
     61          1           0        4.048082   -0.885163    2.681753
     62          1           0       -5.337723   -5.240383    3.456347
 ---------------------------------------------------------------------

 SCF Done:  E(RB3LYP) =  -1526.24675810     A.U. after    3 cycles

 Alpha  occ. eigenvalues --  -19.37382 -19.30722 -19.29869 -19.26913 -19.26855
 Alpha  occ. eigenvalues --  -19.25256 -19.21450 -14.55702 -14.51454 -14.42543
 Alpha  occ. eigenvalues --  -14.38427 -10.49513 -10.47988 -10.42831 -10.41106
 Alpha  occ. eigenvalues --  -10.39713 -10.39588 -10.37457 -10.34535 -10.33733
 Alpha  occ. eigenvalues --  -10.32668 -10.32586 -10.32177 -10.31875 -10.31690
 Alpha  occ. eigenvalues --  -10.30961 -10.30056 -10.29613 -10.28947 -10.28495
 Alpha  occ. eigenvalues --  -10.27737  -1.29722  -1.21425  -1.18685  -1.17936
 Alpha  occ. eigenvalues --   -1.17839  -1.12600  -1.11050  -1.08963  -1.07939
 Alpha  occ. eigenvalues --   -1.00465  -0.98625  -0.96251  -0.95541  -0.92614
 Alpha  occ. eigenvalues --   -0.89211  -0.88750  -0.87581  -0.86775  -0.82720
 Alpha  occ. eigenvalues --   -0.82119  -0.80603  -0.78600  -0.77208  -0.74987
 Alpha  occ. eigenvalues --   -0.74856  -0.72905  -0.72465  -0.71850  -0.69110
 Alpha  occ. eigenvalues --   -0.68406  -0.67630  -0.66997  -0.66765  -0.65056
 Alpha  occ. eigenvalues --   -0.64381  -0.62937  -0.61632  -0.61306  -0.60330
 Alpha  occ. eigenvalues --   -0.60165  -0.59528  -0.59168  -0.58773  -0.57653
 Alpha  occ. eigenvalues --   -0.57193  -0.56730  -0.56653  -0.56360  -0.55731
 Alpha  occ. eigenvalues --   -0.55677  -0.55104  -0.54844  -0.54595  -0.54141
 Alpha  occ. eigenvalues --   -0.53603  -0.52711  -0.52497  -0.52284  -0.52003
 Alpha  occ. eigenvalues --   -0.50749  -0.49676  -0.49149  -0.48973  -0.48861
 Alpha  occ. eigenvalues --   -0.48440  -0.47459  -0.47251  -0.46789  -0.46198
 Alpha  occ. eigenvalues --   -0.45947  -0.45258  -0.45018  -0.44725  -0.44331
 Alpha  occ. eigenvalues --   -0.44197  -0.43514  -0.42261  -0.41418  -0.40605
 Alpha  occ. eigenvalues --   -0.40392  -0.39190  -0.38012  -0.35404  -0.34841
 Alpha  occ. eigenvalues --   -0.34432  -0.30591
 Alpha virt. eigenvalues --   -0.19129  -0.13978  -0.13592  -0.12785  -0.11741
 Alpha virt. eigenvalues --   -0.06467  -0.06361  -0.04778  -0.04435  -0.04123
 Alpha virt. eigenvalues --   -0.02949  -0.02601  -0.01849  -0.01611  -0.00318

 Mulliken charges:
               1
     1  N   -0.685731
     2  H    0.318089
     3  H    0.313822
     4  C   -0.092146
     5  H    0.161158
     6  C    0.624766
     7  C   -0.265134
     8  H    0.172284
     9  H    0.150520
    10  O   -0.553531
    11  C   -0.352419
    12  H    0.180449
    13  H    0.216978
    14  C    0.584434
    15  O   -0.463489
    16  O   -0.559517
    17  N   -0.589085
    18  H    0.361619
    19  C   -0.059658
    20  H    0.215256
    21  C    0.726587
    22  C   -0.372078
    23  H    0.196040
    24  H    0.196531
    25  O   -0.458736
    26  C    0.142353
    27  C   -0.193965
    28  H    0.150393
    29  C   -0.265752
    30  H    0.165987
    31  C   -0.151841
    32  H    0.192543
    33  C   -0.177819
    34  H    0.158350
    35  O   -0.631528
    36  H    0.426594
    37  C    0.363627
    38  N   -0.597882
    39  H    0.390360
    40  C   -0.060538
    41  H    0.268305
    42  C    0.650741
    43  C   -0.278033
    44  H    0.201798
    45  H    0.168860
    46  O   -0.366678
    47  C   -0.297164
    48  H    0.168476
    49  H    0.126314
    50  C   -0.273944
    51  H    0.148409
    52  H    0.129368
    53  C   -0.140861
    54  H    0.126697
    55  H    0.155452
    56  N   -0.714156
    57  H    0.309167
    58  H    0.302070
    59  O   -0.826010
    60  H    0.431449
    61  H    0.411409
    62  H    0.420442
 Sum of Mulliken charges =   1.00000

 Dipole moment (field-independent basis, Debye):
    X=              5.3409    Y=              1.5292    Z=             -1.8450  Tot=              5.8539
 Quadrupole moment (field-independent basis, Debye-Ang):
   XX=           -140.7403   YY=           -173.2789   ZZ=           -130.6256
   XY=             13.3788   XZ=            -29.0093   YZ=            -15.3146

 Normal termination of Gaussian 16 at Thu Jun  2 00:17:52 2022.
