 Gaussian 16, Revision C.01,
 Gaussian 16:  ES64L-G16RevC.01  3-Jul-2019

 ----------------------------------------------------------------------
 # B3LYP/6-31G* empiricaldispersion=gd3 guess=read geom=check nosymm in
 tegral(ultrafinegrid)
 ----------------------------------------------------------------------

 ------------------------------------------------------
 Candidate Structure: Conf:112 Charge calc in gas phase
 ------------------------------------------------------
 Structure from the checkpoint file:  "conf-112.chk"
 Charge =  1 Multiplicity = 1

                          Input orientation:
 ---------------------------------------------------------------------
 Center     Atomic      Atomic             Coordinates (Angstroms)
 Number     Number       Type             X           Y           Z
 ---------------------------------------------------------------------
      1          7           0       -1.146975   -3.925561    2.112934
      2          1           0       -1.043862   -4.136796    1.120068
      3          1           0       -0.222799   -4.056365    2.521079
      4          6           0       -1.562532   -2.536545    2.249950
      5          1           0       -1.486047   -2.261610    3.308837
      6          6           0       -0.691367   -1.581994    1.409589
      7          6           0       -3.039684   -2.423621    1.806526
      8          1           0       -3.596652   -3.186233    2.358701
      9          1           0       -3.101796   -2.682505    0.742487
     10          8           0       -0.207100   -1.929399    0.338603
     11          6           0       -3.709409   -1.046008    2.010515
     12          1           0       -4.739475   -1.100228    1.649688
     13          1           0       -3.188635   -0.264998    1.448437
     14          6           0       -3.776787   -0.674299    3.474087
     15          8           0       -4.632518   -0.997972    4.255207
     16          8           0       -2.683213    0.069658    3.873939
     17          7           0       -0.511558   -0.319166    1.929261
     18          1           0       -1.048188   -0.070355    2.756083
     19          6           0        0.114531    0.758282    1.196118
     20          1           0       -0.073837    1.671712    1.770947
     21          6           0        1.629236    0.617775    1.151760
     22          6           0       -0.480295    0.985496   -0.271492
     23          1           0       -1.048687    0.086332   -0.505792
     24          1           0       -1.183456    1.820445   -0.199178
     25          8           0        2.129941   -0.567714    1.244378
     26          6           0        0.545818    1.235380   -1.349037
     27          6           0        1.324295    0.166121   -1.830106
     28          1           0        1.105855   -0.840035   -1.482288
     29          6           0        0.815148    2.519677   -1.834484
     30          1           0        0.202760    3.359153   -1.508271
     31          6           0        2.370643    0.385183   -2.718867
     32          1           0        2.975225   -0.436548   -3.090462
     33          6           0        1.854926    2.750939   -2.738664
     34          1           0        2.044173    3.753418   -3.110940
     35          8           0        3.736502    1.840533   -3.968886
     36          1           0        4.027271    2.802384   -4.034079
     37          6           0        2.668986    1.687396   -3.166287
     38          7           0        2.367871    1.701061    0.992714
     39          1           0        1.840412    2.564724    0.913902
     40          6           0        3.736461    1.800210    0.404130
     41          1           0        3.753082    1.109222   -0.449715
     42          6           0        4.814673    1.365549    1.405246
     43          6           0        3.976524    3.237234   -0.074406
     44          1           0        3.043956    3.597699   -0.519472
     45          1           0        4.220500    3.868759    0.787119
     46          8           0        5.686750    2.052003    1.855622
     47          6           0        5.072120    3.325727   -1.144762
     48          1           0        4.832958    2.630950   -1.955019
     49          1           0        6.033827    3.009404   -0.724139
     50          6           0        5.204531    4.749114   -1.715864
     51          1           0        4.216633    5.231584   -1.760016
     52          1           0        5.811900    5.365531   -1.042920
     53          6           0        5.817051    4.779192   -3.121793
     54          1           0        6.217137    5.780619   -3.331953
     55          1           0        6.657140    4.077991   -3.179708
     56          7           0        4.821193    4.370193   -4.144478
     57          1           0        5.280210    4.294653   -5.053098
     58          1           0        4.129709    5.113487   -4.252021
     59          8           0        4.677585    0.035020    1.708313
     60          1           0        3.119891   -0.571453    1.319521
     61          1           0        5.369713   -0.227312    2.347851
     62          1           0       -2.794927    0.222452    4.832559
 ---------------------------------------------------------------------

 SCF Done:  E(RB3LYP) =  -1526.26698647     A.U. after    1 cycles

 Alpha  occ. eigenvalues --  -19.37094 -19.36375 -19.30086 -19.29871 -19.24476
 Alpha  occ. eigenvalues --  -19.23490 -19.22618 -14.56075 -14.47738 -14.44491
 Alpha  occ. eigenvalues --  -14.39954 -10.49401 -10.47831 -10.41593 -10.40097
 Alpha  occ. eigenvalues --  -10.39276 -10.39130 -10.34542 -10.32093 -10.31864
 Alpha  occ. eigenvalues --  -10.31776 -10.31684 -10.29729 -10.29579 -10.29554
 Alpha  occ. eigenvalues --  -10.29536 -10.29186 -10.28814 -10.28763 -10.28633
 Alpha  occ. eigenvalues --  -10.28266  -1.28102  -1.26119  -1.20028  -1.17813
 Alpha  occ. eigenvalues --   -1.14568  -1.13243  -1.12974  -1.11246  -1.04769
 Alpha  occ. eigenvalues --   -1.00097  -0.97843  -0.96032  -0.95366  -0.90883
 Alpha  occ. eigenvalues --   -0.88807  -0.88442  -0.85449  -0.84760  -0.83040
 Alpha  occ. eigenvalues --   -0.81709  -0.79807  -0.78335  -0.77073  -0.74869
 Alpha  occ. eigenvalues --   -0.73827  -0.72592  -0.71842  -0.70216  -0.69475
 Alpha  occ. eigenvalues --   -0.68942  -0.68223  -0.67312  -0.66320  -0.64221
 Alpha  occ. eigenvalues --   -0.63721  -0.62944  -0.61874  -0.61257  -0.60465
 Alpha  occ. eigenvalues --   -0.59760  -0.58969  -0.58717  -0.58184  -0.57889
 Alpha  occ. eigenvalues --   -0.57607  -0.57390  -0.56348  -0.56054  -0.55709
 Alpha  occ. eigenvalues --   -0.55131  -0.54153  -0.54031  -0.53365  -0.53197
 Alpha  occ. eigenvalues --   -0.52956  -0.52362  -0.52084  -0.51776  -0.50919
 Alpha  occ. eigenvalues --   -0.50510  -0.49791  -0.49161  -0.48942  -0.48552
 Alpha  occ. eigenvalues --   -0.48268  -0.48094  -0.47395  -0.46742  -0.45942
 Alpha  occ. eigenvalues --   -0.45634  -0.45371  -0.45011  -0.44567  -0.44319
 Alpha  occ. eigenvalues --   -0.43197  -0.42962  -0.42607  -0.41762  -0.41604
 Alpha  occ. eigenvalues --   -0.37817  -0.36908  -0.36771  -0.36275  -0.35474
 Alpha  occ. eigenvalues --   -0.32544  -0.31251
 Alpha virt. eigenvalues --   -0.18510  -0.15434  -0.10972  -0.09821  -0.08976
 Alpha virt. eigenvalues --   -0.08837  -0.07871  -0.06801  -0.03842  -0.03689
 Alpha virt. eigenvalues --   -0.02056  -0.01462  -0.00773  -0.00076  -0.00038

 Mulliken charges:
               1
     1  N   -0.684773
     2  H    0.319852
     3  H    0.306321
     4  C   -0.090606
     5  H    0.150886
     6  C    0.596809
     7  C   -0.272573
     8  H    0.202426
     9  H    0.169379
    10  O   -0.519588
    11  C   -0.356265
    12  H    0.204231
    13  H    0.156104
    14  C    0.579412
    15  O   -0.417604
    16  O   -0.602212
    17  N   -0.634788
    18  H    0.385376
    19  C   -0.052072
    20  H    0.183788
    21  C    0.638776
    22  C   -0.357012
    23  H    0.217236
    24  H    0.169330
    25  O   -0.528116
    26  C    0.112178
    27  C   -0.214648
    28  H    0.191279
    29  C   -0.220824
    30  H    0.135788
    31  C   -0.181698
    32  H    0.162369
    33  C   -0.195601
    34  H    0.134639
    35  O   -0.684067
    36  H    0.473147
    37  C    0.369476
    38  N   -0.557791
    39  H    0.381444
    40  C   -0.074192
    41  H    0.230779
    42  C    0.640929
    43  C   -0.318812
    44  H    0.160472
    45  H    0.186491
    46  O   -0.390719
    47  C   -0.300838
    48  H    0.174338
    49  H    0.169121
    50  C   -0.263151
    51  H    0.134927
    52  H    0.167025
    53  C   -0.153360
    54  H    0.159722
    55  H    0.170844
    56  N   -0.774876
    57  H    0.343482
    58  H    0.327926
    59  O   -0.621223
    60  H    0.482425
    61  H    0.455332
    62  H    0.423349
 Sum of Mulliken charges =   1.00000

 Dipole moment (field-independent basis, Debye):
    X=             12.8568    Y=             10.6952    Z=              2.4115  Tot=             16.8967
 Quadrupole moment (field-independent basis, Debye-Ang):
   XX=           -118.0248   YY=           -134.6124   ZZ=           -149.1128
   XY=             29.1696   XZ=             -7.3063   YZ=            -22.3614

 Normal termination of Gaussian 16 at Thu Jun  2 00:17:33 2022.
