 Gaussian 16, Revision C.01,
 Gaussian 16:  ES64L-G16RevC.01  3-Jul-2019

 ----------------------------------------------------------------------
 # B3LYP/6-31G* empiricaldispersion=gd3 guess=read geom=check nosymm in
 tegral(ultrafinegrid)
 ----------------------------------------------------------------------

 ------------------------------------------------------
 Candidate Structure: Conf:553 Charge calc in gas phase
 ------------------------------------------------------
 Structure from the checkpoint file:  "conf-553.chk"
 Charge =  1 Multiplicity = 1

                          Input orientation:
 ---------------------------------------------------------------------
 Center     Atomic      Atomic             Coordinates (Angstroms)
 Number     Number       Type             X           Y           Z
 ---------------------------------------------------------------------
      1          7           0        0.545141   -3.129060    2.786017
      2          1           0        0.270437   -3.794296    3.504520
      3          1           0        0.919648   -3.657144    1.999520
      4          6           0       -0.607409   -2.350068    2.345034
      5          1           0       -0.983130   -1.796463    3.216911
      6          6           0       -0.092047   -1.359718    1.301785
      7          6           0       -1.784548   -3.121202    1.703554
      8          1           0       -1.432404   -3.601252    0.782622
      9          1           0       -2.564219   -2.414120    1.405777
     10          8           0        0.683593   -1.730040    0.409259
     11          6           0       -2.407493   -4.170517    2.620256
     12          1           0       -2.730807   -3.733275    3.574999
     13          1           0       -1.703499   -4.971014    2.875569
     14          6           0       -3.624620   -4.802278    1.969008
     15          8           0       -4.109391   -4.459071    0.911903
     16          8           0       -4.116598   -5.805489    2.723068
     17          7           0       -0.529741   -0.074133    1.394728
     18          1           0       -1.217692    0.132215    2.106529
     19          6           0       -0.387984    0.941156    0.346955
     20          1           0       -0.875370    1.843366    0.722294
     21          6           0        1.048333    1.312568    0.110720
     22          6           0       -1.061926    0.556396   -1.015456
     23          1           0       -0.884080    1.385212   -1.708301
     24          1           0       -0.543246   -0.320643   -1.411486
     25          8           0        1.379986    2.586330   -0.004941
     26          6           0       -2.528466    0.273173   -0.817133
     27          6           0       -3.000171   -1.046414   -0.772712
     28          1           0       -2.309172   -1.868112   -0.940931
     29          6           0       -3.444923    1.312584   -0.614035
     30          1           0       -3.111818    2.348167   -0.656958
     31          6           0       -4.336719   -1.334022   -0.517820
     32          1           0       -4.685360   -2.359414   -0.456044
     33          6           0       -4.789750    1.045292   -0.367409
     34          1           0       -5.490865    1.864116   -0.221226
     35          8           0       -6.533001   -0.615955   -0.063575
     36          1           0       -7.072350    0.185354    0.028289
     37          6           0       -5.239690   -0.282109   -0.312881
     38          7           0        2.039561    0.492633   -0.070021
     39          1           0        1.853834   -0.528797   -0.017682
     40          6           0        3.284424    1.202087   -0.371604
     41          1           0        3.967710    1.109096    0.483721
     42          6           0        2.781085    2.639294   -0.414398
     43          6           0        3.988068    0.721762   -1.653324
     44          1           0        4.120685   -0.363536   -1.560316
     45          1           0        3.322438    0.908290   -2.499952
     46          8           0        3.293636    3.670905   -0.674016
     47          6           0        5.350892    1.395040   -1.860205
     48          1           0        5.981624    1.214903   -0.979805
     49          1           0        5.218438    2.480746   -1.949175
     50          6           0        6.066637    0.848785   -3.101090
     51          1           0        6.203017   -0.234577   -2.990482
     52          1           0        5.443310    1.014222   -3.991479
     53          6           0        7.443254    1.489078   -3.325109
     54          1           0        7.896618    1.024481   -4.207437
     55          1           0        7.312136    2.558883   -3.566304
     56          7           0        8.326146    1.249106   -2.175408
     57          1           0        8.215625    1.987050   -1.483297
     58          1           0        9.299881    1.287820   -2.466766
     59          8           0        1.238735    2.171742   -2.765983
     60          1           0        1.158730    1.745421   -3.633398
     61          1           0        1.260404    3.121889   -2.962159
     62          1           0       -4.898738   -6.159872    2.258257
 ---------------------------------------------------------------------

 SCF Done:  E(RB3LYP) =  -1526.24395756     A.U. after    2 cycles

 Alpha  occ. eigenvalues --  -19.37855 -19.31369 -19.28439 -19.27519 -19.26213
 Alpha  occ. eigenvalues --  -19.25921 -19.22235 -14.54957 -14.50784 -14.41548
 Alpha  occ. eigenvalues --  -14.38420 -10.48594 -10.48417 -10.42479 -10.40473
 Alpha  occ. eigenvalues --  -10.40158 -10.39806 -10.33954 -10.33698 -10.31825
 Alpha  occ. eigenvalues --  -10.31662 -10.29348 -10.28984 -10.28852 -10.28599
 Alpha  occ. eigenvalues --  -10.28481 -10.28314 -10.28275 -10.28146 -10.27004
 Alpha  occ. eigenvalues --  -10.26547  -1.30036  -1.21800  -1.18546  -1.17717
 Alpha  occ. eigenvalues --   -1.14436  -1.14000  -1.12080  -1.09658  -1.07121
 Alpha  occ. eigenvalues --   -0.99405  -0.96280  -0.95266  -0.94754  -0.91549
 Alpha  occ. eigenvalues --   -0.88574  -0.87586  -0.84895  -0.83954  -0.82600
 Alpha  occ. eigenvalues --   -0.80675  -0.79555  -0.77547  -0.76990  -0.73925
 Alpha  occ. eigenvalues --   -0.72633  -0.71979  -0.71283  -0.68849  -0.68390
 Alpha  occ. eigenvalues --   -0.67171  -0.66734  -0.66145  -0.65507  -0.65046
 Alpha  occ. eigenvalues --   -0.63376  -0.62959  -0.61896  -0.60177  -0.59928
 Alpha  occ. eigenvalues --   -0.58901  -0.58594  -0.58199  -0.57197  -0.56797
 Alpha  occ. eigenvalues --   -0.56515  -0.56167  -0.55934  -0.55855  -0.55336
 Alpha  occ. eigenvalues --   -0.54813  -0.54336  -0.53185  -0.53100  -0.52601
 Alpha  occ. eigenvalues --   -0.52514  -0.51675  -0.51403  -0.51087  -0.49780
 Alpha  occ. eigenvalues --   -0.49550  -0.49482  -0.49153  -0.48097  -0.48014
 Alpha  occ. eigenvalues --   -0.47431  -0.46723  -0.46576  -0.46187  -0.45656
 Alpha  occ. eigenvalues --   -0.45015  -0.44451  -0.44168  -0.43524  -0.42897
 Alpha  occ. eigenvalues --   -0.42583  -0.42339  -0.41989  -0.41185  -0.40157
 Alpha  occ. eigenvalues --   -0.39836  -0.39442  -0.35930  -0.34411  -0.33649
 Alpha  occ. eigenvalues --   -0.30918  -0.30765
 Alpha virt. eigenvalues --   -0.19323  -0.14388  -0.11801  -0.09596  -0.08553
 Alpha virt. eigenvalues --   -0.07179  -0.06820  -0.06229  -0.03488  -0.02390
 Alpha virt. eigenvalues --   -0.01529  -0.00903  -0.00253  -0.00025   0.00555

 Mulliken charges:
               1
     1  N   -0.712132
     2  H    0.321173
     3  H    0.321550
     4  C   -0.081675
     5  H    0.148759
     6  C    0.671021
     7  C   -0.281489
     8  H    0.169607
     9  H    0.175005
    10  O   -0.572669
    11  C   -0.367888
    12  H    0.185990
    13  H    0.180942
    14  C    0.592131
    15  O   -0.457015
    16  O   -0.558238
    17  N   -0.602768
    18  H    0.365878
    19  C   -0.082821
    20  H    0.211703
    21  C    0.717442
    22  C   -0.382686
    23  H    0.191686
    24  H    0.184232
    25  O   -0.452824
    26  C    0.167411
    27  C   -0.217529
    28  H    0.150361
    29  C   -0.201117
    30  H    0.132742
    31  C   -0.165242
    32  H    0.196999
    33  C   -0.188282
    34  H    0.141640
    35  O   -0.623364
    36  H    0.417938
    37  C    0.353315
    38  N   -0.604967
    39  H    0.434233
    40  C   -0.043815
    41  H    0.243152
    42  C    0.632449
    43  C   -0.274825
    44  H    0.175918
    45  H    0.173784
    46  O   -0.366725
    47  C   -0.291088
    48  H    0.159617
    49  H    0.164258
    50  C   -0.235640
    51  H    0.151749
    52  H    0.127812
    53  C   -0.155153
    54  H    0.156091
    55  H    0.127689
    56  N   -0.720289
    57  H    0.299801
    58  H    0.314670
    59  O   -0.783782
    60  H    0.420387
    61  H    0.421714
    62  H    0.423172
 Sum of Mulliken charges =   1.00000

 Dipole moment (field-independent basis, Debye):
    X=              2.3302    Y=              2.8537    Z=             -0.6066  Tot=              3.7338
 Quadrupole moment (field-independent basis, Debye-Ang):
   XX=           -105.3044   YY=           -147.1025   ZZ=           -148.7091
   XY=             16.3313   XZ=            -30.1602   YZ=            -23.4829

 Normal termination of Gaussian 16 at Thu Jun  2 00:17:42 2022.
