 Gaussian 16, Revision C.01,
 Gaussian 16:  ES64L-G16RevC.01  3-Jul-2019

 ----------------------------------------------------------------------
 # B3LYP/6-31G* empiricaldispersion=gd3 guess=read geom=check nosymm in
 tegral(ultrafinegrid)
 ----------------------------------------------------------------------

 -----------------------------------------------------
 Candidate Structure: Conf:34 Charge calc in gas phase
 -----------------------------------------------------
 Structure from the checkpoint file:  "conf-34.chk"
 Charge =  1 Multiplicity = 1

                          Input orientation:
 ---------------------------------------------------------------------
 Center     Atomic      Atomic             Coordinates (Angstroms)
 Number     Number       Type             X           Y           Z
 ---------------------------------------------------------------------
      1          7           0       -0.758400   -4.218787    3.442729
      2          1           0       -0.504713   -4.845151    2.678645
      3          1           0        0.093512   -4.092696    3.986284
      4          6           0       -1.193495   -2.950250    2.887095
      5          1           0       -1.228685   -2.220321    3.705458
      6          6           0       -0.247565   -2.376872    1.816304
      7          6           0       -2.623308   -3.099059    2.300584
      8          1           0       -2.707408   -4.104841    1.875360
      9          1           0       -2.793997   -2.393671    1.481012
     10          8           0        0.625132   -3.035408    1.273061
     11          6           0       -3.699543   -2.913076    3.369461
     12          1           0       -3.483185   -3.544087    4.239198
     13          1           0       -4.682733   -3.231472    3.002429
     14          6           0       -3.885440   -1.499315    3.883858
     15          8           0       -4.635676   -1.174589    4.767775
     16          8           0       -3.110896   -0.555729    3.233420
     17          7           0       -0.492161   -1.044406    1.525868
     18          1           0       -1.283893   -0.617006    1.997012
     19          6           0        0.121363   -0.300516    0.450585
     20          1           0       -0.474919    0.606934    0.303603
     21          6           0        1.528596    0.161221    0.784431
     22          6           0        0.158138   -1.058360   -0.930148
     23          1           0        0.613123   -2.033144   -0.754872
     24          1           0       -0.892261   -1.221927   -1.194070
     25          8           0        2.296351   -0.665485    1.416157
     26          6           0        0.892804   -0.300629   -2.009604
     27          6           0        0.310813    0.796562   -2.665652
     28          1           0       -0.720095    1.069682   -2.447670
     29          6           0        2.209406   -0.644792   -2.344977
     30          1           0        2.676565   -1.503814   -1.868258
     31          6           0        1.015658    1.530606   -3.616782
     32          1           0        0.560912    2.368050   -4.135809
     33          6           0        2.930433    0.080675   -3.294295
     34          1           0        3.945085   -0.214775   -3.552142
     35          8           0        2.980546    1.945083   -4.851248
     36          1           0        3.865309    1.587051   -5.028333
     37          6           0        2.335380    1.176246   -3.932785
     38          7           0        1.945526    1.332322    0.346414
     39          1           0        1.255185    1.873289   -0.166337
     40          6           0        3.350680    1.746415    0.072351
     41          1           0        3.858104    0.864404   -0.338950
     42          6           0        4.068386    2.148589    1.367426
     43          6           0        3.348362    2.879501   -0.956672
     44          1           0        2.564665    2.667341   -1.691852
     45          1           0        3.100353    3.820205   -0.452743
     46          8           0        4.491646    3.233311    1.643431
     47          6           0        4.682579    3.005903   -1.700566
     48          1           0        4.907830    2.040773   -2.177929
     49          1           0        5.492741    3.209944   -0.989553
     50          6           0        4.630096    4.107468   -2.765514
     51          1           0        3.732977    3.969369   -3.384643
     52          1           0        4.546597    5.092055   -2.291264
     53          6           0        5.857949    4.106668   -3.679977
     54          1           0        6.765091    4.228520   -3.074495
     55          1           0        5.939647    3.108301   -4.160914
     56          7           0        5.786624    5.225509   -4.615094
     57          1           0        5.034696    5.077906   -5.286510
     58          1           0        6.647106    5.299110   -5.153289
     59          8           0        4.189887    1.057278    2.191072
     60          1           0        3.143741   -0.251079    1.725682
     61          1           0        4.642033    1.318985    3.018155
     62          1           0       -3.351780    0.292255    3.654107
 ---------------------------------------------------------------------

 SCF Done:  E(RB3LYP) =  -1526.24455260     A.U. after    1 cycles

 Alpha  occ. eigenvalues --  -19.37875 -19.36738 -19.30272 -19.29582 -19.29365
 Alpha  occ. eigenvalues --  -19.22850 -19.22765 -14.56945 -14.48123 -14.40270
 Alpha  occ. eigenvalues --  -14.38641 -10.49978 -10.48212 -10.41134 -10.40817
 Alpha  occ. eigenvalues --  -10.39935 -10.39391 -10.37013 -10.32251 -10.32216
 Alpha  occ. eigenvalues --  -10.31943 -10.31573 -10.31415 -10.31400 -10.31091
 Alpha  occ. eigenvalues --  -10.30550 -10.29711 -10.29198 -10.28796 -10.28563
 Alpha  occ. eigenvalues --  -10.27054  -1.28757  -1.26487  -1.19523  -1.18223
 Alpha  occ. eigenvalues --   -1.17501  -1.14759  -1.13821  -1.10568  -1.05269
 Alpha  occ. eigenvalues --   -0.98210  -0.97690  -0.96413  -0.95628  -0.91921
 Alpha  occ. eigenvalues --   -0.88650  -0.88392  -0.86922  -0.86569  -0.82922
 Alpha  occ. eigenvalues --   -0.81856  -0.80396  -0.78154  -0.77679  -0.75432
 Alpha  occ. eigenvalues --   -0.74218  -0.73315  -0.71770  -0.71153  -0.70013
 Alpha  occ. eigenvalues --   -0.68594  -0.68152  -0.67884  -0.66797  -0.66305
 Alpha  occ. eigenvalues --   -0.64638  -0.63974  -0.62725  -0.61764  -0.60186
 Alpha  occ. eigenvalues --   -0.59365  -0.59164  -0.58840  -0.58141  -0.57532
 Alpha  occ. eigenvalues --   -0.57450  -0.57333  -0.56523  -0.56264  -0.55753
 Alpha  occ. eigenvalues --   -0.55103  -0.54863  -0.54140  -0.53697  -0.53460
 Alpha  occ. eigenvalues --   -0.53189  -0.52788  -0.52119  -0.51517  -0.51368
 Alpha  occ. eigenvalues --   -0.51076  -0.50850  -0.49355  -0.49115  -0.48813
 Alpha  occ. eigenvalues --   -0.48627  -0.48264  -0.47932  -0.47614  -0.46308
 Alpha  occ. eigenvalues --   -0.46179  -0.45541  -0.45171  -0.44753  -0.44488
 Alpha  occ. eigenvalues --   -0.43393  -0.43216  -0.42934  -0.42103  -0.40802
 Alpha  occ. eigenvalues --   -0.38124  -0.37513  -0.36618  -0.36097  -0.33796
 Alpha  occ. eigenvalues --   -0.32899  -0.30864
 Alpha virt. eigenvalues --   -0.19302  -0.15780  -0.13048  -0.11594  -0.09230
 Alpha virt. eigenvalues --   -0.08416  -0.07866  -0.07043  -0.05626  -0.04127
 Alpha virt. eigenvalues --   -0.03429  -0.01981  -0.01426  -0.00896  -0.00090

 Mulliken charges:
               1
     1  N   -0.690431
     2  H    0.318675
     3  H    0.311249
     4  C   -0.086716
     5  H    0.158962
     6  C    0.584599
     7  C   -0.261756
     8  H    0.172355
     9  H    0.146275
    10  O   -0.505156
    11  C   -0.369121
    12  H    0.221255
    13  H    0.203073
    14  C    0.585904
    15  O   -0.428907
    16  O   -0.606042
    17  N   -0.631072
    18  H    0.373294
    19  C   -0.050487
    20  H    0.175957
    21  C    0.641124
    22  C   -0.379179
    23  H    0.233773
    24  H    0.190640
    25  O   -0.526272
    26  C    0.140490
    27  C   -0.220945
    28  H    0.149437
    29  C   -0.215126
    30  H    0.160566
    31  C   -0.163637
    32  H    0.175466
    33  C   -0.194319
    34  H    0.151914
    35  O   -0.629688
    36  H    0.424562
    37  C    0.364900
    38  N   -0.557394
    39  H    0.387995
    40  C   -0.074398
    41  H    0.213817
    42  C    0.642928
    43  C   -0.324125
    44  H    0.170086
    45  H    0.192043
    46  O   -0.384549
    47  C   -0.281107
    48  H    0.128776
    49  H    0.167070
    50  C   -0.265528
    51  H    0.148563
    52  H    0.168885
    53  C   -0.129712
    54  H    0.152276
    55  H    0.086626
    56  N   -0.711350
    57  H    0.300556
    58  H    0.310849
    59  O   -0.622502
    60  H    0.482122
    61  H    0.456444
    62  H    0.416013
 Sum of Mulliken charges =   1.00000

 Dipole moment (field-independent basis, Debye):
    X=             10.3071    Y=              3.2300    Z=             -0.8207  Tot=             10.8325
 Quadrupole moment (field-independent basis, Debye-Ang):
   XX=           -123.7992   YY=           -180.7125   ZZ=           -148.9212
   XY=             10.8667   XZ=             -5.9943   YZ=             -5.5436

 Normal termination of Gaussian 16 at Thu Jun  2 00:17:32 2022.
