 Gaussian 16, Revision C.01,
 Gaussian 16:  ES64L-G16RevC.01  3-Jul-2019

 ----------------------------------------------------------------------
 # B3LYP/6-31G* empiricaldispersion=gd3 guess=read geom=check nosymm in
 tegral(ultrafinegrid)
 ----------------------------------------------------------------------

 ------------------------------------------------------
 Candidate Structure: Conf:962 Charge calc in gas phase
 ------------------------------------------------------
 Structure from the checkpoint file:  "conf-962.chk"
 Charge =  1 Multiplicity = 1

                          Input orientation:
 ---------------------------------------------------------------------
 Center     Atomic      Atomic             Coordinates (Angstroms)
 Number     Number       Type             X           Y           Z
 ---------------------------------------------------------------------
      1          7           0       -2.902805   -2.026321    2.469930
      2          1           0       -3.709716   -2.643521    2.458592
      3          1           0       -2.679341   -1.849847    3.448527
      4          6           0       -1.753612   -2.640294    1.785801
      5          1           0       -2.145991   -3.252013    0.961772
      6          6           0       -0.911061   -1.555485    1.105327
      7          6           0       -0.846513   -3.514819    2.667916
      8          1           0       -0.467579   -2.913790    3.504355
      9          1           0        0.031349   -3.813968    2.088822
     10          8           0        0.193011   -1.769700    0.598113
     11          6           0       -1.563870   -4.748344    3.211895
     12          1           0       -1.870957   -5.426354    2.405831
     13          1           0       -2.485706   -4.477917    3.744339
     14          6           0       -0.692898   -5.520990    4.183242
     15          8           0        0.378395   -5.149925    4.608413
     16          8           0       -1.273216   -6.689185    4.534935
     17          7           0       -1.449559   -0.308647    1.095496
     18          1           0       -2.370159   -0.193997    1.509849
     19          6           0       -0.753649    0.737618    0.378667
     20          1           0       -1.129850    1.701205    0.745127
     21          6           0        0.711769    0.714886    0.821942
     22          6           0       -1.018588    0.613684   -1.150581
     23          1           0       -0.793348   -0.420583   -1.425658
     24          1           0       -2.101791    0.742611   -1.262099
     25          8           0        0.886606    0.581659    2.107495
     26          6           0       -0.272406    1.558013   -2.076324
     27          6           0       -0.245000    2.950709   -1.872103
     28          1           0       -0.810598    3.391091   -1.054039
     29          6           0        0.457261    1.040073   -3.157321
     30          1           0        0.450902   -0.030879   -3.344601
     31          6           0        0.504793    3.786998   -2.690526
     32          1           0        0.535642    4.858510   -2.524565
     33          6           0        1.200583    1.869654   -3.997695
     34          1           0        1.754525    1.443814   -4.830884
     35          8           0        1.964975    4.112920   -4.516463
     36          1           0        2.347040    3.647007   -5.277700
     37          6           0        1.235905    3.246931   -3.758924
     38          7           0        1.677251    0.993145   -0.015634
     39          1           0        1.380192    1.140555   -0.982670
     40          6           0        3.143074    1.091785    0.190554
     41          1           0        3.501591    0.136672    0.590566
     42          6           0        3.430169    2.198964    1.216900
     43          6           0        3.750846    1.403946   -1.180626
     44          1           0        3.482584    0.574676   -1.848418
     45          1           0        3.277858    2.317602   -1.556863
     46          8           0        3.668636    3.349606    0.987033
     47          6           0        5.265524    1.624024   -1.184623
     48          1           0        5.779244    0.799209   -0.672255
     49          1           0        5.478543    2.542635   -0.631814
     50          6           0        5.823571    1.755920   -2.615019
     51          1           0        6.861579    2.106068   -2.547101
     52          1           0        5.864382    0.770011   -3.097143
     53          6           0        5.019514    2.702813   -3.522446
     54          1           0        5.568539    2.822484   -4.473110
     55          1           0        4.063849    2.225724   -3.778546
     56          7           0        4.699028    3.959042   -2.841176
     57          1           0        4.065500    4.516863   -3.409572
     58          1           0        5.542138    4.511930   -2.696867
     59          8           0        3.338711    1.684482    2.488882
     60          1           0        1.816409    0.737549    2.404351
     61          1           0        3.498981    2.408013    3.128138
     62          1           0       -0.671827   -7.127877    5.166512
 ---------------------------------------------------------------------

 SCF Done:  E(RB3LYP) =  -1526.26258701     A.U. after    1 cycles

 Alpha  occ. eigenvalues --  -19.35399 -19.34730 -19.28913 -19.28431 -19.26690
 Alpha  occ. eigenvalues --  -19.23328 -19.21245 -14.53867 -14.47745 -14.43314
 Alpha  occ. eigenvalues --  -14.39095 -10.48274 -10.46276 -10.39745 -10.39537
 Alpha  occ. eigenvalues --  -10.38747 -10.38675 -10.36369 -10.33258 -10.31935
 Alpha  occ. eigenvalues --  -10.31216 -10.30882 -10.30829 -10.30313 -10.30087
 Alpha  occ. eigenvalues --  -10.29860 -10.29248 -10.28622 -10.28019 -10.27748
 Alpha  occ. eigenvalues --  -10.26899  -1.26268  -1.24506  -1.17643  -1.16966
 Alpha  occ. eigenvalues --   -1.16320  -1.15331  -1.11397  -1.08781  -1.04993
 Alpha  occ. eigenvalues --   -1.00155  -0.97176  -0.96145  -0.94284  -0.90501
 Alpha  occ. eigenvalues --   -0.88087  -0.87281  -0.86306  -0.85751  -0.81547
 Alpha  occ. eigenvalues --   -0.81110  -0.80754  -0.77321  -0.76101  -0.73790
 Alpha  occ. eigenvalues --   -0.73692  -0.72161  -0.71899  -0.70508  -0.69801
 Alpha  occ. eigenvalues --   -0.66598  -0.66510  -0.65845  -0.65374  -0.65280
 Alpha  occ. eigenvalues --   -0.64388  -0.62386  -0.60709  -0.60563  -0.59192
 Alpha  occ. eigenvalues --   -0.58479  -0.58210  -0.57979  -0.57526  -0.57269
 Alpha  occ. eigenvalues --   -0.56840  -0.56242  -0.55754  -0.55280  -0.55139
 Alpha  occ. eigenvalues --   -0.55001  -0.54586  -0.54034  -0.53463  -0.52852
 Alpha  occ. eigenvalues --   -0.52333  -0.51959  -0.51551  -0.51459  -0.50587
 Alpha  occ. eigenvalues --   -0.50375  -0.49494  -0.49386  -0.48292  -0.47665
 Alpha  occ. eigenvalues --   -0.47208  -0.46994  -0.46573  -0.46395  -0.45825
 Alpha  occ. eigenvalues --   -0.45470  -0.44909  -0.44746  -0.43924  -0.43513
 Alpha  occ. eigenvalues --   -0.43253  -0.42082  -0.41614  -0.40889  -0.39026
 Alpha  occ. eigenvalues --   -0.38480  -0.37780  -0.36766  -0.34909  -0.34845
 Alpha  occ. eigenvalues --   -0.33380  -0.31467
 Alpha virt. eigenvalues --   -0.16186  -0.14063  -0.12134  -0.11072  -0.09055
 Alpha virt. eigenvalues --   -0.06388  -0.06332  -0.04103  -0.03127  -0.02671
 Alpha virt. eigenvalues --   -0.01756  -0.01104  -0.00608   0.00313   0.01125

 Mulliken charges:
               1
     1  N   -0.756609
     2  H    0.334608
     3  H    0.323127
     4  C   -0.083125
     5  H    0.182615
     6  C    0.643970
     7  C   -0.270989
     8  H    0.160085
     9  H    0.191045
    10  O   -0.548321
    11  C   -0.365513
    12  H    0.186308
    13  H    0.168839
    14  C    0.586582
    15  O   -0.454918
    16  O   -0.562214
    17  N   -0.594451
    18  H    0.374341
    19  C   -0.037309
    20  H    0.203920
    21  C    0.665836
    22  C   -0.349643
    23  H    0.195438
    24  H    0.190933
    25  O   -0.559161
    26  C    0.049478
    27  C   -0.178399
    28  H    0.145262
    29  C   -0.200008
    30  H    0.161129
    31  C   -0.144455
    32  H    0.175755
    33  C   -0.179000
    34  H    0.153719
    35  O   -0.633506
    36  H    0.424879
    37  C    0.367373
    38  N   -0.617848
    39  H    0.413713
    40  C   -0.047530
    41  H    0.219268
    42  C    0.596968
    43  C   -0.326323
    44  H    0.158971
    45  H    0.210728
    46  O   -0.385157
    47  C   -0.267368
    48  H    0.140776
    49  H    0.180127
    50  C   -0.275019
    51  H    0.154203
    52  H    0.143885
    53  C   -0.153453
    54  H    0.134513
    55  H    0.120444
    56  N   -0.733129
    57  H    0.319848
    58  H    0.307043
    59  O   -0.602661
    60  H    0.473656
    61  H    0.446259
    62  H    0.420462
 Sum of Mulliken charges =   1.00000

 Dipole moment (field-independent basis, Debye):
    X=              3.6503    Y=              2.9109    Z=              0.0371  Tot=              4.6690
 Quadrupole moment (field-independent basis, Debye-Ang):
   XX=           -131.0119   YY=           -145.3374   ZZ=           -125.6211
   XY=             29.7111   XZ=            -24.3027   YZ=            -20.9065

 Normal termination of Gaussian 16 at Thu Jun  2 00:24:21 2022.
