 Gaussian 16, Revision C.01,
 Gaussian 16:  ES64L-G16RevC.01  3-Jul-2019

 ----------------------------------------------------------------------
 # B3LYP/6-31G* empiricaldispersion=gd3 guess=read geom=check nosymm in
 tegral(ultrafinegrid)
 ----------------------------------------------------------------------

 ------------------------------------------------------
 Candidate Structure: Conf:883 Charge calc in gas phase
 ------------------------------------------------------
 Structure from the checkpoint file:  "conf-883.chk"
 Charge =  1 Multiplicity = 1

                          Input orientation:
 ---------------------------------------------------------------------
 Center     Atomic      Atomic             Coordinates (Angstroms)
 Number     Number       Type             X           Y           Z
 ---------------------------------------------------------------------
      1          7           0       -3.242895   -1.390558    3.241556
      2          1           0       -4.143017   -1.818919    3.443237
      3          1           0       -2.686914   -1.478590    4.092103
      4          6           0       -2.575342   -2.100449    2.136035
      5          1           0       -3.349990   -2.366589    1.403686
      6          6           0       -1.646715   -1.121877    1.405642
      7          6           0       -1.825825   -3.377760    2.567453
      8          1           0       -2.464195   -3.906570    3.284888
      9          1           0       -0.915376   -3.103382    3.112794
     10          8           0       -0.783669   -1.462074    0.587719
     11          6           0       -1.465618   -4.328548    1.423621
     12          1           0       -0.887710   -3.806714    0.654021
     13          1           0       -2.361887   -4.718054    0.925965
     14          6           0       -0.636677   -5.495679    1.916019
     15          8           0       -0.104774   -5.569079    3.002276
     16          8           0       -0.535413   -6.459311    0.972786
     17          7           0       -1.818169    0.187198    1.719503
     18          1           0       -2.530444    0.409406    2.410211
     19          6           0       -1.046520    1.181968    1.001812
     20          1           0       -1.085802    2.114386    1.578002
     21          6           0        0.419171    0.740263    1.050890
     22          6           0       -1.651671    1.393964   -0.412051
     23          1           0       -1.712859    0.407418   -0.879729
     24          1           0       -2.682426    1.722599   -0.233246
     25          8           0        0.797109    0.254985    2.197975
     26          6           0       -0.955505    2.359017   -1.351323
     27          6           0       -0.618257    3.671115   -0.969948
     28          1           0       -0.839259    4.019188    0.036469
     29          6           0       -0.658275    1.957777   -2.662331
     30          1           0       -0.911804    0.951162   -2.986040
     31          6           0       -0.008163    4.547053   -1.858857
     32          1           0        0.269012    5.551377   -1.560008
     33          6           0       -0.058424    2.830735   -3.570192
     34          1           0        0.152852    2.501539   -4.584879
     35          8           0        0.852023    5.036630   -3.999376
     36          1           0        0.937714    4.668822   -4.893642
     37          6           0        0.261159    4.130705   -3.170027
     38          7           0        1.242082    0.967991    0.052850
     39          1           0        0.805229    1.447982   -0.737280
     40          6           0        2.538369    0.337596   -0.301539
     41          1           0        2.346050   -0.739933   -0.398006
     42          6           0        3.695380    0.463912    0.693250
     43          6           0        2.991507    0.916824   -1.659679
     44          1           0        3.856404    0.329799   -1.981506
     45          1           0        2.192605    0.742213   -2.391626
     46          8           0        4.825840    0.173450    0.420328
     47          6           0        3.354980    2.406069   -1.584723
     48          1           0        4.173760    2.536869   -0.864528
     49          1           0        2.517289    3.005355   -1.210564
     50          6           0        3.799864    2.979217   -2.934842
     51          1           0        4.566831    2.333388   -3.383408
     52          1           0        2.946971    2.981455   -3.628644
     53          6           0        4.368128    4.399253   -2.808262
     54          1           0        5.246410    4.365886   -2.150927
     55          1           0        4.732201    4.723942   -3.798578
     56          7           0        3.388045    5.312003   -2.205153
     57          1           0        2.676340    5.545099   -2.895563
     58          1           0        3.844360    6.187626   -1.956625
     59          8           0        3.321238    0.893417    1.939433
     60          1           0        1.781658    0.269540    2.294233
     61          1           0        4.118880    0.905263    2.507093
     62          1           0        0.020585   -7.167141    1.350783
 ---------------------------------------------------------------------

 SCF Done:  E(RB3LYP) =  -1526.26404218     A.U. after    1 cycles

 Alpha  occ. eigenvalues --  -19.35627 -19.35173 -19.29123 -19.28467 -19.26518
 Alpha  occ. eigenvalues --  -19.23922 -19.21011 -14.53987 -14.48008 -14.43295
 Alpha  occ. eigenvalues --  -14.38469 -10.48405 -10.46955 -10.40267 -10.39453
 Alpha  occ. eigenvalues --  -10.39254 -10.38810 -10.36360 -10.33503 -10.31921
 Alpha  occ. eigenvalues --  -10.31299 -10.31218 -10.30932 -10.30807 -10.30358
 Alpha  occ. eigenvalues --  -10.29791 -10.28634 -10.28272 -10.28246 -10.27814
 Alpha  occ. eigenvalues --  -10.27129  -1.26581  -1.25083  -1.17430  -1.17149
 Alpha  occ. eigenvalues --   -1.16756  -1.15752  -1.11369  -1.08529  -1.05271
 Alpha  occ. eigenvalues --   -1.00190  -0.97192  -0.95592  -0.94588  -0.90765
 Alpha  occ. eigenvalues --   -0.88035  -0.87413  -0.86393  -0.85977  -0.81368
 Alpha  occ. eigenvalues --   -0.81011  -0.80732  -0.77292  -0.76335  -0.74137
 Alpha  occ. eigenvalues --   -0.73768  -0.72960  -0.71726  -0.70724  -0.69970
 Alpha  occ. eigenvalues --   -0.67359  -0.67105  -0.66425  -0.65917  -0.64951
 Alpha  occ. eigenvalues --   -0.63919  -0.63001  -0.60699  -0.60527  -0.59901
 Alpha  occ. eigenvalues --   -0.58527  -0.58269  -0.57927  -0.57339  -0.57012
 Alpha  occ. eigenvalues --   -0.56804  -0.56507  -0.55832  -0.55494  -0.55027
 Alpha  occ. eigenvalues --   -0.54947  -0.54565  -0.53913  -0.53508  -0.53154
 Alpha  occ. eigenvalues --   -0.52869  -0.51934  -0.51851  -0.51474  -0.50711
 Alpha  occ. eigenvalues --   -0.50509  -0.50148  -0.48496  -0.48099  -0.48032
 Alpha  occ. eigenvalues --   -0.47645  -0.47157  -0.47013  -0.46128  -0.45702
 Alpha  occ. eigenvalues --   -0.45483  -0.44889  -0.44408  -0.44123  -0.43960
 Alpha  occ. eigenvalues --   -0.43343  -0.42844  -0.41755  -0.41434  -0.38822
 Alpha  occ. eigenvalues --   -0.38207  -0.38082  -0.36737  -0.35429  -0.34488
 Alpha  occ. eigenvalues --   -0.33530  -0.31021
 Alpha virt. eigenvalues --   -0.16887  -0.13621  -0.12065  -0.11203  -0.09542
 Alpha virt. eigenvalues --   -0.06696  -0.05924  -0.04065  -0.03244  -0.02431
 Alpha virt. eigenvalues --   -0.02022  -0.00919  -0.00694  -0.00049   0.00814

 Mulliken charges:
               1
     1  N   -0.758146
     2  H    0.334742
     3  H    0.325159
     4  C   -0.082760
     5  H    0.184133
     6  C    0.644301
     7  C   -0.271989
     8  H    0.162905
     9  H    0.166479
    10  O   -0.553388
    11  C   -0.372829
    12  H    0.213325
    13  H    0.177674
    14  C    0.582189
    15  O   -0.459710
    16  O   -0.564563
    17  N   -0.588659
    18  H    0.377377
    19  C   -0.041440
    20  H    0.206268
    21  C    0.660878
    22  C   -0.348654
    23  H    0.193898
    24  H    0.192844
    25  O   -0.552567
    26  C    0.054501
    27  C   -0.182676
    28  H    0.145224
    29  C   -0.198715
    30  H    0.158445
    31  C   -0.131259
    32  H    0.174970
    33  C   -0.180966
    34  H    0.152733
    35  O   -0.638470
    36  H    0.425563
    37  C    0.369277
    38  N   -0.618735
    39  H    0.407645
    40  C   -0.068314
    41  H    0.241283
    42  C    0.628844
    43  C   -0.323685
    44  H    0.200914
    45  H    0.165327
    46  O   -0.398707
    47  C   -0.276515
    48  H    0.152998
    49  H    0.169779
    50  C   -0.257726
    51  H    0.146434
    52  H    0.120414
    53  C   -0.148038
    54  H    0.147339
    55  H    0.131441
    56  N   -0.752587
    57  H    0.325655
    58  H    0.306733
    59  O   -0.618349
    60  H    0.471273
    61  H    0.452720
    62  H    0.417762
 Sum of Mulliken charges =   1.00000

 Dipole moment (field-independent basis, Debye):
    X=              1.3846    Y=              5.3572    Z=              0.0076  Tot=              5.5333
 Quadrupole moment (field-independent basis, Debye-Ang):
   XX=           -143.2175   YY=           -140.2459   ZZ=           -134.4449
   XY=             21.3052   XZ=            -13.6088   YZ=            -17.6503

 Normal termination of Gaussian 16 at Thu Jun  2 00:17:35 2022.
