 Gaussian 16, Revision C.01,
 Gaussian 16:  ES64L-G16RevC.01  3-Jul-2019

 ----------------------------------------------------------------------
 # B3LYP/6-31G* empiricaldispersion=gd3 guess=read geom=check nosymm in
 tegral(ultrafinegrid)
 ----------------------------------------------------------------------

 ------------------------------------------------------
 Candidate Structure: Conf:549 Charge calc in gas phase
 ------------------------------------------------------
 Structure from the checkpoint file:  "conf-549.chk"
 Charge =  1 Multiplicity = 1

                          Input orientation:
 ---------------------------------------------------------------------
 Center     Atomic      Atomic             Coordinates (Angstroms)
 Number     Number       Type             X           Y           Z
 ---------------------------------------------------------------------
      1          7           0       -0.777042    1.109933    3.075450
      2          1           0       -0.196705    0.286360    3.227124
      3          1           0       -0.181856    1.934530    3.195734
      4          6           0       -1.294462    1.096673    1.723908
      5          1           0       -1.666640    2.104800    1.495726
      6          6           0       -0.240762    0.724518    0.671609
      7          6           0       -2.480739    0.114437    1.559920
      8          1           0       -2.868613    0.181013    0.536487
      9          1           0       -3.276170    0.445231    2.233966
     10          8           0        0.754904    0.052971    0.915280
     11          6           0       -2.110721   -1.350886    1.875624
     12          1           0       -2.107936   -1.528075    2.952223
     13          1           0       -1.110969   -1.584327    1.489225
     14          6           0       -3.071230   -2.331352    1.240148
     15          8           0       -3.779634   -3.121389    1.812254
     16          8           0       -3.040195   -2.224177   -0.124476
     17          7           0       -0.461106    1.191136   -0.622378
     18          1           0       -1.373168    1.585003   -0.820886
     19          6           0        0.197043    0.520101   -1.744872
     20          1           0       -0.146873    1.014675   -2.661593
     21          6           0        1.692475    0.793462   -1.667686
     22          6           0       -0.136174   -1.000101   -1.855485
     23          1           0        0.457040   -1.543807   -1.116892
     24          1           0       -1.182355   -1.096554   -1.541397
     25          8           0        2.459487    0.011823   -2.361804
     26          6           0        0.050516   -1.570616   -3.242119
     27          6           0       -0.771747   -1.150887   -4.299607
     28          1           0       -1.554112   -0.415217   -4.117575
     29          6           0        1.019560   -2.541975   -3.508391
     30          1           0        1.664671   -2.891049   -2.705960
     31          6           0       -0.627844   -1.668507   -5.580639
     32          1           0       -1.267066   -1.349171   -6.397034
     33          6           0        1.173838   -3.078924   -4.785599
     34          1           0        1.928952   -3.839945   -4.970390
     35          8           0        0.442198   -3.112532   -7.101759
     36          1           0        1.124037   -3.800812   -7.152765
     37          6           0        0.350711   -2.640951   -5.829800
     38          7           0        2.115059    1.811460   -0.958794
     39          1           0        1.359672    2.259919   -0.444210
     40          6           0        3.457356    2.379349   -0.709283
     41          1           0        3.899705    2.635830   -1.681187
     42          6           0        4.418415    1.373858   -0.048245
     43          6           0        3.291188    3.643302    0.152530
     44          1           0        4.295800    4.032415    0.345510
     45          1           0        2.770746    4.396920   -0.452141
     46          8           0        4.995313    1.518175    0.990537
     47          6           0        2.557419    3.422051    1.487205
     48          1           0        3.079368    2.655530    2.068361
     49          1           0        1.536637    3.047090    1.334951
     50          6           0        2.460985    4.711147    2.311571
     51          1           0        3.466484    5.114131    2.487935
     52          1           0        1.916442    5.478493    1.740818
     53          6           0        1.778488    4.502737    3.667921
     54          1           0        2.339491    3.756843    4.243827
     55          1           0        1.823881    5.445395    4.235281
     56          7           0        0.403314    3.993258    3.505840
     57          1           0       -0.174404    4.713211    3.070065
     58          1           0       -0.010546    3.837856    4.424938
     59          8           0        4.604930    0.285356   -0.859741
     60          1           0        3.410001    0.076857   -2.090791
     61          1           0        5.218128   -0.339789   -0.423312
     62          1           0       -3.674584   -2.882145   -0.466986
 ---------------------------------------------------------------------

 SCF Done:  E(RB3LYP) =  -1526.25348622     A.U. after    3 cycles

 Alpha  occ. eigenvalues --  -19.37004 -19.36456 -19.29996 -19.27683 -19.26052
 Alpha  occ. eigenvalues --  -19.25366 -19.21733 -14.55728 -14.50280 -14.42170
 Alpha  occ. eigenvalues --  -14.39652 -10.49485 -10.48082 -10.41310 -10.40939
 Alpha  occ. eigenvalues --  -10.39946 -10.39288 -10.33718 -10.33065 -10.32786
 Alpha  occ. eigenvalues --  -10.30864 -10.30686 -10.30071 -10.29173 -10.28892
 Alpha  occ. eigenvalues --  -10.28599 -10.28489 -10.28341 -10.28330 -10.27731
 Alpha  occ. eigenvalues --  -10.27276  -1.28002  -1.26225  -1.18118  -1.17958
 Alpha  occ. eigenvalues --   -1.17419  -1.14256  -1.13186  -1.09325  -1.06344
 Alpha  occ. eigenvalues --   -0.98624  -0.98132  -0.96083  -0.94761  -0.91277
 Alpha  occ. eigenvalues --   -0.88892  -0.88207  -0.85028  -0.83749  -0.82920
 Alpha  occ. eigenvalues --   -0.81903  -0.79754  -0.78017  -0.76860  -0.75450
 Alpha  occ. eigenvalues --   -0.74130  -0.72355  -0.71250  -0.70918  -0.69139
 Alpha  occ. eigenvalues --   -0.68590  -0.68228  -0.67408  -0.65607  -0.64596
 Alpha  occ. eigenvalues --   -0.64064  -0.63167  -0.62008  -0.61317  -0.60095
 Alpha  occ. eigenvalues --   -0.59542  -0.58438  -0.58259  -0.58087  -0.57585
 Alpha  occ. eigenvalues --   -0.56756  -0.56617  -0.56005  -0.55694  -0.55172
 Alpha  occ. eigenvalues --   -0.54999  -0.54748  -0.54260  -0.53532  -0.53359
 Alpha  occ. eigenvalues --   -0.52374  -0.52045  -0.51360  -0.51099  -0.51005
 Alpha  occ. eigenvalues --   -0.50155  -0.49848  -0.49575  -0.48810  -0.48504
 Alpha  occ. eigenvalues --   -0.47969  -0.47506  -0.47197  -0.46432  -0.45939
 Alpha  occ. eigenvalues --   -0.45412  -0.45359  -0.44844  -0.44493  -0.44232
 Alpha  occ. eigenvalues --   -0.44056  -0.42510  -0.42441  -0.41735  -0.40234
 Alpha  occ. eigenvalues --   -0.39714  -0.38426  -0.35113  -0.34726  -0.34150
 Alpha  occ. eigenvalues --   -0.32647  -0.30557
 Alpha virt. eigenvalues --   -0.18055  -0.15263  -0.11695  -0.09290  -0.08024
 Alpha virt. eigenvalues --   -0.07790  -0.06969  -0.06364  -0.04390  -0.03422
 Alpha virt. eigenvalues --   -0.02420  -0.01678  -0.00796  -0.00676  -0.00367

 Mulliken charges:
               1
     1  N   -0.729883
     2  H    0.313971
     3  H    0.353918
     4  C   -0.087365
     5  H    0.145865
     6  C    0.591898
     7  C   -0.273943
     8  H    0.146375
     9  H    0.192772
    10  O   -0.519342
    11  C   -0.356793
    12  H    0.201551
    13  H    0.180570
    14  C    0.561302
    15  O   -0.429427
    16  O   -0.576975
    17  N   -0.651149
    18  H    0.355863
    19  C   -0.045766
    20  H    0.218253
    21  C    0.648783
    22  C   -0.390750
    23  H    0.188251
    24  H    0.203097
    25  O   -0.544227
    26  C    0.171975
    27  C   -0.197534
    28  H    0.122438
    29  C   -0.184403
    30  H    0.127686
    31  C   -0.153352
    32  H    0.161285
    33  C   -0.191977
    34  H    0.137446
    35  O   -0.626733
    36  H    0.417998
    37  C    0.356295
    38  N   -0.563851
    39  H    0.400907
    40  C   -0.076453
    41  H    0.223241
    42  C    0.645854
    43  C   -0.312562
    44  H    0.197303
    45  H    0.168996
    46  O   -0.387947
    47  C   -0.291413
    48  H    0.184761
    49  H    0.147408
    50  C   -0.270391
    51  H    0.161346
    52  H    0.138115
    53  C   -0.144563
    54  H    0.160727
    55  H    0.149860
    56  N   -0.740664
    57  H    0.307669
    58  H    0.330473
    59  O   -0.622416
    60  H    0.478818
    61  H    0.456544
    62  H    0.420269
 Sum of Mulliken charges =   1.00000

 Dipole moment (field-independent basis, Debye):
    X=              9.4420    Y=              8.0534    Z=             -5.6718  Tot=             13.6447
 Quadrupole moment (field-independent basis, Debye-Ang):
   XX=           -135.7039   YY=           -132.5127   ZZ=           -152.8277
   XY=             -1.2056   XZ=             -8.6279   YZ=             27.8417

 Normal termination of Gaussian 16 at Thu Jun  2 00:17:56 2022.
