 Gaussian 16, Revision C.01,
 Gaussian 16:  ES64L-G16RevC.01  3-Jul-2019

 ----------------------------------------------------------------------
 # B3LYP/6-31G* empiricaldispersion=gd3 guess=read geom=check nosymm in
 tegral(ultrafinegrid)
 ----------------------------------------------------------------------

 ------------------------------------------------------
 Candidate Structure: Conf:353 Charge calc in gas phase
 ------------------------------------------------------
 Structure from the checkpoint file:  "conf-353.chk"
 Charge =  1 Multiplicity = 1

                          Input orientation:
 ---------------------------------------------------------------------
 Center     Atomic      Atomic             Coordinates (Angstroms)
 Number     Number       Type             X           Y           Z
 ---------------------------------------------------------------------
      1          7           0        0.394399   -4.188454    2.745679
      2          1           0        0.177971   -4.789001    1.950777
      3          1           0        1.403680   -4.053781    2.718873
      4          6           0       -0.270015   -2.900473    2.605910
      5          1           0       -0.002159   -2.306736    3.492985
      6          6           0        0.280525   -2.075787    1.421389
      7          6           0       -1.799449   -3.069070    2.633972
      8          1           0       -2.276949   -2.092044    2.760658
      9          1           0       -2.021530   -3.642373    3.537145
     10          8           0        1.443075   -2.228264    1.028225
     11          6           0       -2.411738   -3.795982    1.409981
     12          1           0       -2.941513   -4.706274    1.698671
     13          1           0       -1.633752   -4.117626    0.701324
     14          6           0       -3.352246   -2.923646    0.604970
     15          8           0       -3.228752   -1.715143    0.452686
     16          8           0       -4.335131   -3.622696    0.032223
     17          7           0       -0.492712   -1.091573    0.873965
     18          1           0       -1.512083   -1.137018    0.961521
     19          6           0       -0.021936   -0.472379   -0.364277
     20          1           0       -0.509853    0.505537   -0.452524
     21          6           0        1.443519   -0.166173   -0.198343
     22          6           0       -0.339443   -1.296285   -1.637249
     23          1           0        0.272869   -2.203080   -1.632711
     24          1           0       -1.386482   -1.601809   -1.531499
     25          8           0        2.330931   -0.531355   -1.098682
     26          6           0       -0.146500   -0.495693   -2.907023
     27          6           0       -1.034886    0.545053   -3.221905
     28          1           0       -1.897168    0.727721   -2.583285
     29          6           0        0.939757   -0.715861   -3.759874
     30          1           0        1.647176   -1.509500   -3.539305
     31          6           0       -0.842244    1.353173   -4.335907
     32          1           0       -1.533299    2.152245   -4.583213
     33          6           0        1.150813    0.087178   -4.883482
     34          1           0        2.000933   -0.102453   -5.534974
     35          8           0        0.397777    1.952891   -6.246701
     36          1           0        1.143637    1.664842   -6.796782
     37          6           0        0.257476    1.127032   -5.177037
     38          7           0        1.941056    0.616410    0.725445
     39          1           0        1.399451    0.955498    1.509507
     40          6           0        3.385725    0.782012    0.569752
     41          1           0        3.629781    1.842144    0.451119
     42          6           0        3.598530    0.070902   -0.756006
     43          6           0        4.196000    0.125098    1.702471
     44          1           0        3.898090   -0.928019    1.773072
     45          1           0        5.249835    0.151184    1.401723
     46          8           0        4.555683   -0.087179   -1.429599
     47          6           0        4.006515    0.827375    3.051991
     48          1           0        2.941189    0.824881    3.330826
     49          1           0        4.303744    1.881831    2.962949
     50          6           0        4.807051    0.147586    4.168569
     51          1           0        4.500229   -0.900715    4.269757
     52          1           0        5.872017    0.136346    3.894718
     53          6           0        4.639877    0.834344    5.527514
     54          1           0        4.948535    1.893402    5.437354
     55          1           0        3.574666    0.843446    5.795288
     56          7           0        5.350606    0.078193    6.558896
     57          1           0        5.156394    0.469639    7.478466
     58          1           0        6.356972    0.164182    6.422198
     59          8           0        1.770111    2.012340   -1.912039
     60          1           0        1.601257    2.941774   -2.127303
     61          1           0        1.670979    1.549006   -2.760829
     62          1           0       -4.883976   -3.005841   -0.490694
 ---------------------------------------------------------------------

 SCF Done:  E(RB3LYP) =  -1526.24713825     A.U. after    1 cycles

 Alpha  occ. eigenvalues --  -19.36796 -19.31390 -19.30088 -19.27306 -19.26460
 Alpha  occ. eigenvalues --  -19.25886 -19.25636 -14.54683 -14.49006 -14.41658
 Alpha  occ. eigenvalues --  -14.38333 -10.48707 -10.47301 -10.44419 -10.41445
 Alpha  occ. eigenvalues --  -10.39355 -10.38728 -10.35137 -10.34067 -10.31850
 Alpha  occ. eigenvalues --  -10.31712 -10.31452 -10.30452 -10.29924 -10.29693
 Alpha  occ. eigenvalues --  -10.29451 -10.29421 -10.29098 -10.28789 -10.28522
 Alpha  occ. eigenvalues --  -10.27213  -1.29489  -1.22651  -1.20622  -1.17351
 Alpha  occ. eigenvalues --   -1.15546  -1.13546  -1.11780  -1.11559  -1.05913
 Alpha  occ. eigenvalues --   -0.99715  -0.96199  -0.95516  -0.94907  -0.91490
 Alpha  occ. eigenvalues --   -0.90157  -0.88064  -0.85192  -0.84926  -0.82885
 Alpha  occ. eigenvalues --   -0.81013  -0.80112  -0.78107  -0.76497  -0.75637
 Alpha  occ. eigenvalues --   -0.72793  -0.72238  -0.71685  -0.70320  -0.69458
 Alpha  occ. eigenvalues --   -0.67824  -0.67168  -0.66011  -0.64437  -0.63862
 Alpha  occ. eigenvalues --   -0.63580  -0.62537  -0.62126  -0.61223  -0.60488
 Alpha  occ. eigenvalues --   -0.59853  -0.59029  -0.58663  -0.58015  -0.57747
 Alpha  occ. eigenvalues --   -0.57396  -0.56461  -0.56333  -0.55845  -0.55644
 Alpha  occ. eigenvalues --   -0.54754  -0.53878  -0.53754  -0.53417  -0.52972
 Alpha  occ. eigenvalues --   -0.52622  -0.52407  -0.52130  -0.51371  -0.51009
 Alpha  occ. eigenvalues --   -0.50672  -0.50433  -0.50182  -0.49304  -0.48277
 Alpha  occ. eigenvalues --   -0.47403  -0.47282  -0.47179  -0.46384  -0.46088
 Alpha  occ. eigenvalues --   -0.45605  -0.45071  -0.43880  -0.43723  -0.43599
 Alpha  occ. eigenvalues --   -0.43507  -0.43039  -0.42465  -0.41987  -0.41232
 Alpha  occ. eigenvalues --   -0.40620  -0.39292  -0.38742  -0.35486  -0.34363
 Alpha  occ. eigenvalues --   -0.31916  -0.30626
 Alpha virt. eigenvalues --   -0.18117  -0.12972  -0.12062  -0.10929  -0.10527
 Alpha virt. eigenvalues --   -0.09157  -0.06716  -0.04309  -0.03470  -0.01886
 Alpha virt. eigenvalues --   -0.01784  -0.01447  -0.00936  -0.00586  -0.00199

 Mulliken charges:
               1
     1  N   -0.683195
     2  H    0.307515
     3  H    0.325862
     4  C   -0.091199
     5  H    0.185236
     6  C    0.587141
     7  C   -0.298533
     8  H    0.169964
     9  H    0.203012
    10  O   -0.528230
    11  C   -0.373394
    12  H    0.215636
    13  H    0.185597
    14  C    0.594834
    15  O   -0.490405
    16  O   -0.529084
    17  N   -0.641430
    18  H    0.399728
    19  C   -0.062024
    20  H    0.214447
    21  C    0.761768
    22  C   -0.377198
    23  H    0.185634
    24  H    0.180476
    25  O   -0.457700
    26  C    0.151388
    27  C   -0.186642
    28  H    0.140734
    29  C   -0.197168
    30  H    0.156020
    31  C   -0.166929
    32  H    0.166276
    33  C   -0.218639
    34  H    0.150752
    35  O   -0.623319
    36  H    0.421537
    37  C    0.347444
    38  N   -0.569781
    39  H    0.382660
    40  C   -0.064231
    41  H    0.235600
    42  C    0.643718
    43  C   -0.274329
    44  H    0.186849
    45  H    0.194756
    46  O   -0.370378
    47  C   -0.280164
    48  H    0.119913
    49  H    0.153688
    50  C   -0.252583
    51  H    0.160259
    52  H    0.145308
    53  C   -0.133990
    54  H    0.121174
    55  H    0.137538
    56  N   -0.715081
    57  H    0.309706
    58  H    0.302246
    59  O   -0.825009
    60  H    0.412225
    61  H    0.423068
    62  H    0.430926
 Sum of Mulliken charges =   1.00000

 Dipole moment (field-independent basis, Debye):
    X=              3.1780    Y=              0.4553    Z=              0.6001  Tot=              3.2661
 Quadrupole moment (field-independent basis, Debye-Ang):
   XX=           -134.0206   YY=           -157.9599   ZZ=           -130.9829
   XY=             28.1731   XZ=             10.2746   YZ=              4.6905

 Normal termination of Gaussian 16 at Thu Jun  2 00:17:33 2022.
