 Gaussian 16, Revision C.01,
 Gaussian 16:  ES64L-G16RevC.01  3-Jul-2019

 ----------------------------------------------------------------------
 # B3LYP/6-31G* empiricaldispersion=gd3 guess=read geom=check nosymm in
 tegral(ultrafinegrid)
 ----------------------------------------------------------------------

 ------------------------------------------------------
 Candidate Structure: Conf:727 Charge calc in gas phase
 ------------------------------------------------------
 Structure from the checkpoint file:  "conf-727.chk"
 Charge =  1 Multiplicity = 1

                          Input orientation:
 ---------------------------------------------------------------------
 Center     Atomic      Atomic             Coordinates (Angstroms)
 Number     Number       Type             X           Y           Z
 ---------------------------------------------------------------------
      1          7           0       -0.042317   -3.415452    3.503456
      2          1           0        0.561438   -3.735812    2.746936
      3          1           0        0.564946   -2.958581    4.180646
      4          6           0       -1.016331   -2.478621    2.973696
      5          1           0       -1.541562   -2.014438    3.820069
      6          6           0       -0.385172   -1.370712    2.120357
      7          6           0       -2.056953   -3.212346    2.096422
      8          1           0       -1.531262   -3.673540    1.249253
      9          1           0       -2.765254   -2.489769    1.675582
     10          8           0        0.687170   -1.509500    1.528320
     11          6           0       -2.821142   -4.287835    2.883335
     12          1           0       -3.350943   -3.818747    3.722743
     13          1           0       -2.133465   -5.030663    3.287093
     14          6           0       -3.842085   -5.002120    2.022965
     15          8           0       -3.879523   -6.189543    1.806682
     16          8           0       -4.743188   -4.126671    1.496795
     17          7           0       -1.075749   -0.196041    1.994235
     18          1           0       -1.964954   -0.057568    2.453880
     19          6           0       -0.619599    0.771634    1.007803
     20          1           0       -1.112958    1.726741    1.226104
     21          6           0        0.866089    1.023092    1.273818
     22          6           0       -0.997234    0.281401   -0.416720
     23          1           0       -0.597440   -0.731229   -0.516996
     24          1           0       -2.089867    0.187487   -0.403293
     25          8           0        1.185060    1.095163    2.532678
     26          6           0       -0.567582    1.112919   -1.610056
     27          6           0       -0.871264    2.481678   -1.729368
     28          1           0       -1.410850    2.990620   -0.933657
     29          6           0        0.110840    0.495053   -2.672447
     30          1           0        0.350559   -0.563872   -2.612409
     31          6           0       -0.510810    3.205367   -2.861015
     32          1           0       -0.750583    4.259056   -2.956981
     33          6           0        0.468020    1.204842   -3.817366
     34          1           0        0.984638    0.701806   -4.631166
     35          8           0        0.475047    3.317355   -5.003183
     36          1           0        0.838249    2.750674   -5.703387
     37          6           0        0.152638    2.563903   -3.917501
     38          7           0        1.697895    1.287617    0.292740
     39          1           0        1.258055    1.272860   -0.630545
     40          6           0        3.181797    1.253753    0.225136
     41          1           0        3.488327    0.241848    0.525155
     42          6           0        3.958443    2.210329    1.136873
     43          6           0        3.590460    1.518151   -1.239920
     44          1           0        4.670059    1.360268   -1.307459
     45          1           0        3.112265    0.759835   -1.872358
     46          8           0        5.112455    2.486017    0.969779
     47          6           0        3.229414    2.932245   -1.716409
     48          1           0        3.765531    3.664020   -1.097596
     49          1           0        2.156948    3.123454   -1.567919
     50          6           0        3.565971    3.178480   -3.189712
     51          1           0        4.616805    2.941896   -3.394971
     52          1           0        2.967083    2.506027   -3.817290
     53          6           0        3.292122    4.631004   -3.600112
     54          1           0        2.301024    4.933876   -3.214040
     55          1           0        4.028031    5.279159   -3.108473
     56          7           0        3.428141    4.789151   -5.049468
     57          1           0        3.585725    5.767082   -5.282802
     58          1           0        2.545551    4.535843   -5.488999
     59          8           0        3.233140    2.678440    2.201094
     60          1           0        2.051659    1.554121    2.665489
     61          1           0        3.822835    3.233256    2.751639
     62          1           0       -5.369121   -4.660153    0.970966
 ---------------------------------------------------------------------

 SCF Done:  E(RB3LYP) =  -1526.24896923     A.U. after    2 cycles

 Alpha  occ. eigenvalues --  -19.36440 -19.36072 -19.29619 -19.29307 -19.26492
 Alpha  occ. eigenvalues --  -19.25200 -19.20701 -14.54991 -14.50003 -14.41350
 Alpha  occ. eigenvalues --  -14.38433 -10.49402 -10.47770 -10.41196 -10.40361
 Alpha  occ. eigenvalues --  -10.40025 -10.38936 -10.37186 -10.33511 -10.32968
 Alpha  occ. eigenvalues --  -10.32107 -10.32066 -10.31783 -10.31760 -10.31059
 Alpha  occ. eigenvalues --  -10.30723 -10.29458 -10.29321 -10.28783 -10.27641
 Alpha  occ. eigenvalues --  -10.27034  -1.27466  -1.25935  -1.17732  -1.17582
 Alpha  occ. eigenvalues --   -1.17158  -1.17049  -1.12341  -1.08266  -1.06491
 Alpha  occ. eigenvalues --   -0.99350  -0.98062  -0.95886  -0.95304  -0.91838
 Alpha  occ. eigenvalues --   -0.88518  -0.88088  -0.87206  -0.86791  -0.82259
 Alpha  occ. eigenvalues --   -0.81703  -0.81086  -0.77590  -0.77031  -0.74987
 Alpha  occ. eigenvalues --   -0.74146  -0.73527  -0.72006  -0.71517  -0.70881
 Alpha  occ. eigenvalues --   -0.68179  -0.67795  -0.67406  -0.66607  -0.65669
 Alpha  occ. eigenvalues --   -0.64524  -0.64013  -0.61842  -0.61022  -0.60492
 Alpha  occ. eigenvalues --   -0.59388  -0.59105  -0.58506  -0.58056  -0.57846
 Alpha  occ. eigenvalues --   -0.57296  -0.56752  -0.56417  -0.55680  -0.55457
 Alpha  occ. eigenvalues --   -0.55171  -0.54881  -0.54563  -0.54329  -0.53386
 Alpha  occ. eigenvalues --   -0.52653  -0.52430  -0.52169  -0.52023  -0.51393
 Alpha  occ. eigenvalues --   -0.51243  -0.50272  -0.49647  -0.49371  -0.48918
 Alpha  occ. eigenvalues --   -0.48180  -0.47944  -0.46865  -0.46590  -0.45770
 Alpha  occ. eigenvalues --   -0.45529  -0.45377  -0.44968  -0.44575  -0.44250
 Alpha  occ. eigenvalues --   -0.43944  -0.43457  -0.42271  -0.41888  -0.39630
 Alpha  occ. eigenvalues --   -0.38926  -0.38631  -0.37561  -0.34392  -0.34231
 Alpha  occ. eigenvalues --   -0.33673  -0.30858
 Alpha virt. eigenvalues --   -0.17729  -0.14482  -0.13004  -0.12119  -0.10748
 Alpha virt. eigenvalues --   -0.07456  -0.05899  -0.05390  -0.04488  -0.03730
 Alpha virt. eigenvalues --   -0.02867  -0.01658  -0.01590  -0.00946  -0.00096

 Mulliken charges:
               1
     1  N   -0.682142
     2  H    0.320032
     3  H    0.313961
     4  C   -0.091090
     5  H    0.155143
     6  C    0.622822
     7  C   -0.279508
     8  H    0.163911
     9  H    0.155613
    10  O   -0.538346
    11  C   -0.325609
    12  H    0.170826
    13  H    0.211592
    14  C    0.560018
    15  O   -0.437874
    16  O   -0.571961
    17  N   -0.590874
    18  H    0.355510
    19  C   -0.055092
    20  H    0.207129
    21  C    0.668435
    22  C   -0.348885
    23  H    0.196629
    24  H    0.192003
    25  O   -0.550313
    26  C    0.054093
    27  C   -0.178843
    28  H    0.145376
    29  C   -0.196908
    30  H    0.161842
    31  C   -0.154878
    32  H    0.175970
    33  C   -0.182598
    34  H    0.159630
    35  O   -0.633042
    36  H    0.428361
    37  C    0.376436
    38  N   -0.621210
    39  H    0.407791
    40  C   -0.073924
    41  H    0.242819
    42  C    0.632531
    43  C   -0.320158
    44  H    0.207559
    45  H    0.168502
    46  O   -0.393522
    47  C   -0.297808
    48  H    0.160409
    49  H    0.138342
    50  C   -0.240246
    51  H    0.162558
    52  H    0.123206
    53  C   -0.142284
    54  H    0.115113
    55  H    0.148411
    56  N   -0.725187
    57  H    0.309655
    58  H    0.298455
    59  O   -0.621935
    60  H    0.472106
    61  H    0.454510
    62  H    0.416939
 Sum of Mulliken charges =   1.00000

 Dipole moment (field-independent basis, Debye):
    X=              2.9333    Y=              8.6619    Z=              1.3563  Tot=              9.2451
 Quadrupole moment (field-independent basis, Debye-Ang):
   XX=           -155.6501   YY=           -170.8578   ZZ=           -133.5576
   XY=              9.4943   XZ=              5.3052   YZ=              2.9743

 Normal termination of Gaussian 16 at Thu Jun  2 00:17:46 2022.
