 Gaussian 16, Revision C.01,
 Gaussian 16:  ES64L-G16RevC.01  3-Jul-2019

 ----------------------------------------------------------------------
 # B3LYP/6-31G* empiricaldispersion=gd3 guess=read geom=check nosymm in
 tegral(ultrafinegrid)
 ----------------------------------------------------------------------

 ------------------------------------------------------
 Candidate Structure: Conf:472 Charge calc in gas phase
 ------------------------------------------------------
 Structure from the checkpoint file:  "conf-472.chk"
 Charge =  1 Multiplicity = 1

                          Input orientation:
 ---------------------------------------------------------------------
 Center     Atomic      Atomic             Coordinates (Angstroms)
 Number     Number       Type             X           Y           Z
 ---------------------------------------------------------------------
      1          7           0        0.217528   -1.331582    4.050607
      2          1           0        0.800324   -2.157707    3.920437
      3          1           0        0.857710   -0.551480    4.184908
      4          6           0       -0.604164   -1.130547    2.872054
      5          1           0       -1.123610   -0.167417    2.973234
      6          6           0        0.205504   -1.106112    1.564538
      7          6           0       -1.656914   -2.249522    2.738441
      8          1           0       -1.139559   -3.203890    2.577908
      9          1           0       -2.265701   -2.087264    1.844665
     10          8           0        1.344457   -1.568895    1.477391
     11          6           0       -2.578429   -2.374913    3.948213
     12          1           0       -3.122609   -1.440852    4.139265
     13          1           0       -2.013787   -2.582148    4.862478
     14          6           0       -3.594463   -3.476272    3.723618
     15          8           0       -3.679296   -4.153719    2.719161
     16          8           0       -4.411355   -3.619404    4.785377
     17          7           0       -0.375549   -0.523488    0.458732
     18          1           0       -1.379801   -0.381557    0.463874
     19          6           0        0.198655   -0.831016   -0.857559
     20          1           0       -0.190403   -0.079220   -1.555395
     21          6           0        1.695813   -0.592796   -0.744444
     22          6           0       -0.163867   -2.237771   -1.384683
     23          1           0        0.297440   -2.361112   -2.371151
     24          1           0        0.285817   -2.982927   -0.722090
     25          8           0        2.483946   -1.485828   -1.262714
     26          6           0       -1.666219   -2.405829   -1.450439
     27          6           0       -2.342716   -3.209427   -0.521244
     28          1           0       -1.781926   -3.772513    0.219021
     29          6           0       -2.426757   -1.717389   -2.404746
     30          1           0       -1.932367   -1.102628   -3.155200
     31          6           0       -3.729824   -3.312736   -0.520221
     32          1           0       -4.238464   -3.921023    0.219333
     33          6           0       -3.816817   -1.817014   -2.426274
     34          1           0       -4.389947   -1.283228   -3.181302
     35          8           0       -5.826987   -2.746575   -1.431145
     36          1           0       -6.235355   -2.258135   -2.163239
     37          6           0       -4.474801   -2.613351   -1.478155
     38          7           0        2.126559    0.559083   -0.271370
     39          1           0        1.416557    1.131426    0.177810
     40          6           0        3.530836    0.983913   -0.094204
     41          1           0        4.055924    0.768414   -1.029945
     42          6           0        4.142039    0.126150    1.025891
     43          6           0        3.597493    2.478083    0.229476
     44          1           0        3.173137    2.637087    1.228129
     45          1           0        4.660228    2.733099    0.309252
     46          8           0        4.279633    0.439838    2.173365
     47          6           0        2.918311    3.380464   -0.813254
     48          1           0        3.080676    4.419644   -0.502885
     49          1           0        1.827849    3.235618   -0.790536
     50          6           0        3.423290    3.179799   -2.246416
     51          1           0        4.520362    3.263046   -2.264584
     52          1           0        3.180340    2.172985   -2.611727
     53          6           0        2.821492    4.180964   -3.237539
     54          1           0        1.726177    4.119072   -3.185853
     55          1           0        3.091195    5.205783   -2.922689
     56          7           0        3.223023    3.834829   -4.602388
     57          1           0        4.215035    4.031156   -4.731769
     58          1           0        2.732967    4.426191   -5.271066
     59          8           0        4.482879   -1.097911    0.515588
     60          1           0        3.396254   -1.452913   -0.879680
     61          1           0        4.765308   -1.684535    1.245800
     62          1           0       -5.036291   -4.339153    4.574029
 ---------------------------------------------------------------------

 SCF Done:  E(RB3LYP) =  -1526.25501180     A.U. after    1 cycles

 Alpha  occ. eigenvalues --  -19.36861 -19.35470 -19.29205 -19.27182 -19.26658
 Alpha  occ. eigenvalues --  -19.26014 -19.21909 -14.55751 -14.50590 -14.41994
 Alpha  occ. eigenvalues --  -14.39518 -10.49832 -10.47147 -10.42269 -10.40082
 Alpha  occ. eigenvalues --  -10.39990 -10.39284 -10.34125 -10.33730 -10.32404
 Alpha  occ. eigenvalues --  -10.31174 -10.30446 -10.29887 -10.29181 -10.28856
 Alpha  occ. eigenvalues --  -10.28717 -10.28590 -10.28510 -10.28017 -10.28003
 Alpha  occ. eigenvalues --  -10.26819  -1.27734  -1.25322  -1.18365  -1.18212
 Alpha  occ. eigenvalues --   -1.17139  -1.14225  -1.13018  -1.09287  -1.06828
 Alpha  occ. eigenvalues --   -0.99955  -0.96684  -0.95818  -0.94831  -0.91599
 Alpha  occ. eigenvalues --   -0.88656  -0.88439  -0.85187  -0.83757  -0.82440
 Alpha  occ. eigenvalues --   -0.82217  -0.80106  -0.77759  -0.76461  -0.75209
 Alpha  occ. eigenvalues --   -0.74123  -0.72766  -0.71826  -0.71038  -0.69064
 Alpha  occ. eigenvalues --   -0.68022  -0.67073  -0.67000  -0.65938  -0.64740
 Alpha  occ. eigenvalues --   -0.63513  -0.63166  -0.62245  -0.61047  -0.60127
 Alpha  occ. eigenvalues --   -0.59404  -0.58983  -0.58356  -0.57405  -0.57231
 Alpha  occ. eigenvalues --   -0.56942  -0.56379  -0.56179  -0.56035  -0.55723
 Alpha  occ. eigenvalues --   -0.55212  -0.54946  -0.54617  -0.53351  -0.52943
 Alpha  occ. eigenvalues --   -0.52447  -0.52310  -0.52293  -0.51652  -0.50967
 Alpha  occ. eigenvalues --   -0.49722  -0.49558  -0.49059  -0.48875  -0.48116
 Alpha  occ. eigenvalues --   -0.47492  -0.47134  -0.46828  -0.46566  -0.46263
 Alpha  occ. eigenvalues --   -0.45178  -0.44809  -0.44737  -0.44219  -0.44006
 Alpha  occ. eigenvalues --   -0.43365  -0.42424  -0.42176  -0.41933  -0.40869
 Alpha  occ. eigenvalues --   -0.39539  -0.39459  -0.35672  -0.34616  -0.34158
 Alpha  occ. eigenvalues --   -0.31899  -0.30773
 Alpha virt. eigenvalues --   -0.18319  -0.14448  -0.12184  -0.09474  -0.08382
 Alpha virt. eigenvalues --   -0.07609  -0.06820  -0.06281  -0.03543  -0.03269
 Alpha virt. eigenvalues --   -0.01945  -0.01437  -0.00774  -0.00744  -0.00153

 Mulliken charges:
               1
     1  N   -0.681898
     2  H    0.317564
     3  H    0.314975
     4  C   -0.089231
     5  H    0.159648
     6  C    0.597017
     7  C   -0.283825
     8  H    0.166757
     9  H    0.166668
    10  O   -0.527342
    11  C   -0.350895
    12  H    0.182640
    13  H    0.216060
    14  C    0.588864
    15  O   -0.466620
    16  O   -0.557066
    17  N   -0.614119
    18  H    0.364466
    19  C   -0.062706
    20  H    0.208818
    21  C    0.656191
    22  C   -0.353017
    23  H    0.183831
    24  H    0.186172
    25  O   -0.558738
    26  C    0.143415
    27  C   -0.216993
    28  H    0.152532
    29  C   -0.201613
    30  H    0.131030
    31  C   -0.162938
    32  H    0.191258
    33  C   -0.188695
    34  H    0.140447
    35  O   -0.625231
    36  H    0.417388
    37  C    0.355273
    38  N   -0.536511
    39  H    0.384254
    40  C   -0.094740
    41  H    0.216230
    42  C    0.643232
    43  C   -0.310577
    44  H    0.181796
    45  H    0.191668
    46  O   -0.399076
    47  C   -0.278808
    48  H    0.176412
    49  H    0.126315
    50  C   -0.260098
    51  H    0.143998
    52  H    0.137389
    53  C   -0.135304
    54  H    0.138900
    55  H    0.132665
    56  N   -0.720413
    57  H    0.303466
    58  H    0.312450
    59  O   -0.610215
    60  H    0.482339
    61  H    0.453176
    62  H    0.421365
 Sum of Mulliken charges =   1.00000

 Dipole moment (field-independent basis, Debye):
    X=              5.2429    Y=              1.9695    Z=             -1.7034  Tot=              5.8539
 Quadrupole moment (field-independent basis, Debye-Ang):
   XX=           -113.2392   YY=           -152.6901   ZZ=           -159.9990
   XY=             13.1060   XZ=             -4.7423   YZ=            -20.6934

 Normal termination of Gaussian 16 at Thu Jun  2 00:17:33 2022.
