 Gaussian 16, Revision C.01,
 Gaussian 16:  ES64L-G16RevC.01  3-Jul-2019

 ----------------------------------------------------------------------
 # B3LYP/6-31G* empiricaldispersion=gd3 guess=read geom=check nosymm in
 tegral(ultrafinegrid)
 ----------------------------------------------------------------------

 ------------------------------------------------------
 Candidate Structure: Conf:771 Charge calc in gas phase
 ------------------------------------------------------
 Structure from the checkpoint file:  "conf-771.chk"
 Charge =  1 Multiplicity = 1

                          Input orientation:
 ---------------------------------------------------------------------
 Center     Atomic      Atomic             Coordinates (Angstroms)
 Number     Number       Type             X           Y           Z
 ---------------------------------------------------------------------
      1          7           0       -0.129976   -4.257692    3.876446
      2          1           0        0.203513   -4.848620    3.115681
      3          1           0        0.710400   -4.032875    4.405448
      4          6           0       -0.694159   -3.035270    3.320593
      5          1           0       -0.706185   -2.281138    4.119413
      6          6           0        0.199455   -2.443654    2.199310
      7          6           0       -2.175845   -3.267115    2.931280
      8          1           0       -2.661468   -2.328223    2.639842
      9          1           0       -2.666044   -3.604652    3.848081
     10          8           0        1.244038   -2.980129    1.863036
     11          6           0       -2.420823   -4.315912    1.841792
     12          1           0       -3.449760   -4.693016    1.912890
     13          1           0       -1.787506   -5.199813    1.969476
     14          6           0       -2.269617   -3.797584    0.429089
     15          8           0       -2.210964   -2.623566    0.103355
     16          8           0       -2.241026   -4.801372   -0.464310
     17          7           0       -0.223104   -1.231681    1.678366
     18          1           0       -1.218628   -1.067220    1.749927
     19          6           0        0.374712   -0.604410    0.512072
     20          1           0       -0.361085    0.114248    0.136664
     21          6           0        1.608143    0.191858    0.875607
     22          6           0        0.731889   -1.555776   -0.692665
     23          1           0        1.358288   -2.359154   -0.306380
     24          1           0       -0.226719   -1.985729   -0.995207
     25          8           0        2.452088   -0.346037    1.695811
     26          6           0        1.412423   -0.831751   -1.829106
     27          6           0        0.692265   -0.008381   -2.710555
     28          1           0       -0.390316    0.058767   -2.619091
     29          6           0        2.800715   -0.920448   -2.000231
     30          1           0        3.380521   -1.567140   -1.345130
     31          6           0        1.330571    0.707327   -3.721067
     32          1           0        0.772455    1.331889   -4.411025
     33          6           0        3.456266   -0.210510   -3.007298
     34          1           0        4.532456   -0.308088   -3.132783
     35          8           0        3.291836    1.351439   -4.861230
     36          1           0        4.246922    1.182111   -4.899017
     37          6           0        2.721570    0.611357   -3.871106
     38          7           0        1.831325    1.345969    0.279041
     39          1           0        1.106171    1.647506   -0.365041
     40          6           0        3.148460    2.001386    0.047453
     41          1           0        3.863593    1.194465   -0.157630
     42          6           0        3.619583    2.747403    1.302324
     43          6           0        3.040584    2.928973   -1.165290
     44          1           0        2.402413    2.439592   -1.908883
     45          1           0        2.556763    3.863241   -0.859521
     46          8           0        3.792446    3.926619    1.411440
     47          6           0        4.398974    3.216286   -1.814413
     48          1           0        4.861364    2.257393   -2.091398
     49          1           0        5.068156    3.699179   -1.091574
     50          6           0        4.251163    4.095905   -3.061438
     51          1           0        3.465222    3.679761   -3.706589
     52          1           0        3.935462    5.106883   -2.779514
     53          6           0        5.545066    4.194551   -3.873661
     54          1           0        6.346342    4.594403   -3.239264
     55          1           0        5.861367    3.168105   -4.159377
     56          7           0        5.362585    5.107048   -4.998454
     57          1           0        4.721024    4.704343   -5.679802
     58          1           0        6.243981    5.260423   -5.483352
     59          8           0        3.850201    1.852282    2.316885
     60          1           0        3.152621    0.286899    2.001022
     61          1           0        4.140130    2.332549    3.118174
     62          1           0       -2.210089   -4.406111   -1.356149
 ---------------------------------------------------------------------

 SCF Done:  E(RB3LYP) =  -1526.25030471     A.U. after    2 cycles

 Alpha  occ. eigenvalues --  -19.37345 -19.36327 -19.29871 -19.29323 -19.28977
 Alpha  occ. eigenvalues --  -19.24301 -19.22831 -14.56414 -14.47627 -14.39977
 Alpha  occ. eigenvalues --  -14.38464 -10.49446 -10.47805 -10.42218 -10.40384
 Alpha  occ. eigenvalues --  -10.39306 -10.39047 -10.36566 -10.32114 -10.31839
 Alpha  occ. eigenvalues --  -10.31148 -10.31029 -10.30939 -10.30874 -10.30668
 Alpha  occ. eigenvalues --  -10.30112 -10.29426 -10.29395 -10.29007 -10.28714
 Alpha  occ. eigenvalues --  -10.26796  -1.28232  -1.26073  -1.20468  -1.17815
 Alpha  occ. eigenvalues --   -1.17091  -1.14717  -1.13315  -1.11442  -1.04742
 Alpha  occ. eigenvalues --   -0.97933  -0.97234  -0.96038  -0.95404  -0.91380
 Alpha  occ. eigenvalues --   -0.88464  -0.88243  -0.86458  -0.86114  -0.82460
 Alpha  occ. eigenvalues --   -0.81491  -0.80658  -0.77849  -0.77493  -0.75181
 Alpha  occ. eigenvalues --   -0.73961  -0.73526  -0.71474  -0.70640  -0.69817
 Alpha  occ. eigenvalues --   -0.67889  -0.67484  -0.67237  -0.66268  -0.65832
 Alpha  occ. eigenvalues --   -0.64136  -0.63093  -0.61877  -0.61217  -0.60241
 Alpha  occ. eigenvalues --   -0.59823  -0.59028  -0.58937  -0.58342  -0.57697
 Alpha  occ. eigenvalues --   -0.57430  -0.57105  -0.56731  -0.56210  -0.55464
 Alpha  occ. eigenvalues --   -0.55350  -0.54479  -0.53686  -0.53374  -0.53212
 Alpha  occ. eigenvalues --   -0.53049  -0.52295  -0.51891  -0.51107  -0.50837
 Alpha  occ. eigenvalues --   -0.50696  -0.50315  -0.49632  -0.49367  -0.48540
 Alpha  occ. eigenvalues --   -0.48235  -0.47886  -0.47529  -0.46975  -0.46027
 Alpha  occ. eigenvalues --   -0.45818  -0.45068  -0.44872  -0.44337  -0.44204
 Alpha  occ. eigenvalues --   -0.43380  -0.42931  -0.42542  -0.41859  -0.41796
 Alpha  occ. eigenvalues --   -0.38659  -0.37321  -0.37054  -0.35877  -0.33288
 Alpha  occ. eigenvalues --   -0.33011  -0.30683
 Alpha virt. eigenvalues --   -0.18716  -0.15349  -0.12586  -0.11136  -0.09990
 Alpha virt. eigenvalues --   -0.08401  -0.07809  -0.06696  -0.05366  -0.03648
 Alpha virt. eigenvalues --   -0.02988  -0.01943  -0.01356  -0.00709  -0.00250

 Mulliken charges:
               1
     1  N   -0.686906
     2  H    0.314331
     3  H    0.315931
     4  C   -0.096257
     5  H    0.170707
     6  C    0.581910
     7  C   -0.264959
     8  H    0.145034
     9  H    0.187146
    10  O   -0.502311
    11  C   -0.366099
    12  H    0.209408
    13  H    0.200224
    14  C    0.590179
    15  O   -0.500728
    16  O   -0.542877
    17  N   -0.602413
    18  H    0.359221
    19  C   -0.048629
    20  H    0.179471
    21  C    0.646033
    22  C   -0.391574
    23  H    0.224194
    24  H    0.205956
    25  O   -0.529138
    26  C    0.137736
    27  C   -0.222760
    28  H    0.152969
    29  C   -0.215549
    30  H    0.157263
    31  C   -0.164291
    32  H    0.173571
    33  C   -0.194525
    34  H    0.149826
    35  O   -0.631255
    36  H    0.423850
    37  C    0.363644
    38  N   -0.557583
    39  H    0.388502
    40  C   -0.075156
    41  H    0.212823
    42  C    0.643517
    43  C   -0.323688
    44  H    0.170703
    45  H    0.191632
    46  O   -0.385965
    47  C   -0.281073
    48  H    0.128716
    49  H    0.166725
    50  C   -0.265875
    51  H    0.148877
    52  H    0.168911
    53  C   -0.129599
    54  H    0.152214
    55  H    0.085161
    56  N   -0.711248
    57  H    0.300501
    58  H    0.310345
    59  O   -0.622076
    60  H    0.481112
    61  H    0.455699
    62  H    0.418487
 Sum of Mulliken charges =   1.00000

 Dipole moment (field-independent basis, Debye):
    X=              9.0998    Y=              1.2528    Z=             -0.0918  Tot=              9.1861
 Quadrupole moment (field-independent basis, Debye-Ang):
   XX=           -116.2462   YY=           -174.7346   ZZ=           -139.8475
   XY=             24.2295   XZ=            -12.8124   YZ=              0.7252

 Normal termination of Gaussian 16 at Thu Jun  2 00:17:47 2022.
