 Gaussian 16, Revision C.01,
 Gaussian 16:  ES64L-G16RevC.01  3-Jul-2019

 ----------------------------------------------------------------------
 # B3LYP/6-31G* empiricaldispersion=gd3 guess=read geom=check nosymm in
 tegral(ultrafinegrid)
 ----------------------------------------------------------------------

 ------------------------------------------------------
 Candidate Structure: Conf:746 Charge calc in gas phase
 ------------------------------------------------------
 Structure from the checkpoint file:  "conf-746.chk"
 Charge =  1 Multiplicity = 1

                          Input orientation:
 ---------------------------------------------------------------------
 Center     Atomic      Atomic             Coordinates (Angstroms)
 Number     Number       Type             X           Y           Z
 ---------------------------------------------------------------------
      1          7           0        0.587158   -3.618649    3.229751
      2          1           0        1.064080   -3.873624    2.365289
      3          1           0        1.294023   -3.199957    3.830954
      4          6           0       -0.460198   -2.658297    2.927076
      5          1           0       -0.839677   -2.253600    3.875700
      6          6           0        0.024321   -1.492770    2.055249
      7          6           0       -1.624346   -3.343817    2.178163
      8          1           0       -1.249990   -3.739915    1.226165
      9          1           0       -2.391543   -2.606028    1.915364
     10          8           0        1.002557   -1.576749    1.308484
     11          6           0       -2.256119   -4.474494    2.987303
     12          1           0       -2.662534   -4.108897    3.939523
     13          1           0       -1.507292   -5.226931    3.254161
     14          6           0       -3.378396   -5.137973    2.218418
     15          8           0       -3.750086   -4.818983    1.109347
     16          8           0       -3.931230   -6.145649    2.927669
     17          7           0       -0.695245   -0.330310    2.088776
     18          1           0       -1.535974   -0.253222    2.644448
     19          6           0       -0.436051    0.661266    1.053206
     20          1           0       -0.885849    1.607033    1.379681
     21          6           0        1.071972    0.926698    1.064029
     22          6           0       -1.072884    0.197723   -0.286211
     23          1           0       -0.754985   -0.835896   -0.447368
     24          1           0       -2.152721    0.167207   -0.094157
     25          8           0        1.585798    1.011498    2.257798
     26          6           0       -0.769600    1.011937   -1.525899
     27          6           0       -0.277056    0.367203   -2.675295
     28          1           0       -0.151077   -0.713152   -2.666601
     29          6           0       -0.944602    2.405249   -1.576339
     30          1           0       -1.357490    2.932916   -0.718446
     31          6           0        0.066184    1.082081   -3.817372
     32          1           0        0.455365    0.583203   -4.698969
     33          6           0       -0.592179    3.133543   -2.709200
     34          1           0       -0.737393    4.209200   -2.738744
     35          8           0        0.355380    3.143222   -4.931671
     36          1           0        0.764698    4.020429   -4.647970
     37          6           0       -0.058640    2.480841   -3.839324
     38          7           0        1.737920    1.206993   -0.035448
     39          1           0        1.155913    1.172772   -0.878523
     40          6           0        3.192453    1.150189   -0.327249
     41          1           0        3.512961    0.119413   -0.121742
     42          6           0        4.130175    2.042750    0.490960
     43          6           0        3.409237    1.463125   -1.825625
     44          1           0        4.452741    1.221759   -2.046506
     45          1           0        2.785987    0.780809   -2.415983
     46          8           0        5.282681    2.210921    0.206217
     47          6           0        3.116824    2.922480   -2.210988
     48          1           0        3.746839    3.590158   -1.607101
     49          1           0        2.071095    3.161809   -1.979917
     50          6           0        3.394790    3.182346   -3.699391
     51          1           0        4.421495    2.869058   -3.929531
     52          1           0        2.725487    2.572661   -4.315366
     53          6           0        3.258724    4.651758   -4.116727
     54          1           0        3.988605    5.264197   -3.565323
     55          1           0        3.504015    4.736776   -5.179837
     56          7           0        1.877016    5.166536   -3.948638
     57          1           0        1.798096    6.083506   -4.387039
     58          1           0        1.674709    5.312230   -2.960349
     59          8           0        3.553447    2.605206    1.599170
     60          1           0        2.453439    1.484153    2.250923
     61          1           0        4.243062    3.115987    2.070813
     62          1           0       -4.640591   -6.526350    2.375670
 ---------------------------------------------------------------------

 SCF Done:  E(RB3LYP) =  -1526.27044390     A.U. after    1 cycles

 Alpha  occ. eigenvalues --  -19.36431 -19.35560 -19.29276 -19.26115 -19.24867
 Alpha  occ. eigenvalues --  -19.24000 -19.20686 -14.54328 -14.49461 -14.44488
 Alpha  occ. eigenvalues --  -14.41056 -10.48957 -10.47758 -10.40752 -10.40199
 Alpha  occ. eigenvalues --  -10.39293 -10.38925 -10.34664 -10.33059 -10.32271
 Alpha  occ. eigenvalues --  -10.31930 -10.31656 -10.30480 -10.30377 -10.30253
 Alpha  occ. eigenvalues --  -10.29978 -10.29153 -10.28618 -10.28566 -10.28446
 Alpha  occ. eigenvalues --  -10.27565  -1.27163  -1.25744  -1.17559  -1.17077
 Alpha  occ. eigenvalues --   -1.16653  -1.13057  -1.11711  -1.08186  -1.05955
 Alpha  occ. eigenvalues --   -1.00094  -0.98970  -0.96488  -0.95280  -0.91118
 Alpha  occ. eigenvalues --   -0.88629  -0.87655  -0.85983  -0.85329  -0.82567
 Alpha  occ. eigenvalues --   -0.81375  -0.80304  -0.78346  -0.76284  -0.74348
 Alpha  occ. eigenvalues --   -0.73950  -0.72502  -0.72220  -0.71108  -0.69508
 Alpha  occ. eigenvalues --   -0.69051  -0.67345  -0.65994  -0.65490  -0.64292
 Alpha  occ. eigenvalues --   -0.63879  -0.63371  -0.61269  -0.61022  -0.60308
 Alpha  occ. eigenvalues --   -0.59644  -0.59202  -0.58577  -0.58130  -0.57773
 Alpha  occ. eigenvalues --   -0.57133  -0.56426  -0.56274  -0.55932  -0.55387
 Alpha  occ. eigenvalues --   -0.54953  -0.54888  -0.54505  -0.54224  -0.53642
 Alpha  occ. eigenvalues --   -0.52762  -0.52350  -0.51471  -0.51374  -0.51071
 Alpha  occ. eigenvalues --   -0.50148  -0.49569  -0.49389  -0.49011  -0.48040
 Alpha  occ. eigenvalues --   -0.47868  -0.47714  -0.46458  -0.46330  -0.45838
 Alpha  occ. eigenvalues --   -0.45584  -0.45271  -0.44747  -0.44106  -0.43880
 Alpha  occ. eigenvalues --   -0.43633  -0.43298  -0.42294  -0.40696  -0.39080
 Alpha  occ. eigenvalues --   -0.38465  -0.38424  -0.36776  -0.36015  -0.34457
 Alpha  occ. eigenvalues --   -0.33646  -0.31861
 Alpha virt. eigenvalues --   -0.17281  -0.14464  -0.11406  -0.10711  -0.09912
 Alpha virt. eigenvalues --   -0.07457  -0.05643  -0.04891  -0.03760  -0.02858
 Alpha virt. eigenvalues --   -0.02491  -0.01365  -0.00620  -0.00370   0.00268

 Mulliken charges:
               1
     1  N   -0.685011
     2  H    0.318681
     3  H    0.313160
     4  C   -0.094515
     5  H    0.153981
     6  C    0.624256
     7  C   -0.263260
     8  H    0.170433
     9  H    0.147500
    10  O   -0.539181
    11  C   -0.352539
    12  H    0.177308
    13  H    0.217112
    14  C    0.583236
    15  O   -0.464156
    16  O   -0.561238
    17  N   -0.587723
    18  H    0.354102
    19  C   -0.053500
    20  H    0.205339
    21  C    0.662861
    22  C   -0.343595
    23  H    0.194451
    24  H    0.187882
    25  O   -0.550213
    26  C    0.046072
    27  C   -0.195379
    28  H    0.155923
    29  C   -0.179066
    30  H    0.134850
    31  C   -0.161394
    32  H    0.166501
    33  C   -0.195135
    34  H    0.146502
    35  O   -0.672203
    36  H    0.463764
    37  C    0.376435
    38  N   -0.626211
    39  H    0.411516
    40  C   -0.068959
    41  H    0.244683
    42  C    0.623468
    43  C   -0.320884
    44  H    0.203465
    45  H    0.180257
    46  O   -0.398834
    47  C   -0.297831
    48  H    0.151527
    49  H    0.146237
    50  C   -0.274326
    51  H    0.158304
    52  H    0.178115
    53  C   -0.150430
    54  H    0.150007
    55  H    0.178385
    56  N   -0.778156
    57  H    0.341661
    58  H    0.322814
    59  O   -0.617665
    60  H    0.469662
    61  H    0.452416
    62  H    0.418539
 Sum of Mulliken charges =   1.00000

 Dipole moment (field-independent basis, Debye):
    X=              6.7274    Y=              9.2810    Z=              2.9425  Tot=             11.8344
 Quadrupole moment (field-independent basis, Debye-Ang):
   XX=           -146.8570   YY=           -118.8581   ZZ=           -150.9401
   XY=             32.2196   XZ=            -14.8038   YZ=            -18.9105

 Normal termination of Gaussian 16 at Thu Jun  2 00:17:36 2022.
