 Gaussian 16, Revision C.01,
 Gaussian 16:  ES64L-G16RevC.01  3-Jul-2019

 ----------------------------------------------------------------------
 # B3LYP/6-31G* empiricaldispersion=gd3 guess=read geom=check nosymm in
 tegral(ultrafinegrid)
 ----------------------------------------------------------------------

 ------------------------------------------------------
 Candidate Structure: Conf:123 Charge calc in gas phase
 ------------------------------------------------------
 Structure from the checkpoint file:  "conf-123.chk"
 Charge =  1 Multiplicity = 1

                          Input orientation:
 ---------------------------------------------------------------------
 Center     Atomic      Atomic             Coordinates (Angstroms)
 Number     Number       Type             X           Y           Z
 ---------------------------------------------------------------------
      1          7           0        0.278913   -2.797763    3.780238
      2          1           0        0.793394   -3.348732    3.093959
      3          1           0        0.964781   -2.213315    4.253635
      4          6           0       -0.710371   -1.983029    3.099753
      5          1           0       -1.133382   -1.277282    3.828099
      6          6           0       -0.130888   -1.184382    1.925852
      7          6           0       -1.856606   -2.861918    2.547855
      8          1           0       -1.432775   -3.565142    1.818221
      9          1           0       -2.576939   -2.237953    2.006709
     10          8           0        0.863121   -1.547263    1.292252
     11          6           0       -2.576958   -3.636670    3.661664
     12          1           0       -3.005109   -2.927222    4.381988
     13          1           0       -1.879397   -4.282558    4.194555
     14          6           0       -3.702314   -4.494266    3.122273
     15          8           0       -3.809189   -5.689377    3.257529
     16          8           0       -4.612496   -3.743918    2.440952
     17          7           0       -0.769659   -0.034493    1.555764
     18          1           0       -1.602181    0.282388    2.033465
     19          6           0       -0.377083    0.608350    0.311407
     20          1           0       -0.668558    1.663611    0.358499
     21          6           0        1.129670    0.666592    0.274560
     22          6           0       -1.024128   -0.073682   -0.922308
     23          1           0       -0.717203   -1.124566   -0.924214
     24          1           0       -2.104495   -0.061085   -0.737243
     25          8           0        1.760415    1.154010    1.330136
     26          6           0       -0.701908    0.583952   -2.248195
     27          6           0        0.013319   -0.106501   -3.241875
     28          1           0        0.265591   -1.155164   -3.090806
     29          6           0       -1.070285    1.910806   -2.508962
     30          1           0       -1.653968    2.464352   -1.777205
     31          6           0        0.386642    0.511340   -4.433572
     32          1           0        0.929697   -0.027369   -5.202978
     33          6           0       -0.709411    2.543081   -3.699139
     34          1           0       -1.025733    3.566518   -3.890702
     35          8           0        0.427260    2.393553   -5.842071
     36          1           0        0.060862    3.286404   -5.944816
     37          6           0        0.030630    1.846094   -4.667699
     38          7           0        1.919799    0.471236   -0.744471
     39          1           0        1.579615    0.215632   -1.668302
     40          6           0        3.306260    0.827025   -0.441147
     41          1           0        3.917754   -0.084251   -0.407686
     42          6           0        3.149789    1.342324    0.982738
     43          6           0        3.908659    1.844270   -1.427536
     44          1           0        3.770129    1.434296   -2.437676
     45          1           0        3.322188    2.766544   -1.367152
     46          8           0        3.911007    1.816962    1.751870
     47          6           0        5.394829    2.106832   -1.160792
     48          1           0        5.947812    1.157611   -1.210966
     49          1           0        5.540889    2.502695   -0.151443
     50          6           0        5.993405    3.094710   -2.169034
     51          1           0        5.932364    2.684619   -3.186583
     52          1           0        5.399540    4.021548   -2.170803
     53          6           0        7.454504    3.439682   -1.850851
     54          1           0        8.041040    2.512721   -1.817863
     55          1           0        7.866459    4.042858   -2.678059
     56          7           0        7.553787    4.079203   -0.533891
     57          1           0        7.234217    5.045178   -0.594014
     58          1           0        8.525878    4.121938   -0.235424
     59          8           0        1.023315    3.325970   -0.566471
     60          1           0        0.759954    3.418249   -1.496247
     61          1           0        1.066157    4.231083   -0.220798
     62          1           0       -5.305919   -4.361420    2.139713
 ---------------------------------------------------------------------

 SCF Done:  E(RB3LYP) =  -1526.23853492     A.U. after    2 cycles

 Alpha  occ. eigenvalues --  -19.36802 -19.30261 -19.29337 -19.28399 -19.26382
 Alpha  occ. eigenvalues --  -19.25374 -19.20584 -14.54740 -14.50066 -14.41182
 Alpha  occ. eigenvalues --  -14.38588 -10.48790 -10.47424 -10.41269 -10.39677
 Alpha  occ. eigenvalues --  -10.39562 -10.38822 -10.37423 -10.33461 -10.33071
 Alpha  occ. eigenvalues --  -10.32297 -10.32089 -10.31833 -10.31717 -10.31653
 Alpha  occ. eigenvalues --  -10.30910 -10.29208 -10.28465 -10.27828 -10.27528
 Alpha  occ. eigenvalues --  -10.26970  -1.29423  -1.20741  -1.17667  -1.17250
 Alpha  occ. eigenvalues --   -1.17044  -1.14036  -1.11812  -1.08151  -1.06593
 Alpha  occ. eigenvalues --   -0.99256  -0.98315  -0.95666  -0.95205  -0.91793
 Alpha  occ. eigenvalues --   -0.88546  -0.87913  -0.87499  -0.85892  -0.82213
 Alpha  occ. eigenvalues --   -0.81139  -0.80149  -0.77790  -0.76575  -0.74843
 Alpha  occ. eigenvalues --   -0.73768  -0.71838  -0.71661  -0.71287  -0.68100
 Alpha  occ. eigenvalues --   -0.67306  -0.67020  -0.66709  -0.66170  -0.66026
 Alpha  occ. eigenvalues --   -0.64974  -0.62266  -0.61580  -0.60203  -0.60081
 Alpha  occ. eigenvalues --   -0.59270  -0.58720  -0.58260  -0.57417  -0.57133
 Alpha  occ. eigenvalues --   -0.56420  -0.56298  -0.55459  -0.55360  -0.54942
 Alpha  occ. eigenvalues --   -0.54579  -0.54508  -0.54078  -0.53725  -0.52949
 Alpha  occ. eigenvalues --   -0.52687  -0.52424  -0.51976  -0.51634  -0.51350
 Alpha  occ. eigenvalues --   -0.51103  -0.50146  -0.49758  -0.49284  -0.48318
 Alpha  occ. eigenvalues --   -0.47874  -0.46682  -0.45991  -0.45982  -0.45666
 Alpha  occ. eigenvalues --   -0.45287  -0.45076  -0.44534  -0.43829  -0.43735
 Alpha  occ. eigenvalues --   -0.43409  -0.42688  -0.41826  -0.41721  -0.39687
 Alpha  occ. eigenvalues --   -0.38925  -0.38525  -0.38177  -0.34253  -0.34124
 Alpha  occ. eigenvalues --   -0.33533  -0.30862
 Alpha virt. eigenvalues --   -0.18165  -0.13633  -0.13424  -0.12317  -0.10669
 Alpha virt. eigenvalues --   -0.06725  -0.05732  -0.04680  -0.03746  -0.03134
 Alpha virt. eigenvalues --   -0.02659  -0.02404  -0.01120  -0.00681   0.00078

 Mulliken charges:
               1
     1  N   -0.682942
     2  H    0.320947
     3  H    0.317510
     4  C   -0.091123
     5  H    0.156795
     6  C    0.625704
     7  C   -0.279343
     8  H    0.165379
     9  H    0.155096
    10  O   -0.533941
    11  C   -0.326374
    12  H    0.171139
    13  H    0.212233
    14  C    0.560669
    15  O   -0.437720
    16  O   -0.572358
    17  N   -0.599113
    18  H    0.356027
    19  C   -0.057230
    20  H    0.223979
    21  C    0.774617
    22  C   -0.371725
    23  H    0.192923
    24  H    0.189357
    25  O   -0.450073
    26  C    0.146444
    27  C   -0.262890
    28  H    0.165792
    29  C   -0.196748
    30  H    0.150086
    31  C   -0.146162
    32  H    0.179080
    33  C   -0.211821
    34  H    0.153534
    35  O   -0.617133
    36  H    0.424231
    37  C    0.363542
    38  N   -0.627588
    39  H    0.388999
    40  C   -0.043109
    41  H    0.241425
    42  C    0.622687
    43  C   -0.284687
    44  H    0.159939
    45  H    0.171680
    46  O   -0.357294
    47  C   -0.275155
    48  H    0.140211
    49  H    0.206737
    50  C   -0.257410
    51  H    0.137724
    52  H    0.128073
    53  C   -0.145327
    54  H    0.148310
    55  H    0.134386
    56  N   -0.718081
    57  H    0.299071
    58  H    0.313199
    59  O   -0.795691
    60  H    0.407109
    61  H    0.419558
    62  H    0.416848
 Sum of Mulliken charges =   1.00000

 Dipole moment (field-independent basis, Debye):
    X=              4.0921    Y=              9.9626    Z=             -6.2578  Tot=             12.4563
 Quadrupole moment (field-independent basis, Debye-Ang):
   XX=           -124.9595   YY=           -151.0997   ZZ=           -153.8748
   XY=             13.5531   XZ=            -16.3492   YZ=            -16.0356

 Normal termination of Gaussian 16 at Thu Jun  2 00:17:40 2022.
