 Gaussian 16, Revision C.01,
 Gaussian 16:  ES64L-G16RevC.01  3-Jul-2019

 ----------------------------------------------------------------------
 # B3LYP/6-31G** empiricaldispersion=gd3bj guess=read geom=check nosymm
  integral(ultrafinegrid)
 ----------------------------------------------------------------------

 ------------------------------------------------------
 Candidate Structure: Conf:239 Charge calc in gas phase
 ------------------------------------------------------
 Structure from the checkpoint file:  "conf-239.chk"
 Charge =  1 Multiplicity = 1

                          Input orientation:
 ---------------------------------------------------------------------
 Center     Atomic      Atomic             Coordinates (Angstroms)
 Number     Number       Type             X           Y           Z
 ---------------------------------------------------------------------
      1          7           0       -8.470419   -2.907587   -7.889936
      2          1           0       -8.224273   -2.808216   -8.876615
      3          1           0       -9.393689   -2.498225   -7.735477
      4          1           0       -8.444790   -3.942853   -7.620768
      5          6           0       -7.419649   -2.354974   -6.948361
      6          1           0       -6.747314   -1.710872   -7.516613
      7          6           0       -6.708038   -3.651021   -6.481659
      8          6           0       -8.111789   -1.580243   -5.811703
      9          1           0       -8.815973   -2.260296   -5.315063
     10          1           0       -8.700384   -0.775521   -6.273741
     11          8           0       -7.292981   -4.725859   -6.690249
     12          6           0       -7.175688   -0.958958   -4.755357
     13          1           0       -6.642850   -1.768860   -4.248827
     14          6           0       -6.142458   -0.003037   -5.366748
     15          1           0       -6.634283    0.818043   -5.900703
     16          1           0       -5.457467   -0.488711   -6.073807
     17          1           0       -5.530131    0.430709   -4.572746
     18          6           0       -8.006079   -0.233365   -3.689382
     19          1           0       -8.539084    0.623723   -4.115976
     20          1           0       -8.744700   -0.900004   -3.232625
     21          1           0       -7.344105    0.133708   -2.901030
     22          7           0       -5.524417   -3.506030   -5.899105
     23          1           0       -5.204204   -2.574479   -5.649292
     24          6           0       -4.817838   -4.552697   -5.155733
     25          1           0       -5.450661   -5.444158   -5.140307
     26          6           0       -4.639742   -3.960845   -3.751017
     27          6           0       -3.455703   -4.875692   -5.826778
     28          1           0       -2.917710   -3.921760   -5.907869
     29          8           0       -4.580059   -2.729879   -3.631340
     30          6           0       -2.605348   -5.828663   -4.976706
     31          1           0       -3.142441   -6.764723   -4.774564
     32          1           0       -2.297721   -5.378662   -4.030006
     33          1           0       -1.698498   -6.095549   -5.525012
     34          6           0       -3.689792   -5.438895   -7.232192
     35          1           0       -4.221783   -6.395335   -7.186218
     36          1           0       -2.733815   -5.610641   -7.733289
     37          1           0       -4.274610   -4.755201   -7.853747
     38          7           0       -4.548155   -4.811942   -2.718636
     39          1           0       -4.506854   -5.801768   -2.913735
     40          6           0       -4.192290   -4.367122   -1.365013
     41          1           0       -5.058528   -3.850837   -0.932632
     42          6           0       -3.008598   -3.392791   -1.501751
     43          6           0       -3.819464   -5.566813   -0.476163
     44          1           0       -2.941260   -6.034156   -0.940200
     45          8           0       -1.957128   -3.773980   -2.025339
     46          6           0       -3.425548   -5.071502    0.920873
     47          1           0       -4.271129   -4.579963    1.414790
     48          1           0       -2.597094   -4.359654    0.884708
     49          1           0       -3.117412   -5.912157    1.547194
     50          6           0       -4.957720   -6.590549   -0.381806
     51          1           0       -5.855074   -6.136817    0.052749
     52          1           0       -5.238597   -7.020505   -1.349251
     53          1           0       -4.660066   -7.422816    0.261224
     54          7           0       -3.225331   -2.140032   -1.054207
     55          1           0       -4.188439   -1.899626   -0.851708
     56          6           0       -2.459340   -1.014803   -1.609226
     57          1           0       -2.112701   -1.307673   -2.604879
     58          6           0       -1.213107   -0.723504   -0.765563
     59          6           0       -3.382287    0.198931   -1.738659
     60          1           0       -2.897224    0.908063   -2.415394
     61          1           0       -3.521910    0.678893   -0.767982
     62          8           0       -1.103876    0.276902   -0.046971
     63          8           0       -4.678498   -0.194401   -2.204119
     64          1           0       -4.557214   -0.872087   -2.887351
     65          7           0       -0.280977   -1.681945   -0.886261
     66          1           0       -0.415234   -2.393310   -1.597342
     67          6           0        0.963156   -1.762742   -0.144789
     68          1           0        0.775759   -1.397941    0.872013
     69          6           0        2.031463   -0.841558   -0.765092
     70          6           0        1.405937   -3.248954   -0.102846
     71          1           0        2.494904   -3.258171   -0.023503
     72          8           0        3.101519   -1.257720   -1.208316
     73          6           0        0.774573   -3.983665    1.073980
     74          1           0        1.092968   -3.554027    2.028242
     75          1           0       -0.319532   -3.918798    1.025435
     76          1           0        1.062738   -5.037925    1.057511
     77          8           0        1.108156   -3.895247   -1.340302
     78          1           0        0.217102   -4.272322   -1.286843
     79          7           0        1.682085    0.467904   -0.766284
     80          1           0        0.796527    0.728017   -0.335015
     81          6           0        2.494029    1.465308   -1.452886
     82          1           0        2.970304    0.934687   -2.283333
     83          6           0        3.619905    1.973140   -0.527405
     84          6           0        1.643761    2.633056   -1.967661
     85          1           0        2.242682    3.185385   -2.701391
     86          1           0        1.488674    3.335494   -1.144805
     87          8           0        3.615240    3.114482   -0.052701
     88          6           0        0.276550    2.238835   -2.549769
     89          1           0       -0.159965    3.117035   -3.041896
     90          1           0       -0.416651    1.955076   -1.756233
     91          6           0        0.241063    1.096015   -3.555246
     92          7           0        1.283625    1.016970   -4.423026
     93          1           0        2.078502    1.632105   -4.370203
     94          1           0        1.305749    0.250095   -5.077685
     95          8           0       -0.703964    0.309133   -3.613102
     96          7           0        4.580980    1.063761   -0.276109
     97          1           0        4.530112    0.140732   -0.704923
     98          6           0        5.636276    1.305035    0.700351
     99          1           0        5.212390    1.908198    1.511201
    100          6           0        6.776870    2.110434    0.050711
    101          6           0        6.158768   -0.034730    1.248845
    102          1           0        6.972449    0.209083    1.948197
    103          8           0        7.867973    1.593864   -0.233388
    104          6           0        5.083894   -0.826969    1.980178
    105          1           0        4.652523   -0.243034    2.799043
    106          1           0        4.287327   -1.116028    1.289602
    107          1           0        5.522388   -1.739486    2.390470
    108          8           0        6.635796   -0.837052    0.182328
    109          1           0        7.376767   -0.328241   -0.193985
    110          7           0        6.485295    3.401153   -0.189840
    111          1           0        5.540323    3.716112    0.021973
    112          6           0        7.402769    4.292535   -0.903666
    113          1           0        7.955664    3.671655   -1.616455
    114          6           0        8.409801    4.894471    0.101715
    115          6           0        6.620175    5.383762   -1.618623
    116          1           0        7.297071    6.011246   -2.201739
    117          1           0        5.877176    4.942461   -2.288620
    118          1           0        6.121234    6.029875   -0.892699
    119          8           0        8.334307    6.059087    0.485280
    120          7           0        9.355779    4.022538    0.524755
    121          1           0        9.306915    3.040371    0.260389
    122          6           0       10.274239    4.383458    1.588917
    123          1           0       10.586894    5.416713    1.417486
    124          6           0       11.461745    3.428969    1.499320
    125          6           0        9.585282    4.274667    2.968801
    126          1           0        8.663243    4.863043    2.901284
    127          1           0        9.299079    3.225375    3.108215
    128          8           0       11.326747    2.260195    1.152095
    129          6           0       10.403060    4.754306    4.178794
    130          1           0       11.324803    4.163589    4.232548
    131          6           0       10.774117    6.240008    4.073489
    132          1           0        9.875714    6.858500    3.968486
    133          1           0       11.412406    6.460087    3.210275
    134          1           0       11.310868    6.572703    4.967619
    135          6           0        9.611662    4.495001    5.466923
    136          1           0        8.671936    5.059904    5.468542
    137          1           0       10.183632    4.797453    6.350114
    138          1           0        9.364030    3.433547    5.572517
    139          7           0       12.673480    3.942741    1.846278
    140          1           0       12.724508    4.867501    2.246855
    141          6           0       13.837866    3.080952    1.918373
    142          1           0       13.958697    2.573607    0.957737
    143          6           0       13.702910    1.951716    2.939943
    144          6           0       15.089205    3.904970    2.236031
    145          1           0       15.964040    3.253173    2.268174
    146          1           0       15.246111    4.665254    1.466301
    147          1           0       14.991828    4.400385    3.207780
    148          8           0       14.309898    0.909928    2.865855
    149          8           0       12.900867    2.269294    3.982692
    150          1           0       12.903500    1.493647    4.568214
 ---------------------------------------------------------------------

 SCF Done:  E(RB3LYP) =  -3455.96375746     A.U. after    1 cycles

 Alpha  occ. eigenvalues --  -19.28352 -19.24900 -19.22824 -19.22486 -19.21877
 Alpha  occ. eigenvalues --  -19.20182 -19.19012 -19.17925 -19.17909 -19.17095
 Alpha  occ. eigenvalues --  -19.16609 -19.16429 -19.16307 -19.14756 -19.13540
 Alpha  occ. eigenvalues --  -14.60678 -14.50987 -14.48661 -14.45013 -14.42391
 Alpha  occ. eigenvalues --  -14.42321 -14.41502 -14.40492 -14.39781 -14.39658
 Alpha  occ. eigenvalues --  -14.37383 -10.44937 -10.41585 -10.41519 -10.38466
 Alpha  occ. eigenvalues --  -10.36048 -10.35796 -10.35578 -10.34768 -10.34516
 Alpha  occ. eigenvalues --  -10.34057 -10.33961 -10.33759 -10.32887 -10.31657
 Alpha  occ. eigenvalues --  -10.31027 -10.30700 -10.30559 -10.30344 -10.30092
 Alpha  occ. eigenvalues --  -10.29625 -10.29518 -10.29255 -10.29125 -10.28535
 Alpha  occ. eigenvalues --  -10.27574 -10.27390 -10.27321 -10.27279 -10.27181
 Alpha  occ. eigenvalues --  -10.27160 -10.27097 -10.26417 -10.26333 -10.25587
 Alpha  occ. eigenvalues --  -10.25467 -10.25385 -10.24049 -10.22820 -10.21412
 Alpha  occ. eigenvalues --  -10.21275 -10.21107 -10.20888 -10.20311 -10.19949
 Alpha  occ. eigenvalues --   -1.20803  -1.16975  -1.14635  -1.13568  -1.13423
 Alpha  occ. eigenvalues --   -1.10797  -1.09740  -1.09548  -1.09436  -1.08806
 Alpha  occ. eigenvalues --   -1.07903  -1.07899  -1.07695  -1.06955  -1.05303
 Alpha  occ. eigenvalues --   -1.05010  -1.04417  -1.04190  -1.01582  -0.99396
 Alpha  occ. eigenvalues --   -0.98315  -0.97204  -0.96943  -0.96246  -0.96109
 Alpha  occ. eigenvalues --   -0.95611  -0.94269  -0.92560  -0.90664  -0.88878
 Alpha  occ. eigenvalues --   -0.86180  -0.85085  -0.84231  -0.84018  -0.82874
 Alpha  occ. eigenvalues --   -0.82300  -0.81516  -0.81165  -0.80095  -0.79829
 Alpha  occ. eigenvalues --   -0.78953  -0.78765  -0.78413  -0.77856  -0.76750
 Alpha  occ. eigenvalues --   -0.76661  -0.74932  -0.74658  -0.73892  -0.73297
 Alpha  occ. eigenvalues --   -0.72222  -0.71137  -0.70771  -0.70764  -0.69754
 Alpha  occ. eigenvalues --   -0.69272  -0.69233  -0.68961  -0.68282  -0.67502
 Alpha  occ. eigenvalues --   -0.67425  -0.67015  -0.65760  -0.65621  -0.64984
 Alpha  occ. eigenvalues --   -0.64429  -0.64159  -0.63936  -0.63265  -0.63027
 Alpha  occ. eigenvalues --   -0.62547  -0.62102  -0.62049  -0.61799  -0.61240
 Alpha  occ. eigenvalues --   -0.60683  -0.60261  -0.60049  -0.59987  -0.59437
 Alpha  occ. eigenvalues --   -0.58725  -0.58638  -0.57563  -0.57519  -0.57274
 Alpha  occ. eigenvalues --   -0.56741  -0.56365  -0.55936  -0.55814  -0.55430
 Alpha  occ. eigenvalues --   -0.55227  -0.54672  -0.54397  -0.54180  -0.53799
 Alpha  occ. eigenvalues --   -0.53624  -0.53550  -0.52797  -0.52415  -0.52186
 Alpha  occ. eigenvalues --   -0.52109  -0.51900  -0.51750  -0.51267  -0.51222
 Alpha  occ. eigenvalues --   -0.51105  -0.50971  -0.50892  -0.50750  -0.50285
 Alpha  occ. eigenvalues --   -0.50097  -0.49901  -0.49619  -0.49450  -0.49354
 Alpha  occ. eigenvalues --   -0.49225  -0.49203  -0.49015  -0.48830  -0.48618
 Alpha  occ. eigenvalues --   -0.48483  -0.48011  -0.48004  -0.47883  -0.47658
 Alpha  occ. eigenvalues --   -0.47519  -0.47215  -0.46965  -0.46794  -0.46288
 Alpha  occ. eigenvalues --   -0.46194  -0.45601  -0.45572  -0.45515  -0.44976
 Alpha  occ. eigenvalues --   -0.44834  -0.44787  -0.44581  -0.44508  -0.44342
 Alpha  occ. eigenvalues --   -0.44255  -0.44196  -0.44136  -0.43848  -0.43826
 Alpha  occ. eigenvalues --   -0.43668  -0.43567  -0.43548  -0.43468  -0.42908
 Alpha  occ. eigenvalues --   -0.42749  -0.42733  -0.42667  -0.42550  -0.42175
 Alpha  occ. eigenvalues --   -0.42018  -0.41777  -0.41616  -0.41289  -0.41058
 Alpha  occ. eigenvalues --   -0.40926  -0.40885  -0.40727  -0.40605  -0.40523
 Alpha  occ. eigenvalues --   -0.40297  -0.40235  -0.39919  -0.39615  -0.39043
 Alpha  occ. eigenvalues --   -0.38762  -0.38688  -0.38570  -0.38126  -0.37817
 Alpha  occ. eigenvalues --   -0.36422  -0.36168  -0.35859  -0.35522  -0.35191
 Alpha  occ. eigenvalues --   -0.35133  -0.34845  -0.34615  -0.34412  -0.33611
 Alpha  occ. eigenvalues --   -0.33435  -0.33307  -0.32462  -0.32033  -0.31578
 Alpha  occ. eigenvalues --   -0.31574  -0.30936  -0.30056  -0.29941  -0.29590
 Alpha  occ. eigenvalues --   -0.28892  -0.28306  -0.28181  -0.26925  -0.26476
 Alpha virt. eigenvalues --   -0.13721  -0.11710  -0.10782  -0.08273  -0.06985
 Alpha virt. eigenvalues --   -0.05956  -0.05642  -0.04511  -0.03848  -0.03749
 Alpha virt. eigenvalues --   -0.03013  -0.02324  -0.02111  -0.02008  -0.01925

 Mulliken charges:
               1
     1  N   -0.554256
     2  H    0.353209
     3  H    0.348172
     4  H    0.372721
     5  C   -0.100890
     6  H    0.176911
     7  C    0.634267
     8  C   -0.183993
     9  H    0.127491
    10  H    0.126422
    11  O   -0.538133
    12  C   -0.096653
    13  H    0.120308
    14  C   -0.337069
    15  H    0.115808
    16  H    0.078302
    17  H    0.158389
    18  C   -0.327588
    19  H    0.112881
    20  H    0.106320
    21  H    0.156770
    22  N   -0.501566
    23  H    0.308248
    24  C   -0.054482
    25  H    0.148748
    26  C    0.648598
    27  C   -0.049759
    28  H    0.116584
    29  O   -0.568885
    30  C   -0.357530
    31  H    0.097206
    32  H    0.152717
    33  H    0.136049
    34  C   -0.311502
    35  H    0.119921
    36  H    0.132468
    37  H    0.092222
    38  N   -0.527755
    39  H    0.282562
    40  C    0.051417
    41  H    0.115622
    42  C    0.616357
    43  C   -0.106346
    44  H    0.123061
    45  O   -0.559513
    46  C   -0.334078
    47  H    0.115125
    48  H    0.131876
    49  H    0.128893
    50  C   -0.323137
    51  H    0.119702
    52  H    0.090006
    53  H    0.135481
    54  N   -0.501231
    55  H    0.277903
    56  C   -0.081658
    57  H    0.165058
    58  C    0.654984
    59  C    0.043167
    60  H    0.134384
    61  H    0.137092
    62  O   -0.565266
    63  O   -0.586306
    64  H    0.339117
    65  N   -0.525284
    66  H    0.296458
    67  C   -0.034352
    68  H    0.140938
    69  C    0.626055
    70  C    0.162898
    71  H    0.146667
    72  O   -0.532701
    73  C   -0.358570
    74  H    0.121836
    75  H    0.101666
    76  H    0.126836
    77  O   -0.550327
    78  H    0.314130
    79  N   -0.537680
    80  H    0.300372
    81  C   -0.012264
    82  H    0.127401
    83  C    0.619959
    84  C   -0.225868
    85  H    0.106316
    86  H    0.154781
    87  O   -0.554059
    88  C   -0.291456
    89  H    0.134764
    90  H    0.149645
    91  C    0.586196
    92  N   -0.591018
    93  H    0.278881
    94  H    0.283308
    95  O   -0.544727
    96  N   -0.525184
    97  H    0.311135
    98  C   -0.028083
    99  H    0.131314
   100  C    0.624855
   101  C    0.150226
   102  H    0.099241
   103  O   -0.563314
   104  C   -0.322228
   105  H    0.097317
   106  H    0.109978
   107  H    0.122993
   108  O   -0.557960
   109  H    0.331601
   110  N   -0.523531
   111  H    0.300305
   112  C   -0.024503
   113  H    0.132876
   114  C    0.615065
   115  C   -0.321091
   116  H    0.126344
   117  H    0.094487
   118  H    0.137257
   119  O   -0.537783
   120  N   -0.548716
   121  H    0.307146
   122  C   -0.012148
   123  H    0.125002
   124  C    0.611893
   125  C   -0.152796
   126  H    0.117146
   127  H    0.098655
   128  O   -0.529915
   129  C   -0.087164
   130  H    0.110717
   131  C   -0.312514
   132  H    0.118797
   133  H    0.079661
   134  H    0.102533
   135  C   -0.309225
   136  H    0.102136
   137  H    0.098812
   138  H    0.097437
   139  N   -0.535310
   140  H    0.269696
   141  C    0.022830
   142  H    0.160749
   143  C    0.603475
   144  C   -0.356709
   145  H    0.147117
   146  H    0.128988
   147  H    0.121007
   148  O   -0.464181
   149  O   -0.479024
   150  H    0.326848
 Sum of Mulliken charges =   1.00000

 Dipole moment (field-independent basis, Debye):
    X=            -34.5496    Y=            -13.4196    Z=            -28.3492  Tot=             46.6631
 Quadrupole moment (field-independent basis, Debye-Ang):
   XX=           -148.5000   YY=           -351.2834   ZZ=           -159.7776
   XY=            145.5125   XZ=            250.5758   YZ=             71.2398

 Normal termination of Gaussian 16 at Thu Sep  8 14:44:06 2022.
