 Gaussian 16, Revision C.01,
 Gaussian 16:  ES64L-G16RevC.01  3-Jul-2019

 ----------------------------------------------------------------------
 # B3LYP/6-31G** empiricaldispersion=gd3bj guess=read geom=check nosymm
  integral(ultrafinegrid)
 ----------------------------------------------------------------------

 ------------------------------------------------------
 Candidate Structure: Conf:705 Charge calc in gas phase
 ------------------------------------------------------
 Structure from the checkpoint file:  "conf-705.chk"
 Charge =  1 Multiplicity = 1

                          Input orientation:
 ---------------------------------------------------------------------
 Center     Atomic      Atomic             Coordinates (Angstroms)
 Number     Number       Type             X           Y           Z
 ---------------------------------------------------------------------
      1          7           0       -6.829133   -8.531239   -5.179369
      2          1           0       -7.113369   -8.974832   -6.053528
      3          1           0       -7.297999   -9.004280   -4.404880
      4          1           0       -5.754469   -8.558353   -5.078457
      5          6           0       -7.044100   -7.035359   -5.162871
      6          1           0       -7.592860   -6.754862   -6.063137
      7          6           0       -5.590105   -6.503072   -5.207702
      8          6           0       -7.779585   -6.592397   -3.893886
      9          1           0       -7.802734   -5.496798   -3.895015
     10          1           0       -7.171837   -6.878558   -3.025327
     11          8           0       -4.677640   -7.340164   -5.091034
     12          6           0       -9.216372   -7.125935   -3.739409
     13          1           0       -9.185845   -8.228337   -3.706887
     14          6           0       -9.788794   -6.650026   -2.398113
     15          1           0       -9.862578   -5.557495   -2.376505
     16          1           0       -9.160939   -6.962704   -1.558186
     17          1           0      -10.791024   -7.055927   -2.240077
     18          6           0      -10.119129   -6.708098   -4.906041
     19          1           0      -10.156130   -5.616866   -4.995940
     20          1           0       -9.789168   -7.114130   -5.868864
     21          1           0      -11.140553   -7.061391   -4.744564
     22          7           0       -5.446557   -5.196125   -5.343144
     23          1           0       -6.248911   -4.565517   -5.299313
     24          6           0       -4.194873   -4.460991   -5.152867
     25          1           0       -3.503551   -5.099457   -4.594556
     26          6           0       -4.636464   -3.241551   -4.317805
     27          6           0       -3.549336   -4.051557   -6.503907
     28          1           0       -4.242384   -3.349119   -6.985788
     29          8           0       -5.805074   -2.848612   -4.402066
     30          6           0       -2.203103   -3.347618   -6.287271
     31          1           0       -1.500291   -4.003374   -5.759154
     32          1           0       -2.290764   -2.417670   -5.722565
     33          1           0       -1.754146   -3.103906   -7.253469
     34          6           0       -3.375045   -5.273432   -7.413360
     35          1           0       -2.734366   -6.025970   -6.942712
     36          1           0       -2.909720   -4.973434   -8.355943
     37          1           0       -4.332311   -5.743660   -7.652649
     38          7           0       -3.705050   -2.687770   -3.529339
     39          1           0       -2.739284   -2.990862   -3.578368
     40          6           0       -3.912661   -1.449559   -2.789339
     41          1           0       -4.797705   -0.959432   -3.205519
     42          6           0       -2.656468   -0.608456   -3.022780
     43          6           0       -4.141284   -1.718638   -1.271009
     44          1           0       -3.231892   -2.192387   -0.883935
     45          8           0       -1.563401   -1.170326   -3.224481
     46          6           0       -4.367410   -0.420204   -0.485201
     47          1           0       -5.199230    0.161972   -0.901524
     48          1           0       -3.482850    0.218384   -0.452977
     49          1           0       -4.627698   -0.659359    0.549270
     50          6           0       -5.324621   -2.674706   -1.081660
     51          1           0       -6.247732   -2.245857   -1.485266
     52          1           0       -5.152106   -3.633378   -1.577306
     53          1           0       -5.475324   -2.871855   -0.016623
     54          7           0       -2.808298    0.720671   -2.962227
     55          1           0       -3.704578    1.120118   -2.699243
     56          6           0       -1.700493    1.674089   -2.833009
     57          1           0       -0.932636    1.460856   -3.578523
     58          6           0       -1.126199    1.503781   -1.419071
     59          6           0       -2.284200    3.076944   -3.021118
     60          1           0       -2.611353    3.201280   -4.056661
     61          1           0       -1.499665    3.808090   -2.808446
     62          8           0       -1.498947    2.210814   -0.466080
     63          8           0       -3.431491    3.239915   -2.199267
     64          1           0       -3.090985    3.193270   -1.288368
     65          7           0       -0.302391    0.455237   -1.268139
     66          1           0       -0.044938   -0.060430   -2.099087
     67          6           0        0.110069   -0.038692    0.041194
     68          1           0       -0.683310    0.236195    0.742929
     69          6           0        1.398452    0.707492    0.414947
     70          6           0        0.262009   -1.571992    0.028355
     71          1           0        1.175863   -1.818192   -0.529796
     72          8           0        2.522882    0.200038    0.300767
     73          6           0        0.355621   -2.118670    1.444704
     74          1           0        1.168188   -1.665457    2.015013
     75          1           0       -0.588267   -1.931982    1.967153
     76          1           0        0.516607   -3.198326    1.411525
     77          8           0       -0.876368   -2.181922   -0.575715
     78          1           0       -0.902190   -1.969635   -1.522363
     79          7           0        1.187432    1.987014    0.785360
     80          1           0        0.227042    2.318524    0.769241
     81          6           0        2.276522    2.957881    0.910212
     82          1           0        3.025889    2.689034    0.157889
     83          6           0        2.908166    2.802496    2.307754
     84          6           0        1.783349    4.383360    0.669788
     85          1           0        2.665137    5.033059    0.662831
     86          1           0        1.192743    4.704009    1.532429
     87          8           0        2.627072    3.547992    3.247492
     88          6           0        0.955660    4.560582   -0.618275
     89          1           0        0.830442    5.632971   -0.809754
     90          1           0       -0.043037    4.137804   -0.503786
     91          6           0        1.549486    3.910594   -1.862407
     92          7           0        2.832952    4.253278   -2.155107
     93          1           0        3.321711    4.978233   -1.654640
     94          1           0        3.243605    3.889742   -3.002183
     95          8           0        0.921011    3.114754   -2.558819
     96          7           0        3.745327    1.746467    2.392518
     97          1           0        3.782091    1.154871    1.568737
     98          6           0        4.129706    1.154459    3.674300
     99          1           0        3.297844    1.313522    4.370932
    100          6           0        5.371615    1.875981    4.226823
    101          6           0        4.355316   -0.361945    3.506969
    102          1           0        5.259102   -0.505315    2.899748
    103          8           0        6.483781    1.338250    4.269918
    104          6           0        4.540595   -1.045772    4.853230
    105          1           0        5.418287   -0.653721    5.368051
    106          1           0        3.654056   -0.895877    5.478096
    107          1           0        4.669840   -2.119308    4.699827
    108          8           0        3.224388   -0.964674    2.879978
    109          1           0        3.232774   -0.784679    1.927952
    110          7           0        5.131884    3.133040    4.652092
    111          1           0        4.195284    3.508395    4.514176
    112          6           0        6.194512    4.018960    5.133312
    113          1           0        7.095917    3.776136    4.558897
    114          6           0        6.490040    3.718103    6.619235
    115          6           0        5.798289    5.473453    4.928441
    116          1           0        6.606118    6.131840    5.252281
    117          1           0        5.583883    5.662542    3.873224
    118          1           0        4.918264    5.718725    5.527824
    119          8           0        6.239960    4.530363    7.513986
    120          7           0        7.018316    2.495382    6.838093
    121          1           0        7.173388    1.893608    6.031906
    122          6           0        7.157245    1.936255    8.182386
    123          1           0        6.356612    2.378802    8.783310
    124          6           0        8.488228    2.378201    8.819541
    125          6           0        6.996006    0.418869    8.133653
    126          1           0        6.035593    0.212863    7.641353
    127          1           0        7.784861   -0.001191    7.498555
    128          8           0        9.411440    1.608991    9.063825
    129          6           0        7.026160   -0.292014    9.499691
    130          1           0        8.053019   -0.230539    9.871512
    131          6           0        6.107053    0.372554   10.532819
    132          1           0        5.081193    0.465204   10.153066
    133          1           0        6.462851    1.367383   10.816878
    134          1           0        6.066287   -0.226658   11.448106
    135          6           0        6.664172   -1.769174    9.308460
    136          1           0        5.630128   -1.877956    8.957404
    137          1           0        6.755650   -2.321646   10.249029
    138          1           0        7.318618   -2.248751    8.572398
    139          7           0        8.539761    3.710390    9.092510
    140          1           0        7.705050    4.262768    8.914935
    141          6           0        9.592003    4.234675    9.926203
    142          1           0       10.544501    3.811047    9.594438
    143          6           0        9.392366    3.772277   11.373515
    144          6           0        9.642733    5.763890    9.848397
    145          1           0       10.448653    6.150334   10.474575
    146          1           0        9.813110    6.076306    8.815301
    147          1           0        8.698711    6.200763   10.190286
    148          8           0        8.393957    3.261227   11.825099
    149          8           0       10.491024    4.033333   12.118781
    150          1           0       10.291213    3.723508   13.018113
 ---------------------------------------------------------------------

 SCF Done:  E(RB3LYP) =  -3455.97875915     A.U. after    1 cycles

 Alpha  occ. eigenvalues --  -19.27827 -19.22699 -19.22400 -19.21715 -19.21349
 Alpha  occ. eigenvalues --  -19.21142 -19.20831 -19.20367 -19.18997 -19.18538
 Alpha  occ. eigenvalues --  -19.18473 -19.16552 -19.15998 -19.14965 -19.12998
 Alpha  occ. eigenvalues --  -14.59806 -14.50073 -14.46549 -14.45987 -14.44628
 Alpha  occ. eigenvalues --  -14.43840 -14.43183 -14.41787 -14.40161 -14.38349
 Alpha  occ. eigenvalues --  -14.36629 -10.44213 -10.40977 -10.39731 -10.39011
 Alpha  occ. eigenvalues --  -10.37661 -10.36938 -10.36475 -10.35057 -10.34929
 Alpha  occ. eigenvalues --  -10.33925 -10.33728 -10.33355 -10.32681 -10.32657
 Alpha  occ. eigenvalues --  -10.31611 -10.31558 -10.30665 -10.30641 -10.30588
 Alpha  occ. eigenvalues --  -10.30430 -10.30001 -10.29760 -10.29524 -10.28609
 Alpha  occ. eigenvalues --  -10.28420 -10.27956 -10.27676 -10.27198 -10.26946
 Alpha  occ. eigenvalues --  -10.26785 -10.26766 -10.26498 -10.25807 -10.25307
 Alpha  occ. eigenvalues --  -10.25194 -10.24888 -10.22800 -10.21815 -10.21299
 Alpha  occ. eigenvalues --  -10.20952 -10.20271 -10.19744 -10.18695 -10.18215
 Alpha  occ. eigenvalues --   -1.20238  -1.14978  -1.14063  -1.13764  -1.12753
 Alpha  occ. eigenvalues --   -1.12575  -1.11787  -1.10544  -1.10056  -1.08856
 Alpha  occ. eigenvalues --   -1.08308  -1.08268  -1.07028  -1.06535  -1.06066
 Alpha  occ. eigenvalues --   -1.04847  -1.03466  -1.03248  -1.02405  -1.01267
 Alpha  occ. eigenvalues --   -1.00338  -0.98423  -0.97831  -0.96808  -0.95741
 Alpha  occ. eigenvalues --   -0.95115  -0.93842  -0.92035  -0.89471  -0.88935
 Alpha  occ. eigenvalues --   -0.87626  -0.85829  -0.83847  -0.83593  -0.83348
 Alpha  occ. eigenvalues --   -0.82649  -0.80989  -0.80755  -0.80069  -0.79980
 Alpha  occ. eigenvalues --   -0.79900  -0.79102  -0.77869  -0.77372  -0.76265
 Alpha  occ. eigenvalues --   -0.76107  -0.74967  -0.74260  -0.73354  -0.72273
 Alpha  occ. eigenvalues --   -0.71813  -0.70809  -0.69949  -0.69741  -0.69565
 Alpha  occ. eigenvalues --   -0.69369  -0.69211  -0.68716  -0.68302  -0.68203
 Alpha  occ. eigenvalues --   -0.67208  -0.66981  -0.66558  -0.65796  -0.65716
 Alpha  occ. eigenvalues --   -0.65369  -0.64818  -0.63742  -0.63441  -0.62845
 Alpha  occ. eigenvalues --   -0.62636  -0.62108  -0.61379  -0.61021  -0.60844
 Alpha  occ. eigenvalues --   -0.60387  -0.59711  -0.59416  -0.59370  -0.59195
 Alpha  occ. eigenvalues --   -0.58777  -0.58272  -0.58090  -0.57593  -0.57325
 Alpha  occ. eigenvalues --   -0.56986  -0.56804  -0.56561  -0.56359  -0.56001
 Alpha  occ. eigenvalues --   -0.55690  -0.55526  -0.54914  -0.54307  -0.54118
 Alpha  occ. eigenvalues --   -0.53892  -0.53776  -0.53350  -0.53125  -0.52862
 Alpha  occ. eigenvalues --   -0.52563  -0.52353  -0.51963  -0.51924  -0.51616
 Alpha  occ. eigenvalues --   -0.51412  -0.50804  -0.50682  -0.50451  -0.50333
 Alpha  occ. eigenvalues --   -0.50205  -0.50092  -0.49965  -0.49489  -0.49211
 Alpha  occ. eigenvalues --   -0.49126  -0.48996  -0.48962  -0.48593  -0.48519
 Alpha  occ. eigenvalues --   -0.48494  -0.47732  -0.47571  -0.47523  -0.47464
 Alpha  occ. eigenvalues --   -0.47120  -0.47067  -0.46846  -0.46441  -0.46246
 Alpha  occ. eigenvalues --   -0.46162  -0.46005  -0.45840  -0.45662  -0.45569
 Alpha  occ. eigenvalues --   -0.45497  -0.45405  -0.45193  -0.44960  -0.44658
 Alpha  occ. eigenvalues --   -0.44425  -0.43994  -0.43696  -0.43661  -0.43408
 Alpha  occ. eigenvalues --   -0.43348  -0.43199  -0.43047  -0.42942  -0.42875
 Alpha  occ. eigenvalues --   -0.42595  -0.42528  -0.42358  -0.42206  -0.42162
 Alpha  occ. eigenvalues --   -0.41926  -0.41792  -0.41758  -0.41504  -0.41271
 Alpha  occ. eigenvalues --   -0.41104  -0.40943  -0.40875  -0.40489  -0.40105
 Alpha  occ. eigenvalues --   -0.39659  -0.39640  -0.39446  -0.39279  -0.38965
 Alpha  occ. eigenvalues --   -0.38323  -0.37733  -0.37714  -0.37230  -0.37211
 Alpha  occ. eigenvalues --   -0.36875  -0.36497  -0.35974  -0.35349  -0.35279
 Alpha  occ. eigenvalues --   -0.34901  -0.34371  -0.34207  -0.34090  -0.33901
 Alpha  occ. eigenvalues --   -0.33702  -0.33477  -0.33391  -0.33262  -0.32552
 Alpha  occ. eigenvalues --   -0.32212  -0.31861  -0.31567  -0.31181  -0.29741
 Alpha  occ. eigenvalues --   -0.29639  -0.29117  -0.27649  -0.27045  -0.25480
 Alpha virt. eigenvalues --   -0.12832  -0.11558  -0.09118  -0.08402  -0.07260
 Alpha virt. eigenvalues --   -0.06964  -0.05705  -0.04962  -0.04483  -0.04377
 Alpha virt. eigenvalues --   -0.03210  -0.02611  -0.01687  -0.01260  -0.01198

 Mulliken charges:
               1
     1  N   -0.556478
     2  H    0.350622
     3  H    0.344301
     4  H    0.375791
     5  C   -0.097434
     6  H    0.177163
     7  C    0.638998
     8  C   -0.196287
     9  H    0.155932
    10  H    0.129511
    11  O   -0.544743
    12  C   -0.085082
    13  H    0.076763
    14  C   -0.314731
    15  H    0.127526
    16  H    0.117283
    17  H    0.132984
    18  C   -0.318513
    19  H    0.129465
    20  H    0.087271
    21  H    0.142507
    22  N   -0.506593
    23  H    0.301597
    24  C   -0.033919
    25  H    0.144451
    26  C    0.615439
    27  C   -0.051318
    28  H    0.111358
    29  O   -0.553622
    30  C   -0.338843
    31  H    0.113116
    32  H    0.125259
    33  H    0.129202
    34  C   -0.312072
    35  H    0.124488
    36  H    0.126614
    37  H    0.090026
    38  N   -0.514406
    39  H    0.288805
    40  C   -0.026014
    41  H    0.143327
    42  C    0.630611
    43  C   -0.063000
    44  H    0.135443
    45  O   -0.590623
    46  C   -0.345329
    47  H    0.106915
    48  H    0.121025
    49  H    0.124156
    50  C   -0.310131
    51  H    0.115238
    52  H    0.088688
    53  H    0.116121
    54  N   -0.506464
    55  H    0.292139
    56  C   -0.040339
    57  H    0.154225
    58  C    0.676059
    59  C    0.038778
    60  H    0.118890
    61  H    0.132773
    62  O   -0.595539
    63  O   -0.557282
    64  H    0.330973
    65  N   -0.514485
    66  H    0.287601
    67  C   -0.028744
    68  H    0.143006
    69  C    0.651374
    70  C    0.143947
    71  H    0.106370
    72  O   -0.570734
    73  C   -0.335816
    74  H    0.145889
    75  H    0.110202
    76  H    0.121937
    77  O   -0.568308
    78  H    0.319586
    79  N   -0.517840
    80  H    0.299189
    81  C   -0.026767
    82  H    0.138591
    83  C    0.622185
    84  C   -0.214948
    85  H    0.112613
    86  H    0.153827
    87  O   -0.540935
    88  C   -0.299314
    89  H    0.135229
    90  H    0.148892
    91  C    0.576382
    92  N   -0.590031
    93  H    0.281689
    94  H    0.288424
    95  O   -0.531922
    96  N   -0.530663
    97  H    0.280513
    98  C   -0.017647
    99  H    0.136302
   100  C    0.632195
   101  C    0.145914
   102  H    0.108080
   103  O   -0.556356
   104  C   -0.330599
   105  H    0.138022
   106  H    0.109052
   107  H    0.119441
   108  O   -0.570408
   109  H    0.325917
   110  N   -0.526833
   111  H    0.300010
   112  C   -0.027833
   113  H    0.137747
   114  C    0.619488
   115  C   -0.320257
   116  H    0.129311
   117  H    0.099022
   118  H    0.135166
   119  O   -0.549815
   120  N   -0.538942
   121  H    0.299054
   122  C   -0.036884
   123  H    0.137365
   124  C    0.636327
   125  C   -0.177805
   126  H    0.086055
   127  H    0.108753
   128  O   -0.533795
   129  C   -0.064509
   130  H    0.131143
   131  C   -0.327675
   132  H    0.085929
   133  H    0.130477
   134  H    0.097682
   135  C   -0.312175
   136  H    0.088740
   137  H    0.099055
   138  H    0.097383
   139  N   -0.527622
   140  H    0.292475
   141  C    0.003396
   142  H    0.154084
   143  C    0.599580
   144  C   -0.338330
   145  H    0.134507
   146  H    0.125714
   147  H    0.120670
   148  O   -0.465683
   149  O   -0.485861
   150  H    0.324968
 Sum of Mulliken charges =   1.00000

 Dipole moment (field-independent basis, Debye):
    X=            -29.8620    Y=            -23.8774    Z=            -27.9538  Tot=             47.3633
 Quadrupole moment (field-independent basis, Debye-Ang):
   XX=           -219.8455   YY=           -146.0672   ZZ=           -332.9160
   XY=            259.2475   XZ=            105.7950   YZ=            150.0133

 Normal termination of Gaussian 16 at Thu Sep  8 14:46:34 2022.
