 Gaussian 16, Revision C.01,
 Gaussian 16:  ES64L-G16RevC.01  3-Jul-2019

 ----------------------------------------------------------------------
 # B3LYP/6-31G** empiricaldispersion=gd3bj guess=read geom=check nosymm
  integral(ultrafinegrid)
 ----------------------------------------------------------------------

 ------------------------------------------------------
 Candidate Structure: Conf:126 Charge calc in gas phase
 ------------------------------------------------------
 Structure from the checkpoint file:  "conf-126.chk"
 Charge =  1 Multiplicity = 1

                          Input orientation:
 ---------------------------------------------------------------------
 Center     Atomic      Atomic             Coordinates (Angstroms)
 Number     Number       Type             X           Y           Z
 ---------------------------------------------------------------------
      1          7           0        3.641333   -5.226126   -0.516043
      2          1           0        4.133248   -5.985152   -0.987468
      3          1           0        3.788500   -5.380027    0.528702
      4          1           0        4.112851   -4.341556   -0.799522
      5          6           0        2.230420   -5.096257   -1.010873
      6          1           0        1.948874   -6.039306   -1.484175
      7          6           0        2.294817   -3.959463   -2.052818
      8          6           0        1.239690   -4.741009    0.107416
      9          1           0        0.256853   -4.629863   -0.365810
     10          1           0        1.489294   -3.756145    0.511300
     11          8           0        3.315282   -3.264102   -2.112843
     12          6           0        1.121952   -5.753320    1.258901
     13          1           0        2.094852   -5.821845    1.758901
     14          6           0        0.105410   -5.220632    2.277632
     15          1           0       -0.898146   -5.176454    1.839329
     16          1           0        0.364835   -4.211656    2.609965
     17          1           0        0.055421   -5.872130    3.155176
     18          6           0        0.734427   -7.153260    0.770640
     19          1           0       -0.211128   -7.129667    0.216200
     20          1           0        1.496370   -7.597202    0.120242
     21          1           0        0.604285   -7.833271    1.617032
     22          7           0        1.200161   -3.771160   -2.791871
     23          1           0        0.374322   -4.347756   -2.670182
     24          6           0        0.977049   -2.580990   -3.619018
     25          1           0        1.703303   -1.820989   -3.319084
     26          6           0       -0.461651   -2.172869   -3.268296
     27          6           0        1.119513   -2.893853   -5.124575
     28          1           0        0.305038   -3.583576   -5.378692
     29          8           0       -1.350453   -3.027492   -3.319340
     30          6           0        0.952399   -1.612715   -5.949115
     31          1           0        1.801231   -0.942659   -5.767660
     32          1           0        0.022747   -1.088035   -5.705354
     33          1           0        0.937193   -1.840987   -7.017966
     34          6           0        2.462066   -3.563833   -5.431450
     35          1           0        3.297557   -2.929382   -5.118359
     36          1           0        2.557112   -3.749072   -6.505253
     37          1           0        2.558219   -4.524562   -4.919271
     38          7           0       -0.642624   -0.898408   -2.879296
     39          1           0        0.155464   -0.262738   -2.818423
     40          6           0       -1.940253   -0.414038   -2.415841
     41          1           0       -2.707136   -1.035599   -2.887316
     42          6           0       -2.022993    1.040862   -2.878387
     43          6           0       -2.082974   -0.504628   -0.869030
     44          1           0       -1.396110    0.230924   -0.441433
     45          8           0       -1.018983    1.751391   -2.832841
     46          6           0       -3.501815   -0.136400   -0.424826
     47          1           0       -4.236990   -0.843416   -0.827956
     48          1           0       -3.786862    0.871920   -0.731016
     49          1           0       -3.564532   -0.171179    0.665721
     50          6           0       -1.692766   -1.888720   -0.337699
     51          1           0       -2.272087   -2.680248   -0.821079
     52          1           0       -0.630961   -2.094519   -0.494987
     53          1           0       -1.881234   -1.925883    0.738068
     54          7           0       -3.194777    1.533606   -3.341205
     55          1           0       -4.058877    1.027953   -3.199954
     56          6           0       -3.282320    2.940407   -3.743249
     57          1           0       -2.677805    3.105355   -4.639340
     58          6           0       -2.675029    3.887164   -2.681514
     59          6           0       -4.744614    3.257734   -4.053469
     60          1           0       -5.041458    2.746276   -4.979754
     61          1           0       -4.850284    4.338746   -4.206729
     62          8           0       -1.744427    4.646740   -2.941043
     63          8           0       -5.515128    2.792758   -2.947609
     64          1           0       -6.433981    3.066456   -3.057760
     65          7           0       -3.250295    3.802604   -1.460745
     66          1           0       -4.039957    3.185180   -1.306424
     67          6           0       -2.613176    4.340513   -0.269560
     68          1           0       -2.217179    5.335169   -0.489915
     69          6           0       -1.482521    3.361622    0.073060
     70          6           0       -3.661804    4.404573    0.861905
     71          1           0       -3.125636    4.627661    1.796778
     72          8           0       -1.753623    2.305910    0.674309
     73          6           0       -4.706855    5.478931    0.605304
     74          1           0       -4.249634    6.472145    0.581369
     75          1           0       -5.209902    5.301771   -0.349331
     76          1           0       -5.456142    5.455162    1.399316
     77          8           0       -4.337261    3.157075    0.956967
     78          1           0       -3.642131    2.498542    1.135633
     79          7           0       -0.250823    3.677336   -0.367371
     80          1           0       -0.220191    4.468740   -1.000214
     81          6           0        0.844099    2.701457   -0.538225
     82          1           0        0.420101    1.823124   -1.032370
     83          6           0        1.470936    2.172128    0.771286
     84          6           0        1.926358    3.294802   -1.443856
     85          1           0        2.844636    2.735432   -1.270792
     86          1           0        2.134072    4.323841   -1.130476
     87          8           0        2.682992    2.277859    0.999757
     88          6           0        1.574068    3.261601   -2.929257
     89          1           0        2.298829    3.864226   -3.489240
     90          1           0        0.585272    3.693567   -3.125979
     91          6           0        1.577194    1.856204   -3.517043
     92          7           0        1.323042    1.807967   -4.846796
     93          1           0        0.974023    2.621757   -5.328383
     94          1           0        1.175855    0.906699   -5.273961
     95          8           0        1.812447    0.833663   -2.859494
     96          7           0        0.644376    1.446949    1.549123
     97          1           0       -0.350907    1.417162    1.313580
     98          6           0        1.122162    0.623015    2.648255
     99          1           0        1.901131    1.167340    3.192832
    100          6           0        1.739883   -0.639674    2.024256
    101          6           0       -0.047288    0.274137    3.586538
    102          1           0        0.357239   -0.389353    4.367326
    103          8           0        1.154911   -1.745847    2.036658
    104          6           0       -0.653209    1.508691    4.235714
    105          1           0        0.096258    2.054852    4.815843
    106          1           0       -1.065715    2.176446    3.475313
    107          1           0       -1.464090    1.207864    4.902493
    108          8           0       -1.076884   -0.384036    2.859539
    109          1           0       -0.660337   -1.191627    2.513503
    110          7           0        2.925007   -0.460176    1.421879
    111          1           0        3.250227    0.508393    1.363243
    112          6           0        3.482101   -1.418142    0.457840
    113          1           0        2.637274   -1.898629   -0.047104
    114          6           0        4.270568   -2.529466    1.182476
    115          6           0        4.328308   -0.679803   -0.569872
    116          1           0        4.766086   -1.394708   -1.263841
    117          1           0        3.699575    0.015636   -1.131145
    118          1           0        5.139047   -0.131842   -0.082121
    119          8           0        5.412438   -2.858242    0.871032
    120          7           0        3.587983   -3.156983    2.183552
    121          1           0        2.640746   -2.834368    2.368699
    122          6           0        4.299911   -3.859376    3.233683
    123          1           0        5.051233   -3.184771    3.663455
    124          6           0        5.037307   -5.082480    2.693926
    125          6           0        3.330104   -4.309335    4.342957
    126          1           0        2.692505   -5.109188    3.950843
    127          1           0        3.935202   -4.752213    5.143029
    128          8           0        4.544402   -5.849838    1.841565
    129          6           0        2.443363   -3.197825    4.939027
    130          1           0        1.719917   -2.882280    4.177374
    131          6           0        1.641461   -3.768627    6.114444
    132          1           0        2.305257   -4.074385    6.930965
    133          1           0        1.057239   -4.643267    5.810418
    134          1           0        0.946106   -3.022838    6.510630
    135          6           0        3.246766   -1.961791    5.359639
    136          1           0        4.024649   -2.222143    6.086805
    137          1           0        2.591849   -1.222669    5.831407
    138          1           0        3.729485   -1.474937    4.506023
    139          7           0        6.212602   -5.342986    3.269578
    140          1           0        6.598840   -4.727802    3.977014
    141          6           0        7.025635   -6.502205    2.937298
    142          1           0        6.385312   -7.389786    2.910375
    143          6           0        8.032888   -6.658893    4.066693
    144          6           0        7.733086   -6.345955    1.581197
    145          1           0        8.323749   -7.236437    1.358082
    146          1           0        6.980694   -6.207975    0.803668
    147          1           0        8.389327   -5.472109    1.590505
    148          8           0        8.198997   -5.839107    4.944609
    149          8           0        8.729506   -7.797931    3.953879
    150          1           0        9.372200   -7.820973    4.683992
 ---------------------------------------------------------------------

 SCF Done:  E(RB3LYP) =  -3456.05705286     A.U. after    2 cycles

 Alpha  occ. eigenvalues --  -19.28781 -19.24845 -19.23370 -19.23157 -19.22765
 Alpha  occ. eigenvalues --  -19.22333 -19.21368 -19.20846 -19.20385 -19.20354
 Alpha  occ. eigenvalues --  -19.20238 -19.19528 -19.19457 -19.19279 -19.19161
 Alpha  occ. eigenvalues --  -14.52578 -14.46563 -14.46219 -14.45168 -14.44815
 Alpha  occ. eigenvalues --  -14.44660 -14.44040 -14.43542 -14.43232 -14.42895
 Alpha  occ. eigenvalues --  -14.42755 -10.41323 -10.39981 -10.39297 -10.38154
 Alpha  occ. eigenvalues --  -10.37556 -10.37364 -10.37286 -10.36727 -10.36427
 Alpha  occ. eigenvalues --  -10.36395 -10.36329 -10.36014 -10.33315 -10.33277
 Alpha  occ. eigenvalues --  -10.32683 -10.32022 -10.31599 -10.31323 -10.31118
 Alpha  occ. eigenvalues --  -10.31047 -10.30922 -10.30884 -10.30792 -10.30499
 Alpha  occ. eigenvalues --  -10.28978 -10.27853 -10.27665 -10.27300 -10.27011
 Alpha  occ. eigenvalues --  -10.26846 -10.26238 -10.26030 -10.25969 -10.25684
 Alpha  occ. eigenvalues --  -10.25663 -10.25236 -10.25067 -10.24681 -10.24564
 Alpha  occ. eigenvalues --  -10.24317 -10.23929 -10.23907 -10.23864 -10.23803
 Alpha  occ. eigenvalues --   -1.19943  -1.15417  -1.14444  -1.13756  -1.13418
 Alpha  occ. eigenvalues --   -1.12964  -1.12291  -1.11993  -1.11293  -1.11127
 Alpha  occ. eigenvalues --   -1.11075  -1.10704  -1.10618  -1.08222  -1.08030
 Alpha  occ. eigenvalues --   -1.07830  -1.03109  -1.02921  -1.01861  -1.01374
 Alpha  occ. eigenvalues --   -1.01240  -1.01015  -1.00169  -0.99737  -0.99370
 Alpha  occ. eigenvalues --   -0.97929  -0.91293  -0.89834  -0.89150  -0.87765
 Alpha  occ. eigenvalues --   -0.87619  -0.87452  -0.86097  -0.85728  -0.85217
 Alpha  occ. eigenvalues --   -0.84158  -0.83691  -0.82637  -0.80762  -0.80501
 Alpha  occ. eigenvalues --   -0.78260  -0.77996  -0.77284  -0.76890  -0.76418
 Alpha  occ. eigenvalues --   -0.76212  -0.75995  -0.75244  -0.74776  -0.74487
 Alpha  occ. eigenvalues --   -0.73207  -0.72841  -0.71247  -0.70114  -0.69623
 Alpha  occ. eigenvalues --   -0.69144  -0.68690  -0.68336  -0.68225  -0.68006
 Alpha  occ. eigenvalues --   -0.66540  -0.66507  -0.66323  -0.66156  -0.65916
 Alpha  occ. eigenvalues --   -0.65591  -0.65441  -0.65323  -0.65276  -0.64704
 Alpha  occ. eigenvalues --   -0.64331  -0.64005  -0.62867  -0.61989  -0.61819
 Alpha  occ. eigenvalues --   -0.61217  -0.60768  -0.60411  -0.60377  -0.59763
 Alpha  occ. eigenvalues --   -0.59412  -0.59019  -0.58527  -0.58452  -0.57944
 Alpha  occ. eigenvalues --   -0.57675  -0.57544  -0.57256  -0.57002  -0.56746
 Alpha  occ. eigenvalues --   -0.56439  -0.56175  -0.55629  -0.55183  -0.55022
 Alpha  occ. eigenvalues --   -0.54785  -0.54557  -0.54485  -0.54275  -0.53981
 Alpha  occ. eigenvalues --   -0.53874  -0.53704  -0.53256  -0.52923  -0.52734
 Alpha  occ. eigenvalues --   -0.52426  -0.52325  -0.52141  -0.51680  -0.51200
 Alpha  occ. eigenvalues --   -0.51104  -0.50874  -0.50682  -0.50586  -0.50188
 Alpha  occ. eigenvalues --   -0.50144  -0.50055  -0.49777  -0.49757  -0.49518
 Alpha  occ. eigenvalues --   -0.49288  -0.48984  -0.48964  -0.48488  -0.48389
 Alpha  occ. eigenvalues --   -0.47931  -0.47759  -0.47624  -0.47505  -0.47271
 Alpha  occ. eigenvalues --   -0.47209  -0.47100  -0.46961  -0.46871  -0.46613
 Alpha  occ. eigenvalues --   -0.46466  -0.46370  -0.46154  -0.45957  -0.45904
 Alpha  occ. eigenvalues --   -0.45732  -0.45659  -0.45346  -0.45307  -0.45192
 Alpha  occ. eigenvalues --   -0.45173  -0.45034  -0.44837  -0.44758  -0.44597
 Alpha  occ. eigenvalues --   -0.44521  -0.44197  -0.44119  -0.43952  -0.43396
 Alpha  occ. eigenvalues --   -0.43224  -0.43145  -0.42966  -0.42848  -0.42365
 Alpha  occ. eigenvalues --   -0.42283  -0.42089  -0.41702  -0.41655  -0.41428
 Alpha  occ. eigenvalues --   -0.41210  -0.41055  -0.40957  -0.40887  -0.40848
 Alpha  occ. eigenvalues --   -0.40606  -0.40505  -0.40328  -0.40148  -0.40064
 Alpha  occ. eigenvalues --   -0.39581  -0.37513  -0.37376  -0.37360  -0.37097
 Alpha  occ. eigenvalues --   -0.36729  -0.36454  -0.36166  -0.36129  -0.35953
 Alpha  occ. eigenvalues --   -0.35902  -0.35580  -0.34976  -0.34570  -0.34092
 Alpha  occ. eigenvalues --   -0.34015  -0.33802  -0.33314  -0.33268  -0.32989
 Alpha  occ. eigenvalues --   -0.32715  -0.32388  -0.32102  -0.31969  -0.31563
 Alpha virt. eigenvalues --   -0.09010  -0.08831  -0.08668  -0.07726  -0.07689
 Alpha virt. eigenvalues --   -0.07343  -0.07210  -0.05764  -0.05713  -0.05459
 Alpha virt. eigenvalues --   -0.05321  -0.04405  -0.02184  -0.01897  -0.01276

 Mulliken charges:
               1
     1  N   -0.597318
     2  H    0.325746
     3  H    0.417912
     4  H    0.349696
     5  C   -0.083549
     6  H    0.152932
     7  C    0.623473
     8  C   -0.189138
     9  H    0.126354
    10  H    0.136529
    11  O   -0.541513
    12  C   -0.093811
    13  H    0.113596
    14  C   -0.330037
    15  H    0.112765
    16  H    0.125459
    17  H    0.111717
    18  C   -0.314757
    19  H    0.112628
    20  H    0.086510
    21  H    0.125199
    22  N   -0.516002
    23  H    0.289119
    24  C   -0.014832
    25  H    0.155442
    26  C    0.596412
    27  C   -0.054215
    28  H    0.115305
    29  O   -0.557524
    30  C   -0.342913
    31  H    0.117497
    32  H    0.109393
    33  H    0.125953
    34  C   -0.316321
    35  H    0.124006
    36  H    0.115655
    37  H    0.094743
    38  N   -0.559380
    39  H    0.328049
    40  C   -0.003435
    41  H    0.130637
    42  C    0.619543
    43  C   -0.052220
    44  H    0.112847
    45  O   -0.550756
    46  C   -0.333362
    47  H    0.100641
    48  H    0.097392
    49  H    0.135193
    50  C   -0.327841
    51  H    0.121786
    52  H    0.091205
    53  H    0.111515
    54  N   -0.538400
    55  H    0.287673
    56  C    0.002727
    57  H    0.142027
    58  C    0.615444
    59  C    0.009500
    60  H    0.118523
    61  H    0.130663
    62  O   -0.546621
    63  O   -0.545346
    64  H    0.334147
    65  N   -0.505489
    66  H    0.307135
    67  C   -0.027180
    68  H    0.130148
    69  C    0.644797
    70  C    0.146860
    71  H    0.097477
    72  O   -0.590637
    73  C   -0.313546
    74  H    0.110103
    75  H    0.112130
    76  H    0.132882
    77  O   -0.562307
    78  H    0.338885
    79  N   -0.521289
    80  H    0.296004
    81  C   -0.017215
    82  H    0.171680
    83  C    0.613589
    84  C   -0.213775
    85  H    0.152664
    86  H    0.111950
    87  O   -0.554133
    88  C   -0.300553
    89  H    0.131610
    90  H    0.170298
    91  C    0.629676
    92  N   -0.600568
    93  H    0.282412
    94  H    0.277639
    95  O   -0.563193
    96  N   -0.545001
    97  H    0.347018
    98  C   -0.019776
    99  H    0.140060
   100  C    0.622212
   101  C    0.140101
   102  H    0.091763
   103  O   -0.596504
   104  C   -0.318248
   105  H    0.106999
   106  H    0.122217
   107  H    0.128601
   108  O   -0.564191
   109  H    0.333073
   110  N   -0.518353
   111  H    0.320159
   112  C   -0.039659
   113  H    0.139047
   114  C    0.594139
   115  C   -0.341121
   116  H    0.147805
   117  H    0.144650
   118  H    0.121176
   119  O   -0.531361
   120  N   -0.561392
   121  H    0.318664
   122  C   -0.004608
   123  H    0.121726
   124  C    0.663721
   125  C   -0.194633
   126  H    0.121583
   127  H    0.113592
   128  O   -0.611332
   129  C   -0.090341
   130  H    0.110623
   131  C   -0.315253
   132  H    0.111638
   133  H    0.106854
   134  H    0.113357
   135  C   -0.324117
   136  H    0.112645
   137  H    0.113327
   138  H    0.102124
   139  N   -0.515167
   140  H    0.297544
   141  C    0.003349
   142  H    0.162073
   143  C    0.588856
   144  C   -0.308669
   145  H    0.141954
   146  H    0.123019
   147  H    0.135052
   148  O   -0.463450
   149  O   -0.472926
   150  H    0.343062
 Sum of Mulliken charges =   1.00000

 Dipole moment (field-independent basis, Debye):
    X=              6.3142    Y=            -10.9957    Z=             -3.3031  Tot=             13.1029
 Quadrupole moment (field-independent basis, Debye-Ang):
   XX=           -313.9470   YY=           -277.4749   ZZ=           -333.5907
   XY=           -110.1912   XZ=             53.2965   YZ=            -39.3871

 Normal termination of Gaussian 16 at Thu Sep  8 14:47:29 2022.
