 Gaussian 16, Revision C.01,
 Gaussian 16:  ES64L-G16RevC.01  3-Jul-2019

 ----------------------------------------------------------------------
 # B3LYP/6-31G** empiricaldispersion=gd3bj guess=read geom=check nosymm
  integral(ultrafinegrid)
 ----------------------------------------------------------------------

 ------------------------------------------------------
 Candidate Structure: Conf:745 Charge calc in gas phase
 ------------------------------------------------------
 Structure from the checkpoint file:  "conf-745.chk"
 Charge =  1 Multiplicity = 1

                          Input orientation:
 ---------------------------------------------------------------------
 Center     Atomic      Atomic             Coordinates (Angstroms)
 Number     Number       Type             X           Y           Z
 ---------------------------------------------------------------------
      1          7           0       -8.063122   -2.339980   -8.276998
      2          1           0       -7.813567   -2.899608   -9.093511
      3          1           0       -8.414581   -1.433848   -8.591347
      4          1           0       -8.792814   -2.861206   -7.675457
      5          6           0       -6.943772   -2.211782   -7.264739
      6          1           0       -6.049072   -2.671621   -7.687209
      7          6           0       -7.486673   -3.078493   -6.095519
      8          6           0       -6.696617   -0.728748   -6.941081
      9          1           0       -7.642140   -0.288393   -6.597895
     10          1           0       -6.427069   -0.233628   -7.883973
     11          8           0       -8.657359   -3.488933   -6.189330
     12          6           0       -5.597681   -0.431769   -5.898311
     13          1           0       -5.931917   -0.812045   -4.928070
     14          6           0       -4.248649   -1.081364   -6.240278
     15          1           0       -3.824399   -0.649426   -7.153587
     16          1           0       -4.311397   -2.165834   -6.395931
     17          1           0       -3.537543   -0.937858   -5.422666
     18          6           0       -5.442805    1.087726   -5.757992
     19          1           0       -5.099427    1.539027   -6.695619
     20          1           0       -6.386585    1.564952   -5.475549
     21          1           0       -4.705032    1.321335   -4.986329
     22          7           0       -6.646102   -3.338540   -5.108386
     23          1           0       -5.762617   -2.840583   -5.054844
     24          6           0       -6.965204   -4.041868   -3.866880
     25          1           0       -8.052701   -4.131740   -3.788417
     26          6           0       -6.398981   -3.132702   -2.763615
     27          6           0       -6.316312   -5.458501   -3.877204
     28          1           0       -5.236697   -5.303909   -4.001013
     29          8           0       -5.576180   -2.256605   -3.065115
     30          6           0       -6.531646   -6.221937   -2.563821
     31          1           0       -7.595065   -6.260859   -2.291556
     32          1           0       -5.946902   -5.789560   -1.750374
     33          1           0       -6.201205   -7.256358   -2.687946
     34          6           0       -6.848688   -6.262869   -5.069347
     35          1           0       -7.930552   -6.414019   -4.990036
     36          1           0       -6.372175   -7.246043   -5.096961
     37          1           0       -6.644437   -5.770832   -6.023844
     38          7           0       -6.803411   -3.337064   -1.500545
     39          1           0       -7.376527   -4.146931   -1.312196
     40          6           0       -6.017848   -2.797970   -0.385051
     41          1           0       -6.164683   -1.712424   -0.351725
     42          6           0       -4.535601   -3.117371   -0.679102
     43          6           0       -6.478699   -3.422158    0.945743
     44          1           0       -6.335154   -4.507278    0.850100
     45          8           0       -4.202729   -4.227034   -1.085320
     46          6           0       -5.603684   -2.924462    2.103080
     47          1           0       -5.673325   -1.835638    2.208325
     48          1           0       -4.551174   -3.183143    1.965833
     49          1           0       -5.938210   -3.368317    3.044055
     50          6           0       -7.958524   -3.126395    1.221496
     51          1           0       -8.124499   -2.048234    1.321808
     52          1           0       -8.622511   -3.490392    0.431187
     53          1           0       -8.270919   -3.600862    2.155548
     54          7           0       -3.684539   -2.085378   -0.496775
     55          1           0       -3.976728   -1.243429   -0.015399
     56          6           0       -2.275855   -2.140833   -0.825379
     57          1           0       -1.981926   -3.190548   -0.899575
     58          6           0       -1.508761   -1.396902    0.268571
     59          6           0       -2.025839   -1.437070   -2.185760
     60          1           0       -0.961321   -1.490883   -2.434314
     61          1           0       -2.285601   -0.372827   -2.063755
     62          8           0       -2.075731   -0.577979    0.988223
     63          8           0       -2.732887   -2.036427   -3.245273
     64          1           0       -3.679533   -2.036267   -3.023199
     65          7           0       -0.182539   -1.674153    0.324418
     66          1           0        0.245876   -2.175237   -0.450163
     67          6           0        0.757618   -0.789537    0.993693
     68          1           0        0.267396    0.174440    1.167288
     69          6           0        1.946303   -0.622011    0.033303
     70          6           0        1.231093   -1.374445    2.348436
     71          1           0        1.972545   -0.688688    2.773209
     72          8           0        2.016926   -1.313103   -0.992400
     73          6           0        0.081507   -1.549669    3.333852
     74          1           0       -0.430245   -0.602395    3.522512
     75          1           0       -0.660575   -2.251228    2.939374
     76          1           0        0.466615   -1.944248    4.276938
     77          8           0        1.938236   -2.585848    2.126720
     78          1           0        1.291533   -3.240523    1.826664
     79          7           0        2.846651    0.300547    0.397397
     80          1           0        2.777135    0.750616    1.307153
     81          6           0        4.169934    0.462657   -0.187704
     82          1           0        4.457618   -0.473800   -0.674224
     83          6           0        5.103840    0.767248    0.990072
     84          6           0        4.219992    1.626809   -1.200185
     85          1           0        5.262795    1.849461   -1.448481
     86          1           0        3.804746    2.514246   -0.710613
     87          8           0        4.645008    1.201569    2.052948
     88          6           0        3.466047    1.323792   -2.503163
     89          1           0        3.398482    2.239448   -3.095673
     90          1           0        2.452356    0.973789   -2.289989
     91          6           0        4.255530    0.315057   -3.338288
     92          7           0        3.784682   -0.962362   -3.304453
     93          1           0        3.094972   -1.237391   -2.612107
     94          1           0        4.353091   -1.668565   -3.748906
     95          8           0        5.256129    0.652476   -3.958251
     96          7           0        6.414165    0.577137    0.767116
     97          1           0        6.772289    0.296222   -0.139769
     98          6           0        7.439107    0.977096    1.726923
     99          1           0        7.049344    0.797490    2.732384
    100          6           0        7.720426    2.478903    1.529253
    101          6           0        8.706636    0.146893    1.454088
    102          1           0        9.510833    0.565123    2.074944
    103          8           0        8.696141    2.875041    0.879988
    104          6           0        8.522843   -1.326548    1.779684
    105          1           0        8.312307   -1.466253    2.844100
    106          1           0        7.696361   -1.752951    1.204241
    107          1           0        9.433955   -1.872809    1.526216
    108          8           0        9.033594    0.259825    0.073368
    109          1           0        9.241743    1.205346   -0.047619
    110          7           0        6.805620    3.304819    2.068875
    111          1           0        5.976856    2.938870    2.532953
    112          6           0        6.844268    4.737925    1.844508
    113          1           0        7.871284    5.083886    1.999402
    114          6           0        5.909240    5.379504    2.872559
    115          6           0        6.400317    5.106367    0.417288
    116          1           0        6.437309    6.188242    0.260204
    117          1           0        7.065665    4.624627   -0.301383
    118          1           0        5.374937    4.764817    0.246742
    119          8           0        5.008762    4.734240    3.407413
    120          7           0        6.142708    6.692190    3.104368
    121          1           0        6.785843    7.204514    2.510309
    122          6           0        5.216230    7.539441    3.831638
    123          1           0        4.267838    7.001020    3.913198
    124          6           0        5.036764    8.815596    3.003714
    125          6           0        5.742209    7.908330    5.235350
    126          1           0        6.695354    8.434327    5.102344
    127          1           0        5.055600    8.632243    5.693144
    128          8           0        5.868998    9.156010    2.167616
    129          6           0        5.933446    6.716038    6.185155
    130          1           0        6.593251    5.994291    5.686567
    131          6           0        6.626595    7.188911    7.468815
    132          1           0        6.003213    7.914725    8.004882
    133          1           0        7.587396    7.668342    7.253903
    134          1           0        6.812608    6.349296    8.145621
    135          6           0        4.609412    6.010164    6.501337
    136          1           0        3.883760    6.715554    6.926504
    137          1           0        4.765590    5.216393    7.238726
    138          1           0        4.179345    5.547546    5.610152
    139          7           0        3.915893    9.535438    3.282200
    140          1           0        3.348727    9.242267    4.065101
    141          6           0        3.742514   10.891412    2.796134
    142          1           0        4.442377   10.995015    1.960357
    143          6           0        4.160373   11.953139    3.816178
    144          6           0        2.314691   11.151933    2.311370
    145          1           0        2.221743   12.186202    1.977714
    146          1           0        2.073205   10.478585    1.486510
    147          1           0        1.590807   10.989087    3.117117
    148          8           0        3.948549   13.135252    3.676860
    149          8           0        4.804471   11.437376    4.888006
    150          1           0        5.051343   12.195896    5.444489
 ---------------------------------------------------------------------

 SCF Done:  E(RB3LYP) =  -3455.96030960     A.U. after    1 cycles

 Alpha  occ. eigenvalues --  -19.27660 -19.24832 -19.23861 -19.21153 -19.20419
 Alpha  occ. eigenvalues --  -19.19898 -19.19769 -19.19760 -19.18651 -19.18424
 Alpha  occ. eigenvalues --  -19.17593 -19.17176 -19.16574 -19.16501 -19.14164
 Alpha  occ. eigenvalues --  -14.59547 -14.50062 -14.47211 -14.44168 -14.43350
 Alpha  occ. eigenvalues --  -14.42986 -14.42317 -14.41610 -14.40455 -14.40108
 Alpha  occ. eigenvalues --  -14.38347 -10.44128 -10.40714 -10.40532 -10.37075
 Alpha  occ. eigenvalues --  -10.36789 -10.36605 -10.36551 -10.35266 -10.35227
 Alpha  occ. eigenvalues --  -10.34039 -10.33458 -10.33449 -10.33353 -10.32654
 Alpha  occ. eigenvalues --  -10.31991 -10.30999 -10.30769 -10.30523 -10.30368
 Alpha  occ. eigenvalues --  -10.30064 -10.29908 -10.29884 -10.29012 -10.28699
 Alpha  occ. eigenvalues --  -10.28079 -10.27953 -10.27929 -10.27899 -10.27677
 Alpha  occ. eigenvalues --  -10.27370 -10.26952 -10.26338 -10.26135 -10.25516
 Alpha  occ. eigenvalues --  -10.25160 -10.23771 -10.23351 -10.23281 -10.22912
 Alpha  occ. eigenvalues --  -10.22648 -10.22447 -10.21484 -10.20717 -10.20200
 Alpha  occ. eigenvalues --   -1.20081  -1.15968  -1.15566  -1.13570  -1.12286
 Alpha  occ. eigenvalues --   -1.11725  -1.11081  -1.10289  -1.09340  -1.08756
 Alpha  occ. eigenvalues --   -1.08627  -1.08127  -1.07988  -1.07136  -1.06433
 Alpha  occ. eigenvalues --   -1.06049  -1.05237  -1.03732  -1.00683  -1.00160
 Alpha  occ. eigenvalues --   -0.99797  -0.98690  -0.98366  -0.97344  -0.96774
 Alpha  occ. eigenvalues --   -0.94882  -0.93313  -0.91666  -0.89680  -0.88195
 Alpha  occ. eigenvalues --   -0.86695  -0.85544  -0.85100  -0.83645  -0.83029
 Alpha  occ. eigenvalues --   -0.82823  -0.82553  -0.81112  -0.80433  -0.79166
 Alpha  occ. eigenvalues --   -0.78877  -0.78409  -0.78135  -0.77696  -0.76935
 Alpha  occ. eigenvalues --   -0.76741  -0.74843  -0.74170  -0.73315  -0.72686
 Alpha  occ. eigenvalues --   -0.72424  -0.71671  -0.71492  -0.70893  -0.69940
 Alpha  occ. eigenvalues --   -0.69199  -0.68933  -0.68434  -0.68165  -0.68079
 Alpha  occ. eigenvalues --   -0.67117  -0.66724  -0.66581  -0.65762  -0.65173
 Alpha  occ. eigenvalues --   -0.64847  -0.64722  -0.64467  -0.63777  -0.63382
 Alpha  occ. eigenvalues --   -0.62987  -0.62766  -0.62137  -0.61441  -0.60799
 Alpha  occ. eigenvalues --   -0.60697  -0.60637  -0.60071  -0.59313  -0.58939
 Alpha  occ. eigenvalues --   -0.58622  -0.58345  -0.57860  -0.57470  -0.57096
 Alpha  occ. eigenvalues --   -0.56447  -0.56217  -0.55810  -0.55414  -0.55275
 Alpha  occ. eigenvalues --   -0.55013  -0.54741  -0.54382  -0.54033  -0.53871
 Alpha  occ. eigenvalues --   -0.53690  -0.53489  -0.52951  -0.52878  -0.52631
 Alpha  occ. eigenvalues --   -0.52472  -0.52237  -0.51954  -0.51740  -0.51563
 Alpha  occ. eigenvalues --   -0.51288  -0.51206  -0.51018  -0.50765  -0.50541
 Alpha  occ. eigenvalues --   -0.50289  -0.50140  -0.49992  -0.49734  -0.49213
 Alpha  occ. eigenvalues --   -0.49063  -0.48976  -0.48743  -0.48700  -0.48633
 Alpha  occ. eigenvalues --   -0.48616  -0.48395  -0.47828  -0.47670  -0.47578
 Alpha  occ. eigenvalues --   -0.47490  -0.47413  -0.47216  -0.46888  -0.46796
 Alpha  occ. eigenvalues --   -0.46512  -0.46381  -0.45948  -0.45933  -0.45669
 Alpha  occ. eigenvalues --   -0.45305  -0.45170  -0.44891  -0.44794  -0.44719
 Alpha  occ. eigenvalues --   -0.44626  -0.44349  -0.44160  -0.44088  -0.43967
 Alpha  occ. eigenvalues --   -0.43735  -0.43667  -0.43349  -0.43134  -0.43096
 Alpha  occ. eigenvalues --   -0.42726  -0.42652  -0.42527  -0.42441  -0.42378
 Alpha  occ. eigenvalues --   -0.42259  -0.42217  -0.42063  -0.42019  -0.41669
 Alpha  occ. eigenvalues --   -0.41565  -0.41457  -0.41334  -0.41291  -0.41100
 Alpha  occ. eigenvalues --   -0.40513  -0.40487  -0.40338  -0.39975  -0.39649
 Alpha  occ. eigenvalues --   -0.39603  -0.39296  -0.38663  -0.37717  -0.37387
 Alpha  occ. eigenvalues --   -0.37110  -0.36619  -0.36551  -0.36031  -0.35906
 Alpha  occ. eigenvalues --   -0.35381  -0.35091  -0.34410  -0.34175  -0.34153
 Alpha  occ. eigenvalues --   -0.33958  -0.33223  -0.33097  -0.32265  -0.32177
 Alpha  occ. eigenvalues --   -0.31824  -0.31538  -0.31209  -0.30806  -0.29986
 Alpha  occ. eigenvalues --   -0.29930  -0.29796  -0.29442  -0.28883  -0.27916
 Alpha virt. eigenvalues --   -0.12818  -0.10942  -0.10017  -0.06233  -0.06137
 Alpha virt. eigenvalues --   -0.05961  -0.05273  -0.04682  -0.04595  -0.04018
 Alpha virt. eigenvalues --   -0.02918  -0.02559  -0.02339  -0.01647  -0.01146

 Mulliken charges:
               1
     1  N   -0.562190
     2  H    0.350804
     3  H    0.345591
     4  H    0.375945
     5  C   -0.100256
     6  H    0.181573
     7  C    0.633919
     8  C   -0.181766
     9  H    0.124212
    10  H    0.125778
    11  O   -0.543940
    12  C   -0.108101
    13  H    0.134315
    14  C   -0.337326
    15  H    0.114291
    16  H    0.081166
    17  H    0.165797
    18  C   -0.317471
    19  H    0.114649
    20  H    0.111288
    21  H    0.132049
    22  N   -0.499593
    23  H    0.314773
    24  C   -0.060350
    25  H    0.152041
    26  C    0.650840
    27  C   -0.042352
    28  H    0.125176
    29  O   -0.566251
    30  C   -0.362073
    31  H    0.095139
    32  H    0.157038
    33  H    0.129922
    34  C   -0.310617
    35  H    0.120521
    36  H    0.129752
    37  H    0.086077
    38  N   -0.524542
    39  H    0.278893
    40  C    0.038419
    41  H    0.119003
    42  C    0.597481
    43  C   -0.103111
    44  H    0.117278
    45  O   -0.533345
    46  C   -0.328596
    47  H    0.113539
    48  H    0.127861
    49  H    0.125475
    50  C   -0.316735
    51  H    0.117883
    52  H    0.094662
    53  H    0.129236
    54  N   -0.519312
    55  H    0.282440
    56  C   -0.059217
    57  H    0.153974
    58  C    0.599024
    59  C    0.081557
    60  H    0.120689
    61  H    0.088077
    62  O   -0.533388
    63  O   -0.565769
    64  H    0.346279
    65  N   -0.533397
    66  H    0.289789
    67  C   -0.054626
    68  H    0.145359
    69  C    0.640138
    70  C    0.172683
    71  H    0.120006
    72  O   -0.572415
    73  C   -0.325216
    74  H    0.122045
    75  H    0.104131
    76  H    0.127519
    77  O   -0.537594
    78  H    0.305877
    79  N   -0.512485
    80  H    0.294466
    81  C   -0.034252
    82  H    0.140423
    83  C    0.615805
    84  C   -0.173550
    85  H    0.135157
    86  H    0.112916
    87  O   -0.554465
    88  C   -0.246701
    89  H    0.131481
    90  H    0.102132
    91  C    0.532637
    92  N   -0.617877
    93  H    0.305634
    94  H    0.268211
    95  O   -0.507265
    96  N   -0.513976
    97  H    0.288481
    98  C   -0.039182
    99  H    0.139236
   100  C    0.624875
   101  C    0.151934
   102  H    0.104215
   103  O   -0.556404
   104  C   -0.313180
   105  H    0.106331
   106  H    0.108322
   107  H    0.128874
   108  O   -0.563492
   109  H    0.331692
   110  N   -0.538517
   111  H    0.307590
   112  C   -0.002022
   113  H    0.140755
   114  C    0.592796
   115  C   -0.320504
   116  H    0.120200
   117  H    0.147251
   118  H    0.111456
   119  O   -0.534050
   120  N   -0.515950
   121  H    0.283902
   122  C   -0.049950
   123  H    0.134910
   124  C    0.606502
   125  C   -0.145744
   126  H    0.104548
   127  H    0.094198
   128  O   -0.530158
   129  C   -0.054732
   130  H    0.099914
   131  C   -0.311138
   132  H    0.098173
   133  H    0.101237
   134  H    0.104823
   135  C   -0.327721
   136  H    0.083114
   137  H    0.102607
   138  H    0.134468
   139  N   -0.514691
   140  H    0.267323
   141  C   -0.031239
   142  H    0.184900
   143  C    0.597634
   144  C   -0.316688
   145  H    0.149792
   146  H    0.122585
   147  H    0.107657
   148  O   -0.454193
   149  O   -0.485365
   150  H    0.331906
 Sum of Mulliken charges =   1.00000

 Dipole moment (field-independent basis, Debye):
    X=            -34.0678    Y=             -7.4130    Z=            -20.4082  Tot=             40.3988
 Quadrupole moment (field-independent basis, Debye-Ang):
   XX=           -192.6851   YY=           -349.0109   ZZ=           -174.7771
   XY=             87.5746   XZ=            247.5596   YZ=             93.5405

 Normal termination of Gaussian 16 at Thu Sep  8 14:46:23 2022.
