 Gaussian 16, Revision C.01,
 Gaussian 16:  ES64L-G16RevC.01  3-Jul-2019

 ----------------------------------------------------------------------
 # B3LYP/6-31G** empiricaldispersion=gd3bj guess=read geom=check nosymm
  integral(ultrafinegrid)
 ----------------------------------------------------------------------

 ------------------------------------------------------
 Candidate Structure: Conf:474 Charge calc in gas phase
 ------------------------------------------------------
 Structure from the checkpoint file:  "conf-474.chk"
 Charge =  1 Multiplicity = 1

                          Input orientation:
 ---------------------------------------------------------------------
 Center     Atomic      Atomic             Coordinates (Angstroms)
 Number     Number       Type             X           Y           Z
 ---------------------------------------------------------------------
      1          7           0       -4.996498   -4.121328  -10.273604
      2          1           0       -4.572548   -4.557691  -11.092724
      3          1           0       -5.989809   -3.972838  -10.458332
      4          1           0       -4.832035   -4.730598   -9.390574
      5          6           0       -4.292291   -2.862009   -9.825809
      6          1           0       -3.524304   -2.614959  -10.560273
      7          6           0       -3.654101   -3.316180   -8.488604
      8          6           0       -5.279845   -1.707137   -9.633721
      9          1           0       -4.723119   -0.868938   -9.199730
     10          1           0       -6.014304   -2.004479   -8.873533
     11          8           0       -3.967993   -4.447207   -8.072227
     12          6           0       -5.996738   -1.228699  -10.910285
     13          1           0       -6.577345   -2.068309  -11.328584
     14          6           0       -6.996528   -0.124683  -10.543419
     15          1           0       -6.474712    0.748078  -10.136544
     16          1           0       -7.717159   -0.466408   -9.794134
     17          1           0       -7.554424    0.200299  -11.425165
     18          6           0       -5.012188   -0.748901  -11.983161
     19          1           0       -4.390315    0.068035  -11.600897
     20          1           0       -4.344633   -1.542833  -12.336305
     21          1           0       -5.551220   -0.373665  -12.856644
     22          7           0       -2.848453   -2.453795   -7.898998
     23          1           0       -2.744555   -1.496354   -8.242267
     24          6           0       -2.324014   -2.569469   -6.536575
     25          1           0       -2.948901   -3.277044   -5.983856
     26          6           0       -2.474139   -1.133116   -5.992127
     27          6           0       -0.848068   -3.052583   -6.524186
     28          1           0       -0.254187   -2.262875   -7.003624
     29          8           0       -2.471017   -0.190845   -6.793864
     30          6           0       -0.337804   -3.255837   -5.091325
     31          1           0       -0.939945   -4.006687   -4.565888
     32          1           0       -0.343083   -2.343348   -4.493128
     33          1           0        0.690512   -3.625654   -5.116409
     34          6           0       -0.692465   -4.344639   -7.335160
     35          1           0       -1.319134   -5.143526   -6.926067
     36          1           0        0.347474   -4.680225   -7.303566
     37          1           0       -0.962200   -4.204598   -8.385351
     38          7           0       -2.612825   -1.007521   -4.666527
     39          1           0       -2.424851   -1.798178   -4.053640
     40          6           0       -2.506027    0.268882   -3.971421
     41          1           0       -1.990351    0.971742   -4.633035
     42          6           0       -1.648685   -0.018023   -2.725817
     43          6           0       -3.886860    0.860704   -3.586391
     44          1           0       -3.676736    1.808567   -3.074015
     45          8           0       -1.416193   -1.182162   -2.382472
     46          6           0       -4.718882    1.168135   -4.835080
     47          1           0       -4.981623    0.244730   -5.361272
     48          1           0       -4.175054    1.806364   -5.536442
     49          1           0       -5.649575    1.670457   -4.555226
     50          6           0       -4.646067   -0.052331   -2.618072
     51          1           0       -4.859101   -1.019792   -3.085080
     52          1           0       -4.081292   -0.239170   -1.700669
     53          1           0       -5.601556    0.400130   -2.339058
     54          7           0       -1.225751    1.060867   -2.051944
     55          1           0       -1.442207    2.010328   -2.342653
     56          6           0       -0.486821    0.987890   -0.807240
     57          1           0       -0.919108    0.220104   -0.158619
     58          6           0       -0.578001    2.371011   -0.169267
     59          6           0        1.004543    0.625880   -1.062652
     60          1           0        1.415229    1.355684   -1.773178
     61          1           0        1.024631   -0.362575   -1.527789
     62          8           0       -0.912077    3.356220   -0.829971
     63          8           0        1.752369    0.570266    0.130298
     64          1           0        2.063807    1.477755    0.323624
     65          7           0       -0.215213    2.418630    1.132868
     66          1           0        0.238145    1.600780    1.533353
     67          6           0        0.216679    3.661004    1.726142
     68          1           0       -0.510162    4.445439    1.497038
     69          6           0        1.580734    4.064106    1.147096
     70          6           0        0.326651    3.440370    3.263750
     71          1           0        0.871989    4.292954    3.693680
     72          8           0        2.300821    3.287776    0.512180
     73          6           0       -1.052739    3.346538    3.906353
     74          1           0       -1.623120    4.270212    3.764174
     75          1           0       -1.615418    2.518123    3.468415
     76          1           0       -0.942532    3.160337    4.976866
     77          8           0        1.033881    2.239067    3.485962
     78          1           0        1.937138    2.457984    3.809932
     79          7           0        1.965315    5.338905    1.408806
     80          1           0        1.421804    5.869085    2.077191
     81          6           0        3.365152    5.749711    1.245522
     82          1           0        3.694163    5.369507    0.275416
     83          6           0        4.140149    5.066194    2.378183
     84          6           0        3.506647    7.265134    1.304757
     85          1           0        4.562501    7.529419    1.204715
     86          1           0        3.203166    7.613580    2.297693
     87          8           0        4.038738    5.469974    3.546537
     88          6           0        2.724030    7.985458    0.207278
     89          1           0        1.642572    7.887994    0.351681
     90          1           0        2.945727    7.531198   -0.767993
     91          6           0        3.131565    9.456969    0.124023
     92          7           0        2.165790   10.300138   -0.341054
     93          1           0        1.261885    9.975201   -0.641643
     94          1           0        2.409941   11.268328   -0.484671
     95          8           0        4.248181    9.843177    0.435713
     96          7           0        4.839474    3.976946    2.024262
     97          1           0        4.766303    3.594049    1.087497
     98          6           0        5.535985    3.131146    2.978836
     99          1           0        6.023425    3.773454    3.721088
    100          6           0        6.569534    2.346286    2.164433
    101          6           0        4.560527    2.172192    3.711146
    102          1           0        4.098800    1.531558    2.949027
    103          8           0        6.354241    2.075186    0.985548
    104          6           0        5.240194    1.308664    4.765039
    105          1           0        5.915479    0.579492    4.310980
    106          1           0        5.783992    1.934100    5.484213
    107          1           0        4.470527    0.767275    5.319975
    108          8           0        3.500960    2.926468    4.317771
    109          1           0        3.735350    3.877574    4.347124
    110          7           0        7.705687    1.988363    2.809675
    111          1           0        7.729547    2.080443    3.815362
    112          6           0        8.598722    1.008585    2.206375
    113          1           0        8.937574    1.412555    1.247520
    114          6           0        7.827105   -0.303246    1.961941
    115          6           0        9.788896    0.751164    3.130456
    116          1           0       10.481247    0.045029    2.666313
    117          1           0       10.327616    1.679736    3.337456
    118          1           0        9.444609    0.316272    4.074090
    119          8           0        6.997245   -0.710213    2.773387
    120          7           0        8.161993   -0.954605    0.831202
    121          1           0        8.921040   -0.631240    0.244723
    122          6           0        7.590995   -2.230591    0.447273
    123          1           0        7.141864   -2.670619    1.341042
    124          6           0        8.741429   -3.095984   -0.073019
    125          6           0        6.531674   -2.071560   -0.666676
    126          1           0        7.046438   -1.676894   -1.552165
    127          1           0        6.163465   -3.070556   -0.937704
    128          8           0        9.754272   -2.587600   -0.553860
    129          6           0        5.342218   -1.164240   -0.315494
    130          1           0        5.739150   -0.195162    0.009261
    131          6           0        4.492167   -0.920863   -1.568768
    132          1           0        4.058943   -1.859343   -1.938242
    133          1           0        5.085621   -0.482921   -2.379212
    134          1           0        3.669945   -0.241810   -1.332342
    135          6           0        4.482852   -1.735061    0.819356
    136          1           0        4.130101   -2.744751    0.570301
    137          1           0        3.599988   -1.107295    0.972865
    138          1           0        5.038919   -1.779028    1.758862
    139          7           0        8.542332   -4.432229   -0.012262
    140          1           0        7.674027   -4.821621    0.332517
    141          6           0        9.483379   -5.370705   -0.595077
    142          1           0        9.798039   -4.994714   -1.575634
    143          6           0        8.742785   -6.679986   -0.799261
    144          6           0       10.737055   -5.564091    0.274913
    145          1           0       11.429272   -6.261729   -0.200893
    146          1           0       11.226583   -4.596448    0.393077
    147          1           0       10.462381   -5.948813    1.261030
    148          8           0        7.615795   -6.903621   -0.409138
    149          8           0        9.494762   -7.583704   -1.452365
    150          1           0        8.965003   -8.396431   -1.517165
 ---------------------------------------------------------------------

 SCF Done:  E(RB3LYP) =  -3455.97989755     A.U. after    1 cycles

 Alpha  occ. eigenvalues --  -19.27085 -19.25548 -19.21518 -19.20051 -19.19666
 Alpha  occ. eigenvalues --  -19.19477 -19.19044 -19.18577 -19.17894 -19.17889
 Alpha  occ. eigenvalues --  -19.17883 -19.17467 -19.16310 -19.15871 -19.15383
 Alpha  occ. eigenvalues --  -14.58977 -14.49201 -14.44785 -14.43214 -14.42821
 Alpha  occ. eigenvalues --  -14.42032 -14.41929 -14.40985 -14.40824 -14.40250
 Alpha  occ. eigenvalues --  -14.40177 -10.43406 -10.40257 -10.38418 -10.37895
 Alpha  occ. eigenvalues --  -10.36002 -10.35700 -10.34833 -10.34755 -10.34497
 Alpha  occ. eigenvalues --  -10.33806 -10.33310 -10.33302 -10.33296 -10.33021
 Alpha  occ. eigenvalues --  -10.32112 -10.30817 -10.29516 -10.29500 -10.29296
 Alpha  occ. eigenvalues --  -10.29263 -10.29128 -10.29026 -10.28854 -10.28816
 Alpha  occ. eigenvalues --  -10.28799 -10.28742 -10.28321 -10.28145 -10.27288
 Alpha  occ. eigenvalues --  -10.26919 -10.25999 -10.25240 -10.24832 -10.24310
 Alpha  occ. eigenvalues --  -10.24267 -10.24072 -10.24015 -10.22781 -10.22285
 Alpha  occ. eigenvalues --  -10.22034 -10.21213 -10.21107 -10.19806 -10.18662
 Alpha  occ. eigenvalues --   -1.19491  -1.16635  -1.13664  -1.12920  -1.11463
 Alpha  occ. eigenvalues --   -1.10999  -1.10418  -1.09652  -1.09392  -1.08562
 Alpha  occ. eigenvalues --   -1.07683  -1.07423  -1.07351  -1.06883  -1.06147
 Alpha  occ. eigenvalues --   -1.06099  -1.05413  -1.01596  -0.99666  -0.99425
 Alpha  occ. eigenvalues --   -0.98630  -0.98369  -0.98073  -0.97627  -0.96942
 Alpha  occ. eigenvalues --   -0.95090  -0.94749  -0.91019  -0.88538  -0.87798
 Alpha  occ. eigenvalues --   -0.86166  -0.85065  -0.83894  -0.83552  -0.82714
 Alpha  occ. eigenvalues --   -0.82466  -0.81566  -0.81249  -0.80224  -0.79183
 Alpha  occ. eigenvalues --   -0.78903  -0.77960  -0.77696  -0.76620  -0.76165
 Alpha  occ. eigenvalues --   -0.75292  -0.74851  -0.73494  -0.72534  -0.72251
 Alpha  occ. eigenvalues --   -0.71199  -0.70990  -0.70466  -0.70213  -0.69281
 Alpha  occ. eigenvalues --   -0.69243  -0.68766  -0.68184  -0.67340  -0.67210
 Alpha  occ. eigenvalues --   -0.66828  -0.65860  -0.65482  -0.65317  -0.64838
 Alpha  occ. eigenvalues --   -0.64309  -0.63972  -0.63748  -0.63572  -0.63239
 Alpha  occ. eigenvalues --   -0.62936  -0.62629  -0.62547  -0.61157  -0.60513
 Alpha  occ. eigenvalues --   -0.59648  -0.59592  -0.58393  -0.58295  -0.58113
 Alpha  occ. eigenvalues --   -0.57687  -0.57461  -0.57249  -0.57111  -0.56657
 Alpha  occ. eigenvalues --   -0.56412  -0.55989  -0.55589  -0.55582  -0.55463
 Alpha  occ. eigenvalues --   -0.54693  -0.54433  -0.54296  -0.54084  -0.53907
 Alpha  occ. eigenvalues --   -0.53514  -0.52958  -0.52894  -0.52725  -0.52562
 Alpha  occ. eigenvalues --   -0.52259  -0.51778  -0.51518  -0.51329  -0.51261
 Alpha  occ. eigenvalues --   -0.51017  -0.50822  -0.50294  -0.50223  -0.49987
 Alpha  occ. eigenvalues --   -0.49619  -0.49563  -0.49407  -0.49300  -0.49141
 Alpha  occ. eigenvalues --   -0.48966  -0.48498  -0.48310  -0.48071  -0.47852
 Alpha  occ. eigenvalues --   -0.47682  -0.47473  -0.47461  -0.47213  -0.47085
 Alpha  occ. eigenvalues --   -0.47041  -0.46557  -0.46240  -0.46091  -0.45817
 Alpha  occ. eigenvalues --   -0.45590  -0.45575  -0.45485  -0.45209  -0.45141
 Alpha  occ. eigenvalues --   -0.45052  -0.44983  -0.44884  -0.44787  -0.44626
 Alpha  occ. eigenvalues --   -0.44496  -0.44276  -0.44155  -0.44013  -0.43816
 Alpha  occ. eigenvalues --   -0.43771  -0.43500  -0.43379  -0.43044  -0.42940
 Alpha  occ. eigenvalues --   -0.42482  -0.42205  -0.42136  -0.42122  -0.41941
 Alpha  occ. eigenvalues --   -0.41737  -0.41526  -0.41459  -0.41364  -0.41195
 Alpha  occ. eigenvalues --   -0.41180  -0.40953  -0.40809  -0.40624  -0.40568
 Alpha  occ. eigenvalues --   -0.40471  -0.40399  -0.40216  -0.39443  -0.39105
 Alpha  occ. eigenvalues --   -0.38652  -0.38621  -0.37779  -0.37716  -0.36563
 Alpha  occ. eigenvalues --   -0.35658  -0.35368  -0.34913  -0.34876  -0.34744
 Alpha  occ. eigenvalues --   -0.34500  -0.34300  -0.33642  -0.33537  -0.33081
 Alpha  occ. eigenvalues --   -0.32923  -0.32554  -0.32181  -0.31997  -0.31569
 Alpha  occ. eigenvalues --   -0.31135  -0.31079  -0.30849  -0.30454  -0.30420
 Alpha  occ. eigenvalues --   -0.30281  -0.30042  -0.29350  -0.29276  -0.28978
 Alpha virt. eigenvalues --   -0.12042  -0.10898  -0.07389  -0.06325  -0.05618
 Alpha virt. eigenvalues --   -0.04948  -0.04826  -0.04670  -0.03819  -0.03707
 Alpha virt. eigenvalues --   -0.03464  -0.02237  -0.01895  -0.01554  -0.01436

 Mulliken charges:
               1
     1  N   -0.559189
     2  H    0.348634
     3  H    0.342464
     4  H    0.376987
     5  C   -0.096942
     6  H    0.176295
     7  C    0.639943
     8  C   -0.195772
     9  H    0.156362
    10  H    0.128009
    11  O   -0.547655
    12  C   -0.083530
    13  H    0.075653
    14  C   -0.314556
    15  H    0.127452
    16  H    0.116334
    17  H    0.131314
    18  C   -0.318421
    19  H    0.129389
    20  H    0.087564
    21  H    0.140637
    22  N   -0.505994
    23  H    0.301061
    24  C   -0.032605
    25  H    0.143600
    26  C    0.611579
    27  C   -0.052121
    28  H    0.109087
    29  O   -0.558318
    30  C   -0.338221
    31  H    0.113581
    32  H    0.134628
    33  H    0.124894
    34  C   -0.311448
    35  H    0.123482
    36  H    0.124822
    37  H    0.085480
    38  N   -0.511294
    39  H    0.294801
    40  C   -0.031567
    41  H    0.142471
    42  C    0.619547
    43  C   -0.052963
    44  H    0.107238
    45  O   -0.556642
    46  C   -0.307229
    47  H    0.092856
    48  H    0.116439
    49  H    0.110188
    50  C   -0.326733
    51  H    0.102602
    52  H    0.124940
    53  H    0.116217
    54  N   -0.536407
    55  H    0.287666
    56  C   -0.025997
    57  H    0.146267
    58  C    0.589492
    59  C    0.071390
    60  H    0.099911
    61  H    0.132236
    62  O   -0.551496
    63  O   -0.560229
    64  H    0.350783
    65  N   -0.517523
    66  H    0.295422
    67  C   -0.028853
    68  H    0.137196
    69  C    0.635779
    70  C    0.139400
    71  H    0.084677
    72  O   -0.559751
    73  C   -0.301761
    74  H    0.094160
    75  H    0.123279
    76  H    0.124955
    77  O   -0.588799
    78  H    0.370078
    79  N   -0.513693
    80  H    0.274250
    81  C   -0.019485
    82  H    0.132468
    83  C    0.618682
    84  C   -0.197769
    85  H    0.154834
    86  H    0.131834
    87  O   -0.576576
    88  C   -0.269362
    89  H    0.100412
    90  H    0.137360
    91  C    0.580219
    92  N   -0.611213
    93  H    0.269359
    94  H    0.283697
    95  O   -0.499138
    96  N   -0.506327
    97  H    0.300339
    98  C   -0.071944
    99  H    0.135566
   100  C    0.623933
   101  C    0.212883
   102  H    0.119558
   103  O   -0.531202
   104  C   -0.357052
   105  H    0.156972
   106  H    0.090071
   107  H    0.129325
   108  O   -0.602936
   109  H    0.345787
   110  N   -0.511944
   111  H    0.272924
   112  C   -0.009860
   113  H    0.130380
   114  C    0.630634
   115  C   -0.345196
   116  H    0.134885
   117  H    0.129013
   118  H    0.131190
   119  O   -0.535179
   120  N   -0.508061
   121  H    0.278300
   122  C   -0.041000
   123  H    0.139057
   124  C    0.609231
   125  C   -0.146147
   126  H    0.095556
   127  H    0.088831
   128  O   -0.546333
   129  C   -0.068635
   130  H    0.125926
   131  C   -0.324352
   132  H    0.083521
   133  H    0.086677
   134  H    0.121372
   135  C   -0.344715
   136  H    0.078001
   137  H    0.126586
   138  H    0.126216
   139  N   -0.536321
   140  H    0.285303
   141  C    0.015053
   142  H    0.158095
   143  C    0.579034
   144  C   -0.316247
   145  H    0.130746
   146  H    0.149664
   147  H    0.115987
   148  O   -0.472513
   149  O   -0.476613
   150  H    0.332863
 Sum of Mulliken charges =   1.00000

 Dipole moment (field-independent basis, Debye):
    X=            -13.7694    Y=             -9.3501    Z=            -38.4579  Tot=             41.9050
 Quadrupole moment (field-independent basis, Debye-Ang):
   XX=           -251.5399   YY=           -308.7728   ZZ=             -2.3834
   XY=              6.4678   XZ=            208.1110   YZ=            130.7857

 Normal termination of Gaussian 16 at Thu Sep  8 14:44:14 2022.
