 Gaussian 16, Revision C.01,
 Gaussian 16:  ES64L-G16RevC.01  3-Jul-2019

 ----------------------------------------------------------------------
 # B3LYP/6-31G** empiricaldispersion=gd3bj guess=read geom=check nosymm
  integral(ultrafinegrid)
 ----------------------------------------------------------------------

 ------------------------------------------------------
 Candidate Structure: Conf:727 Charge calc in gas phase
 ------------------------------------------------------
 Structure from the checkpoint file:  "conf-727.chk"
 Charge =  1 Multiplicity = 1

                          Input orientation:
 ---------------------------------------------------------------------
 Center     Atomic      Atomic             Coordinates (Angstroms)
 Number     Number       Type             X           Y           Z
 ---------------------------------------------------------------------
      1          7           0       -8.622009   -7.234337   -4.559097
      2          1           0       -8.981037   -7.746775   -5.365453
      3          1           0       -9.222822   -7.426693   -3.755713
      4          1           0       -7.594277   -7.506643   -4.369196
      5          6           0       -8.445631   -5.754856   -4.812878
      6          1           0       -8.860510   -5.521866   -5.794674
      7          6           0       -6.902722   -5.613633   -4.817874
      8          6           0       -9.103891   -4.917559   -3.711919
      9          1           0       -8.847164   -3.869062   -3.900721
     10          1           0       -8.632808   -5.174454   -2.753962
     11          8           0       -6.242307   -6.616282   -4.492504
     12          6           0      -10.635263   -5.048596   -3.606183
     13          1           0      -10.888380   -6.099171   -3.384086
     14          6           0      -11.132908   -4.204605   -2.425855
     15          1           0      -10.926938   -3.142660   -2.597362
     16          1           0      -10.647875   -4.495800   -1.489139
     17          1           0      -12.212005   -4.319068   -2.296998
     18          6           0      -11.342917   -4.652280   -4.907258
     19          1           0      -11.095940   -3.621574   -5.184571
     20          1           0      -11.080632   -5.299899   -5.751394
     21          1           0      -12.427325   -4.711098   -4.785759
     22          7           0       -6.420810   -4.429660   -5.153182
     23          1           0       -7.030821   -3.620504   -5.279941
     24          6           0       -5.022509   -4.017681   -5.020754
     25          1           0       -4.532140   -4.688104   -4.308520
     26          6           0       -5.135348   -2.584292   -4.462510
     27          6           0       -4.272259   -4.064223   -6.380447
     28          1           0       -4.740168   -3.308751   -7.025725
     29          8           0       -6.160954   -1.932229   -4.685762
     30          6           0       -2.786296   -3.719427   -6.211414
     31          1           0       -2.297637   -4.421723   -5.525407
     32          1           0       -2.617301   -2.707728   -5.838727
     33          1           0       -2.277072   -3.802468   -7.174894
     34          6           0       -4.428345   -5.439023   -7.041376
     35          1           0       -4.028628   -6.231570   -6.400985
     36          1           0       -3.882443   -5.460276   -7.988173
     37          1           0       -5.473932   -5.671839   -7.258888
     38          7           0       -4.093541   -2.136185   -3.747089
     39          1           0       -3.231895   -2.669207   -3.694578
     40          6           0       -3.958365   -0.751920   -3.309761
     41          1           0       -4.693657   -0.155206   -3.857395
     42          6           0       -2.527823   -0.350312   -3.679360
     43          6           0       -4.211634   -0.608081   -1.783062
     44          1           0       -3.458531   -1.230959   -1.281767
     45          8           0       -1.627812   -1.193370   -3.692273
     46          6           0       -4.041398    0.840880   -1.307025
     47          1           0       -4.707101    1.516172   -1.859513
     48          1           0       -3.016860    1.206257   -1.405066
     49          1           0       -4.313752    0.917740   -0.251040
     50          6           0       -5.604943   -1.137616   -1.425999
     51          1           0       -6.383797   -0.563275   -1.938068
     52          1           0       -5.721233   -2.187634   -1.705574
     53          1           0       -5.772682   -1.054934   -0.348539
     54          7           0       -2.315592    0.950495   -3.978799
     55          1           0       -3.036459    1.641703   -3.812158
     56          6           0       -0.959709    1.467266   -4.101116
     57          1           0       -0.406849    0.845281   -4.809892
     58          6           0       -0.280446    1.454373   -2.726657
     59          6           0       -1.026132    2.918183   -4.601175
     60          1           0       -1.445892    2.943735   -5.610138
     61          1           0       -0.007719    3.327296   -4.640603
     62          8           0       -0.679745    2.235225   -1.835338
     63          8           0       -1.876092    3.697674   -3.768574
     64          1           0       -1.609174    3.477021   -2.850112
     65          7           0        0.736361    0.613488   -2.549963
     66          1           0        1.036238   -0.026678   -3.277464
     67          6           0        1.506280    0.551109   -1.310720
     68          1           0        0.823438    0.721144   -0.473236
     69          6           0        2.563841    1.668764   -1.347352
     70          6           0        2.165949   -0.836406   -1.215823
     71          1           0        2.874201   -0.805320   -0.377719
     72          8           0        3.750554    1.427002   -1.619470
     73          6           0        1.142716   -1.940527   -0.997155
     74          1           0        0.642228   -1.813399   -0.032402
     75          1           0        0.384556   -1.939682   -1.786603
     76          1           0        1.648223   -2.908487   -1.003174
     77          8           0        2.843618   -1.096870   -2.441731
     78          1           0        3.571160   -0.450402   -2.466458
     79          7           0        2.082782    2.896422   -1.099000
     80          1           0        1.094597    2.974993   -0.882643
     81          6           0        2.906754    4.114213   -1.044487
     82          1           0        3.672141    4.017245   -1.820864
     83          6           0        3.555500    4.092278    0.357594
     84          6           0        2.042510    5.345795   -1.280633
     85          1           0        2.679914    6.232742   -1.302429
     86          1           0        1.373407    5.473893   -0.423604
     87          8           0        3.014651    4.598554    1.332969
     88          6           0        1.251493    5.274476   -2.588943
     89          1           0        0.503477    4.478075   -2.554726
     90          1           0        1.929866    5.035303   -3.419788
     91          6           0        0.588635    6.610574   -2.925070
     92          7           0       -0.609296    6.512572   -3.567330
     93          1           0       -1.106135    5.637599   -3.685601
     94          1           0       -1.076362    7.376454   -3.799085
     95          8           0        1.124578    7.679297   -2.668050
     96          7           0        4.677422    3.334911    0.400493
     97          1           0        5.114459    3.014404   -0.455752
     98          6           0        5.270687    2.821213    1.614225
     99          1           0        5.126979    3.548356    2.418948
    100          6           0        6.759432    2.600992    1.316830
    101          6           0        4.625349    1.463243    2.025028
    102          1           0        5.166147    1.102032    2.908103
    103          8           0        7.177711    2.542772    0.162229
    104          6           0        3.143470    1.585123    2.375205
    105          1           0        2.975630    2.313458    3.172683
    106          1           0        2.559759    1.909212    1.510231
    107          1           0        2.773244    0.607705    2.696590
    108          8           0        4.844553    0.476969    1.024526
    109          1           0        4.621741    0.855377    0.157275
    110          7           0        7.546191    2.437180    2.401489
    111          1           0        7.183991    2.458916    3.347730
    112          6           0        8.943520    2.071764    2.287366
    113          1           0        9.041058    1.313754    1.501881
    114          6           0        9.354780    1.486430    3.639912
    115          6           0        9.825603    3.281318    1.929925
    116          1           0       10.873872    2.990421    1.813983
    117          1           0        9.475010    3.705586    0.987796
    118          1           0        9.760332    4.040709    2.714119
    119          8           0        8.665577    1.672170    4.650143
    120          7           0       10.515533    0.798316    3.656283
    121          1           0       11.075828    0.753529    2.816701
    122          6           0       11.104198    0.291096    4.900115
    123          1           0       10.261129   -0.005536    5.527879
    124          6           0       11.860324    1.439384    5.598684
    125          6           0       12.001800   -0.908768    4.616758
    126          1           0       11.393471   -1.665148    4.104083
    127          1           0       12.797436   -0.599194    3.928598
    128          8           0       13.077712    1.567305    5.530385
    129          6           0       12.652782   -1.529575    5.867586
    130          1           0       13.383530   -0.805546    6.241992
    131          6           0       11.638604   -1.806202    6.985533
    132          1           0       10.810374   -2.430470    6.627313
    133          1           0       11.218992   -0.882816    7.397557
    134          1           0       12.118697   -2.338370    7.812647
    135          6           0       13.399669   -2.808546    5.473687
    136          1           0       12.703361   -3.575366    5.112794
    137          1           0       13.940077   -3.225843    6.328925
    138          1           0       14.127923   -2.616450    4.678719
    139          7           0       11.038714    2.297209    6.258513
    140          1           0       10.037782    2.153556    6.176487
    141          6           0       11.541536    3.444683    6.982027
    142          1           0       12.618909    3.468974    6.776897
    143          6           0       11.414540    3.273390    8.496278
    144          6           0       10.892565    4.750081    6.521106
    145          1           0       11.267096    5.586705    7.112181
    146          1           0       11.116448    4.920767    5.465521
    147          1           0        9.805578    4.709005    6.644558
    148          8           0       11.356905    4.191215    9.283379
    149          8           0       11.414676    1.976467    8.878409
    150          1           0       11.385030    1.986784    9.850177
 ---------------------------------------------------------------------

 SCF Done:  E(RB3LYP) =  -3455.96635974     A.U. after    1 cycles

 Alpha  occ. eigenvalues --  -19.28060 -19.23587 -19.23015 -19.22932 -19.22091
 Alpha  occ. eigenvalues --  -19.22067 -19.20296 -19.19971 -19.18012 -19.17844
 Alpha  occ. eigenvalues --  -19.17052 -19.15924 -19.15789 -19.14906 -19.14415
 Alpha  occ. eigenvalues --  -14.60009 -14.50342 -14.46793 -14.46244 -14.45860
 Alpha  occ. eigenvalues --  -14.43589 -14.41994 -14.40225 -14.39899 -14.39038
 Alpha  occ. eigenvalues --  -14.38761 -10.44459 -10.41211 -10.40041 -10.38840
 Alpha  occ. eigenvalues --  -10.38617 -10.36594 -10.35204 -10.35066 -10.34547
 Alpha  occ. eigenvalues --  -10.34189 -10.33197 -10.33068 -10.33065 -10.33011
 Alpha  occ. eigenvalues --  -10.32888 -10.32854 -10.32368 -10.31894 -10.30901
 Alpha  occ. eigenvalues --  -10.30432 -10.30246 -10.29744 -10.28962 -10.28845
 Alpha  occ. eigenvalues --  -10.28709 -10.28446 -10.28409 -10.27512 -10.27266
 Alpha  occ. eigenvalues --  -10.27170 -10.27086 -10.26927 -10.25915 -10.25706
 Alpha  occ. eigenvalues --  -10.24280 -10.23772 -10.23532 -10.22785 -10.22165
 Alpha  occ. eigenvalues --  -10.21695 -10.21587 -10.21525 -10.20160 -10.19981
 Alpha  occ. eigenvalues --   -1.20475  -1.15257  -1.14464  -1.14019  -1.13801
 Alpha  occ. eigenvalues --   -1.13453  -1.11682  -1.10574  -1.09748  -1.08387
 Alpha  occ. eigenvalues --   -1.07952  -1.07428  -1.07280  -1.06753  -1.06329
 Alpha  occ. eigenvalues --   -1.05514  -1.04666  -1.03530  -1.02601  -1.01997
 Alpha  occ. eigenvalues --   -0.99940  -0.98282  -0.97129  -0.96593  -0.95990
 Alpha  occ. eigenvalues --   -0.95979  -0.93528  -0.92289  -0.89983  -0.89259
 Alpha  occ. eigenvalues --   -0.87101  -0.85334  -0.85029  -0.83958  -0.83643
 Alpha  occ. eigenvalues --   -0.83003  -0.81422  -0.81296  -0.80552  -0.80373
 Alpha  occ. eigenvalues --   -0.79484  -0.79174  -0.78063  -0.77577  -0.77199
 Alpha  occ. eigenvalues --   -0.76861  -0.75077  -0.74502  -0.73793  -0.73399
 Alpha  occ. eigenvalues --   -0.72208  -0.71318  -0.70951  -0.70752  -0.70654
 Alpha  occ. eigenvalues --   -0.70025  -0.69320  -0.68737  -0.68528  -0.68510
 Alpha  occ. eigenvalues --   -0.67843  -0.67400  -0.67142  -0.66093  -0.65570
 Alpha  occ. eigenvalues --   -0.65369  -0.64696  -0.64014  -0.63357  -0.62933
 Alpha  occ. eigenvalues --   -0.62729  -0.62243  -0.61938  -0.61686  -0.61075
 Alpha  occ. eigenvalues --   -0.60665  -0.60327  -0.59849  -0.59623  -0.59344
 Alpha  occ. eigenvalues --   -0.58778  -0.58577  -0.58199  -0.58027  -0.57712
 Alpha  occ. eigenvalues --   -0.57005  -0.56700  -0.56571  -0.55898  -0.55760
 Alpha  occ. eigenvalues --   -0.55509  -0.55278  -0.55074  -0.54297  -0.54138
 Alpha  occ. eigenvalues --   -0.54044  -0.53862  -0.53504  -0.52794  -0.52589
 Alpha  occ. eigenvalues --   -0.52374  -0.52221  -0.52191  -0.52141  -0.51804
 Alpha  occ. eigenvalues --   -0.51713  -0.51411  -0.51190  -0.50824  -0.50740
 Alpha  occ. eigenvalues --   -0.50710  -0.50338  -0.50319  -0.49788  -0.49540
 Alpha  occ. eigenvalues --   -0.49511  -0.49421  -0.49234  -0.49163  -0.48777
 Alpha  occ. eigenvalues --   -0.48736  -0.48653  -0.48084  -0.47832  -0.47726
 Alpha  occ. eigenvalues --   -0.47622  -0.47421  -0.47147  -0.46738  -0.46575
 Alpha  occ. eigenvalues --   -0.46433  -0.46391  -0.46148  -0.45927  -0.45804
 Alpha  occ. eigenvalues --   -0.45641  -0.45558  -0.45249  -0.44862  -0.44734
 Alpha  occ. eigenvalues --   -0.44661  -0.44517  -0.44458  -0.44295  -0.44080
 Alpha  occ. eigenvalues --   -0.43859  -0.43816  -0.43608  -0.43480  -0.43439
 Alpha  occ. eigenvalues --   -0.43196  -0.43020  -0.42832  -0.42448  -0.42377
 Alpha  occ. eigenvalues --   -0.42249  -0.42048  -0.41966  -0.41923  -0.41651
 Alpha  occ. eigenvalues --   -0.41563  -0.41015  -0.40850  -0.40667  -0.40614
 Alpha  occ. eigenvalues --   -0.40017  -0.39983  -0.39858  -0.39727  -0.39522
 Alpha  occ. eigenvalues --   -0.39342  -0.39178  -0.38767  -0.38081  -0.37391
 Alpha  occ. eigenvalues --   -0.36925  -0.36635  -0.36483  -0.36300  -0.36020
 Alpha  occ. eigenvalues --   -0.35578  -0.35232  -0.35149  -0.34946  -0.34539
 Alpha  occ. eigenvalues --   -0.34302  -0.33895  -0.32760  -0.32279  -0.31959
 Alpha  occ. eigenvalues --   -0.31708  -0.31553  -0.30411  -0.30092  -0.29949
 Alpha  occ. eigenvalues --   -0.29002  -0.28522  -0.28282  -0.27903  -0.27804
 Alpha virt. eigenvalues --   -0.13066  -0.11772  -0.09071  -0.08723  -0.07718
 Alpha virt. eigenvalues --   -0.07179  -0.05955  -0.04723  -0.03885  -0.02813
 Alpha virt. eigenvalues --   -0.02497  -0.02366  -0.01954  -0.01641  -0.01418

 Mulliken charges:
               1
     1  N   -0.556818
     2  H    0.350922
     3  H    0.344282
     4  H    0.376075
     5  C   -0.097062
     6  H    0.177871
     7  C    0.639835
     8  C   -0.195818
     9  H    0.154695
    10  H    0.128747
    11  O   -0.545400
    12  C   -0.084950
    13  H    0.077158
    14  C   -0.314708
    15  H    0.127141
    16  H    0.116850
    17  H    0.133595
    18  C   -0.318619
    19  H    0.129254
    20  H    0.087466
    21  H    0.143048
    22  N   -0.507833
    23  H    0.301610
    24  C   -0.032511
    25  H    0.144477
    26  C    0.614297
    27  C   -0.051674
    28  H    0.110640
    29  O   -0.553026
    30  C   -0.339212
    31  H    0.115315
    32  H    0.124757
    33  H    0.129465
    34  C   -0.312132
    35  H    0.125533
    36  H    0.127458
    37  H    0.088197
    38  N   -0.517833
    39  H    0.291772
    40  C   -0.023659
    41  H    0.141584
    42  C    0.621484
    43  C   -0.047038
    44  H    0.106212
    45  O   -0.547920
    46  C   -0.351319
    47  H    0.105465
    48  H    0.132491
    49  H    0.125410
    50  C   -0.309608
    51  H    0.118522
    52  H    0.092584
    53  H    0.116670
    54  N   -0.508182
    55  H    0.285899
    56  C   -0.048465
    57  H    0.136604
    58  C    0.655936
    59  C    0.039646
    60  H    0.133903
    61  H    0.120438
    62  O   -0.592264
    63  O   -0.561903
    64  H    0.347535
    65  N   -0.489420
    66  H    0.297742
    67  C   -0.040516
    68  H    0.143058
    69  C    0.625355
    70  C    0.131091
    71  H    0.127575
    72  O   -0.566322
    73  C   -0.329397
    74  H    0.105029
    75  H    0.120577
    76  H    0.131676
    77  O   -0.561557
    78  H    0.332044
    79  N   -0.513091
    80  H    0.300355
    81  C   -0.028833
    82  H    0.129760
    83  C    0.614608
    84  C   -0.198051
    85  H    0.157185
    86  H    0.134583
    87  O   -0.528046
    88  C   -0.275139
    89  H    0.079039
    90  H    0.127375
    91  C    0.574233
    92  N   -0.637625
    93  H    0.287167
    94  H    0.274108
    95  O   -0.503985
    96  N   -0.528402
    97  H    0.292460
    98  C   -0.054699
    99  H    0.138516
   100  C    0.633683
   101  C    0.189971
   102  H    0.102321
   103  O   -0.543562
   104  C   -0.317425
   105  H    0.122167
   106  H    0.091103
   107  H    0.105668
   108  O   -0.569281
   109  H    0.325154
   110  N   -0.539435
   111  H    0.283128
   112  C    0.001008
   113  H    0.142506
   114  C    0.610339
   115  C   -0.312259
   116  H    0.105991
   117  H    0.153570
   118  H    0.122087
   119  O   -0.561327
   120  N   -0.530269
   121  H    0.273345
   122  C   -0.030890
   123  H    0.139537
   124  C    0.621090
   125  C   -0.173342
   126  H    0.094156
   127  H    0.106778
   128  O   -0.525707
   129  C   -0.068458
   130  H    0.128878
   131  C   -0.323800
   132  H    0.095771
   133  H    0.111530
   134  H    0.104314
   135  C   -0.313169
   136  H    0.095842
   137  H    0.104042
   138  H    0.102598
   139  N   -0.524303
   140  H    0.288156
   141  C   -0.026870
   142  H    0.177336
   143  C    0.593258
   144  C   -0.312387
   145  H    0.143551
   146  H    0.112852
   147  H    0.112895
   148  O   -0.462675
   149  O   -0.477678
   150  H    0.326873
 Sum of Mulliken charges =   1.00000

 Dipole moment (field-independent basis, Debye):
    X=            -36.9359    Y=            -28.6364    Z=            -21.7907  Tot=             51.5669
 Quadrupole moment (field-independent basis, Debye-Ang):
   XX=            -87.1614   YY=           -305.1967   ZZ=           -302.9355
   XY=            196.5176   XZ=            166.6343   YZ=             95.7179

 Normal termination of Gaussian 16 at Thu Sep  8 14:46:32 2022.
