 Gaussian 16, Revision C.01,
 Gaussian 16:  ES64L-G16RevC.01  3-Jul-2019

 ----------------------------------------------------------------------
 # B3LYP/6-31G** empiricaldispersion=gd3bj guess=read geom=check nosymm
  integral(ultrafinegrid)
 ----------------------------------------------------------------------

 ------------------------------------------------------
 Candidate Structure: Conf:684 Charge calc in gas phase
 ------------------------------------------------------
 Structure from the checkpoint file:  "conf-684.chk"
 Charge =  1 Multiplicity = 1

                          Input orientation:
 ---------------------------------------------------------------------
 Center     Atomic      Atomic             Coordinates (Angstroms)
 Number     Number       Type             X           Y           Z
 ---------------------------------------------------------------------
      1          7           0       -8.446223   -1.193319   -6.936657
      2          1           0       -8.612622   -1.093713   -7.939157
      3          1           0       -8.929938   -0.439739   -6.444377
      4          1           0       -8.772179   -2.158099   -6.615518
      5          6           0       -6.979999   -1.267571   -6.572001
      6          1           0       -6.384672   -0.907743   -7.411864
      7          6           0       -6.777806   -2.776926   -6.316193
      8          6           0       -6.704213   -0.463904   -5.296157
      9          1           0       -5.664637   -0.657958   -5.031346
     10          1           0       -7.291008   -0.896758   -4.478091
     11          8           0       -7.795579   -3.468321   -6.176462
     12          6           0       -6.936317    1.055075   -5.390352
     13          1           0       -8.014131    1.245378   -5.536052
     14          6           0       -6.546839    1.698478   -4.050642
     15          1           0       -5.477985    1.577017   -3.841147
     16          1           0       -7.101599    1.251408   -3.220075
     17          1           0       -6.762927    2.769855   -4.061870
     18          6           0       -6.181878    1.697686   -6.560726
     19          1           0       -5.109818    1.485588   -6.501038
     20          1           0       -6.535867    1.348642   -7.537665
     21          1           0       -6.306188    2.783240   -6.545141
     22          7           0       -5.514377   -3.201982   -6.242164
     23          1           0       -4.791701   -2.477489   -6.251135
     24          6           0       -5.176122   -4.403476   -5.470228
     25          1           0       -6.104358   -4.971342   -5.358001
     26          6           0       -4.807380   -3.866964   -4.066382
     27          6           0       -4.135957   -5.276816   -6.196367
     28          1           0       -3.869086   -6.086882   -5.503588
     29          8           0       -5.431157   -2.894044   -3.623388
     30          6           0       -4.764513   -5.930067   -7.432861
     31          1           0       -5.097202   -5.166399   -8.142895
     32          1           0       -5.629371   -6.543827   -7.164866
     33          1           0       -4.038845   -6.570035   -7.941413
     34          6           0       -2.862806   -4.503607   -6.574197
     35          1           0       -3.076976   -3.800896   -7.387068
     36          1           0       -2.094494   -5.189947   -6.937970
     37          1           0       -2.445206   -3.943348   -5.732079
     38          7           0       -3.788340   -4.435029   -3.395196
     39          1           0       -3.245193   -5.163349   -3.834316
     40          6           0       -3.227949   -3.805321   -2.187049
     41          1           0       -4.073967   -3.331648   -1.679589
     42          6           0       -2.256358   -2.696231   -2.670230
     43          6           0       -2.557490   -4.815153   -1.244918
     44          1           0       -1.589395   -5.085739   -1.683865
     45          8           0       -1.044883   -2.719984   -2.459754
     46          6           0       -2.300122   -4.158783    0.118978
     47          1           0       -3.249629   -3.912749    0.609128
     48          1           0       -1.705587   -3.247728    0.048833
     49          1           0       -1.762459   -4.851932    0.771292
     50          6           0       -3.412461   -6.076729   -1.069884
     51          1           0       -4.406304   -5.826484   -0.682470
     52          1           0       -3.549933   -6.632428   -2.002007
     53          1           0       -2.935590   -6.750521   -0.353366
     54          7           0       -2.860257   -1.736673   -3.419517
     55          1           0       -3.875544   -1.724707   -3.441214
     56          6           0       -2.121844   -0.684787   -4.105015
     57          1           0       -1.167788   -1.112253   -4.430927
     58          6           0       -1.887604    0.447468   -3.083111
     59          6           0       -2.916800   -0.155789   -5.292665
     60          1           0       -2.317810    0.588745   -5.828170
     61          1           0       -3.806837    0.350052   -4.920232
     62          8           0       -2.750349    1.297237   -2.870662
     63          8           0       -3.368523   -1.180986   -6.189819
     64          1           0       -2.594548   -1.587207   -6.602445
     65          7           0       -0.734698    0.297607   -2.408133
     66          1           0       -0.043961   -0.373167   -2.727790
     67          6           0       -0.379711    0.950693   -1.167635
     68          1           0       -0.769450    1.973185   -1.160997
     69          6           0        1.157899    0.927184   -1.113991
     70          6           0       -0.941960    0.151171    0.045912
     71          1           0       -0.598773    0.649556    0.959954
     72          8           0        1.803658    0.289278   -1.948273
     73          6           0       -2.466474    0.080070    0.074382
     74          1           0       -2.916868    1.075866    0.057944
     75          1           0       -2.851317   -0.470897   -0.787421
     76          1           0       -2.779960   -0.442148    0.981618
     77          8           0       -0.349488   -1.136792    0.085683
     78          1           0       -0.527426   -1.593995   -0.754088
     79          7           0        1.731003    1.599604   -0.095896
     80          1           0        1.151169    2.019508    0.616702
     81          6           0        3.162375    1.468871    0.195624
     82          1           0        3.686341    1.511696   -0.763623
     83          6           0        3.417803    0.098314    0.858605
     84          6           0        3.614880    2.597012    1.116713
     85          1           0        3.097715    2.477320    2.074968
     86          1           0        3.330910    3.563457    0.692228
     87          8           0        3.426784   -0.024442    2.086275
     88          6           0        5.127683    2.577769    1.368026
     89          1           0        5.661812    2.805856    0.437732
     90          1           0        5.446100    1.594809    1.717798
     91          6           0        5.490689    3.654445    2.388014
     92          7           0        6.188643    3.207472    3.470638
     93          1           0        6.277665    2.213364    3.660185
     94          1           0        6.325740    3.866801    4.222466
     95          8           0        5.167475    4.825607    2.230727
     96          7           0        3.646836   -0.929022    0.016441
     97          1           0        3.557193   -0.804425   -0.985600
     98          6           0        3.905075   -2.276827    0.511326
     99          1           0        3.365629   -2.391745    1.457035
    100          6           0        5.421069   -2.416635    0.774509
    101          6           0        3.435101   -3.320255   -0.516171
    102          1           0        3.698974   -4.305807   -0.105342
    103          8           0        6.134335   -3.169958    0.100979
    104          6           0        1.939081   -3.257201   -0.779015
    105          1           0        1.369356   -3.377974    0.146479
    106          1           0        1.671996   -2.295757   -1.219920
    107          1           0        1.654936   -4.045001   -1.480614
    108          8           0        4.100965   -3.104233   -1.754391
    109          1           0        5.040955   -3.253598   -1.545705
    110          7           0        5.898820   -1.616335    1.749409
    111          1           0        5.262161   -0.998921    2.254083
    112          6           0        7.320693   -1.407071    1.960357
    113          1           0        7.797472   -2.355907    2.234502
    114          6           0        7.466114   -0.400337    3.103269
    115          6           0        8.016616   -0.840017    0.706394
    116          1           0        9.086325   -0.703024    0.884169
    117          1           0        7.881747   -1.532602   -0.123938
    118          1           0        7.579077    0.127922    0.444538
    119          8           0        6.510471    0.300342    3.463151
    120          7           0        8.697076   -0.279187    3.623372
    121          1           0        9.473439   -0.864380    3.332346
    122          6           0        9.049910    0.776841    4.558672
    123          1           0        8.576169    1.702968    4.219373
    124          6           0       10.573878    0.907793    4.477770
    125          6           0        8.570502    0.433912    5.987743
    126          1           0        7.510612    0.171383    5.900840
    127          1           0        9.102453   -0.468876    6.309374
    128          8           0       11.271245   -0.031243    4.094772
    129          6           0        8.725093    1.536242    7.049005
    130          1           0        9.787880    1.788040    7.149613
    131          6           0        7.961317    2.815023    6.675403
    132          1           0        6.896506    2.598637    6.528722
    133          1           0        8.330697    3.280171    5.754153
    134          1           0        8.044638    3.562865    7.469401
    135          6           0        8.243097    1.006643    8.405511
    136          1           0        7.179281    0.745572    8.366290
    137          1           0        8.374082    1.758272    9.190053
    138          1           0        8.796964    0.110135    8.701372
    139          7           0       11.084975    2.096003    4.871043
    140          1           0       10.471268    2.828179    5.195066
    141          6           0       12.522268    2.307391    4.967164
    142          1           0       12.969695    1.350948    5.259217
    143          6           0       12.872803    3.304471    6.061345
    144          6           0       13.145507    2.740148    3.632327
    145          1           0       14.219846    2.887977    3.755288
    146          1           0       12.968853    1.959442    2.890565
    147          1           0       12.697510    3.673922    3.280585
    148          8           0       13.999649    3.658857    6.308487
    149          8           0       11.787396    3.773448    6.729189
    150          1           0       12.122892    4.402659    7.390477
 ---------------------------------------------------------------------

 SCF Done:  E(RB3LYP) =  -3455.97601159     A.U. after    1 cycles

 Alpha  occ. eigenvalues --  -19.28611 -19.27063 -19.25802 -19.23285 -19.22042
 Alpha  occ. eigenvalues --  -19.20784 -19.19951 -19.19317 -19.19257 -19.17970
 Alpha  occ. eigenvalues --  -19.17506 -19.16933 -19.16487 -19.16464 -19.13408
 Alpha  occ. eigenvalues --  -14.59440 -14.48999 -14.47897 -14.45869 -14.43742
 Alpha  occ. eigenvalues --  -14.43441 -14.41965 -14.41605 -14.40728 -14.39805
 Alpha  occ. eigenvalues --  -14.37500 -10.43410 -10.40507 -10.39967 -10.38826
 Alpha  occ. eigenvalues --  -10.37673 -10.37214 -10.36215 -10.35106 -10.34884
 Alpha  occ. eigenvalues --  -10.34720 -10.34501 -10.33453 -10.33289 -10.33153
 Alpha  occ. eigenvalues --  -10.32940 -10.32223 -10.31594 -10.31280 -10.31215
 Alpha  occ. eigenvalues --  -10.31162 -10.30798 -10.29434 -10.28949 -10.28835
 Alpha  occ. eigenvalues --  -10.28795 -10.28767 -10.28573 -10.27611 -10.27550
 Alpha  occ. eigenvalues --  -10.27513 -10.27286 -10.27163 -10.25348 -10.24234
 Alpha  occ. eigenvalues --  -10.24176 -10.23872 -10.23542 -10.23461 -10.22831
 Alpha  occ. eigenvalues --  -10.22733 -10.22666 -10.22512 -10.21687 -10.20905
 Alpha  occ. eigenvalues --   -1.19483  -1.16379  -1.15663  -1.15083  -1.13729
 Alpha  occ. eigenvalues --   -1.13412  -1.11988  -1.11084  -1.10114  -1.09302
 Alpha  occ. eigenvalues --   -1.08748  -1.08447  -1.07858  -1.07255  -1.06336
 Alpha  occ. eigenvalues --   -1.05222  -1.04622  -1.04152  -1.02387  -1.00577
 Alpha  occ. eigenvalues --   -0.99691  -0.98752  -0.98291  -0.97425  -0.96287
 Alpha  occ. eigenvalues --   -0.94763  -0.92387  -0.92375  -0.89304  -0.88587
 Alpha  occ. eigenvalues --   -0.87452  -0.86606  -0.85561  -0.83638  -0.83457
 Alpha  occ. eigenvalues --   -0.83147  -0.82713  -0.80980  -0.80393  -0.79790
 Alpha  occ. eigenvalues --   -0.79357  -0.79099  -0.78662  -0.78317  -0.76915
 Alpha  occ. eigenvalues --   -0.75806  -0.75138  -0.74225  -0.73559  -0.73306
 Alpha  occ. eigenvalues --   -0.72965  -0.72623  -0.71688  -0.71562  -0.71040
 Alpha  occ. eigenvalues --   -0.69866  -0.69484  -0.69136  -0.68653  -0.68271
 Alpha  occ. eigenvalues --   -0.68041  -0.67134  -0.66831  -0.66044  -0.65332
 Alpha  occ. eigenvalues --   -0.65267  -0.64654  -0.63905  -0.63840  -0.63638
 Alpha  occ. eigenvalues --   -0.62986  -0.62723  -0.62221  -0.61855  -0.61593
 Alpha  occ. eigenvalues --   -0.61315  -0.60574  -0.60168  -0.59970  -0.59458
 Alpha  occ. eigenvalues --   -0.58842  -0.58754  -0.58388  -0.57869  -0.57750
 Alpha  occ. eigenvalues --   -0.56920  -0.56518  -0.56440  -0.55722  -0.55662
 Alpha  occ. eigenvalues --   -0.55135  -0.55025  -0.54839  -0.54422  -0.54258
 Alpha  occ. eigenvalues --   -0.53913  -0.53768  -0.53691  -0.53465  -0.53339
 Alpha  occ. eigenvalues --   -0.53059  -0.52980  -0.52860  -0.52484  -0.52257
 Alpha  occ. eigenvalues --   -0.51855  -0.51613  -0.51383  -0.51203  -0.50961
 Alpha  occ. eigenvalues --   -0.50933  -0.50609  -0.50345  -0.50193  -0.49830
 Alpha  occ. eigenvalues --   -0.49676  -0.49495  -0.49223  -0.49148  -0.48887
 Alpha  occ. eigenvalues --   -0.48695  -0.48575  -0.48546  -0.48112  -0.47963
 Alpha  occ. eigenvalues --   -0.47819  -0.47667  -0.47470  -0.47171  -0.46993
 Alpha  occ. eigenvalues --   -0.46863  -0.46431  -0.46129  -0.46090  -0.45960
 Alpha  occ. eigenvalues --   -0.45878  -0.45609  -0.45401  -0.45239  -0.45145
 Alpha  occ. eigenvalues --   -0.44993  -0.44983  -0.44766  -0.44574  -0.44523
 Alpha  occ. eigenvalues --   -0.44459  -0.44400  -0.43899  -0.43644  -0.43354
 Alpha  occ. eigenvalues --   -0.43306  -0.43160  -0.42758  -0.42531  -0.42366
 Alpha  occ. eigenvalues --   -0.42330  -0.42301  -0.42076  -0.41964  -0.41676
 Alpha  occ. eigenvalues --   -0.41447  -0.41373  -0.41354  -0.41040  -0.40954
 Alpha  occ. eigenvalues --   -0.40679  -0.40444  -0.40354  -0.39897  -0.39829
 Alpha  occ. eigenvalues --   -0.39782  -0.39368  -0.39159  -0.38511  -0.38392
 Alpha  occ. eigenvalues --   -0.38047  -0.37695  -0.37527  -0.37224  -0.37016
 Alpha  occ. eigenvalues --   -0.36857  -0.36591  -0.34985  -0.34620  -0.34287
 Alpha  occ. eigenvalues --   -0.33576  -0.33458  -0.32817  -0.32230  -0.32185
 Alpha  occ. eigenvalues --   -0.32160  -0.31763  -0.31291  -0.30567  -0.30422
 Alpha  occ. eigenvalues --   -0.29722  -0.29621  -0.29175  -0.28243  -0.27188
 Alpha virt. eigenvalues --   -0.12857  -0.10978  -0.10416  -0.07832  -0.06608
 Alpha virt. eigenvalues --   -0.06218  -0.05564  -0.05189  -0.04635  -0.04228
 Alpha virt. eigenvalues --   -0.03777  -0.03396  -0.02794  -0.02568  -0.02313

 Mulliken charges:
               1
     1  N   -0.550145
     2  H    0.349456
     3  H    0.345324
     4  H    0.370124
     5  C   -0.111568
     6  H    0.172388
     7  C    0.646527
     8  C   -0.177940
     9  H    0.145925
    10  H    0.142926
    11  O   -0.535628
    12  C   -0.090021
    13  H    0.075584
    14  C   -0.333086
    15  H    0.149943
    16  H    0.117412
    17  H    0.127303
    18  C   -0.318508
    19  H    0.126590
    20  H    0.080339
    21  H    0.140148
    22  N   -0.521996
    23  H    0.325557
    24  C   -0.038790
    25  H    0.179238
    26  C    0.618383
    27  C   -0.093350
    28  H    0.107881
    29  O   -0.556959
    30  C   -0.316414
    31  H    0.113367
    32  H    0.122834
    33  H    0.127947
    34  C   -0.346692
    35  H    0.106373
    36  H    0.141594
    37  H    0.105173
    38  N   -0.526401
    39  H    0.281933
    40  C   -0.012775
    41  H    0.155542
    42  C    0.609118
    43  C   -0.085755
    44  H    0.119432
    45  O   -0.528578
    46  C   -0.331289
    47  H    0.103154
    48  H    0.129672
    49  H    0.121799
    50  C   -0.310692
    51  H    0.112605
    52  H    0.086480
    53  H    0.126663
    54  N   -0.529455
    55  H    0.301217
    56  C   -0.050326
    57  H    0.130573
    58  C    0.626611
    59  C    0.027429
    60  H    0.134005
    61  H    0.141007
    62  O   -0.543483
    63  O   -0.571432
    64  H    0.331480
    65  N   -0.520850
    66  H    0.300539
    67  C   -0.057859
    68  H    0.144042
    69  C    0.648145
    70  C    0.180179
    71  H    0.105207
    72  O   -0.548800
    73  C   -0.321809
    74  H    0.120115
    75  H    0.094721
    76  H    0.123281
    77  O   -0.552910
    78  H    0.337111
    79  N   -0.529234
    80  H    0.273301
    81  C   -0.010807
    82  H    0.131186
    83  C    0.618770
    84  C   -0.192600
    85  H    0.125179
    86  H    0.127584
    87  O   -0.548249
    88  C   -0.277461
    89  H    0.120171
    90  H    0.130414
    91  C    0.559319
    92  N   -0.647556
    93  H    0.318448
    94  H    0.265304
    95  O   -0.518376
    96  N   -0.510092
    97  H    0.296960
    98  C   -0.031728
    99  H    0.142362
   100  C    0.624370
   101  C    0.145458
   102  H    0.093141
   103  O   -0.558093
   104  C   -0.317133
   105  H    0.104982
   106  H    0.118603
   107  H    0.106424
   108  O   -0.567918
   109  H    0.325723
   110  N   -0.558194
   111  H    0.322346
   112  C    0.018639
   113  H    0.137089
   114  C    0.602829
   115  C   -0.323589
   116  H    0.112034
   117  H    0.156496
   118  H    0.113943
   119  O   -0.553312
   120  N   -0.531077
   121  H    0.290714
   122  C   -0.019683
   123  H    0.127105
   124  C    0.601256
   125  C   -0.154074
   126  H    0.126802
   127  H    0.107726
   128  O   -0.538633
   129  C   -0.083198
   130  H    0.099645
   131  C   -0.323899
   132  H    0.114234
   133  H    0.084499
   134  H    0.113606
   135  C   -0.311350
   136  H    0.107799
   137  H    0.104671
   138  H    0.107735
   139  N   -0.535026
   140  H    0.287829
   141  C   -0.011041
   142  H    0.175717
   143  C    0.590776
   144  C   -0.309506
   145  H    0.144102
   146  H    0.137995
   147  H    0.113420
   148  O   -0.447325
   149  O   -0.499828
   150  H    0.335396
 Sum of Mulliken charges =   1.00000

 Dipole moment (field-independent basis, Debye):
    X=            -24.8737    Y=             -6.8930    Z=            -24.1381  Tot=             35.3393
 Quadrupole moment (field-independent basis, Debye-Ang):
   XX=           -171.9321   YY=           -387.7488   ZZ=           -172.6055
   XY=             56.7502   XZ=            241.5624   YZ=             59.2747

 Normal termination of Gaussian 16 at Thu Sep  8 14:46:56 2022.
