 Gaussian 16, Revision C.01,
 Gaussian 16:  ES64L-G16RevC.01  3-Jul-2019

 ----------------------------------------------------------------------
 # B3LYP/6-31G** empiricaldispersion=gd3bj guess=read geom=check nosymm
  integral(ultrafinegrid)
 ----------------------------------------------------------------------

 ------------------------------------------------------
 Candidate Structure: Conf:535 Charge calc in gas phase
 ------------------------------------------------------
 Structure from the checkpoint file:  "conf-535.chk"
 Charge =  1 Multiplicity = 1

                          Input orientation:
 ---------------------------------------------------------------------
 Center     Atomic      Atomic             Coordinates (Angstroms)
 Number     Number       Type             X           Y           Z
 ---------------------------------------------------------------------
      1          7           0       -3.934198    2.210979   -7.908724
      2          1           0       -4.385832    1.358288   -8.398364
      3          1           0       -3.185021    2.633713   -8.455759
      4          1           0       -4.627367    2.931184   -7.681933
      5          6           0       -3.481008    1.470312   -6.671981
      6          1           0       -2.434429    1.208371   -6.846621
      7          6           0       -4.323886    0.170909   -6.790083
      8          6           0       -3.636016    2.260270   -5.378279
      9          1           0       -3.206890    1.644575   -4.576960
     10          1           0       -4.703152    2.384333   -5.154347
     11          8           0       -4.797566   -0.088637   -7.913428
     12          6           0       -2.923253    3.626639   -5.363777
     13          1           0       -3.383276    4.265681   -6.134309
     14          6           0       -3.153262    4.299177   -4.005052
     15          1           0       -2.696578    3.711815   -3.201622
     16          1           0       -4.220433    4.403726   -3.784392
     17          1           0       -2.705979    5.296808   -3.987397
     18          6           0       -1.425481    3.502156   -5.666739
     19          1           0       -0.936636    2.839224   -4.944317
     20          1           0       -1.221163    3.111424   -6.671208
     21          1           0       -0.939969    4.479585   -5.601574
     22          7           0       -4.449192   -0.549242   -5.687011
     23          1           0       -4.252520   -0.101100   -4.792331
     24          6           0       -5.254602   -1.757342   -5.534831
     25          1           0       -6.067168   -1.739378   -6.269860
     26          6           0       -5.824194   -1.653516   -4.104664
     27          6           0       -4.410922   -3.047691   -5.726558
     28          1           0       -5.100869   -3.891618   -5.594530
     29          8           0       -5.585204   -0.642472   -3.425823
     30          6           0       -3.851464   -3.135516   -7.149382
     31          1           0       -3.099928   -2.360640   -7.327685
     32          1           0       -4.634571   -3.023857   -7.904477
     33          1           0       -3.364923   -4.103435   -7.296870
     34          6           0       -3.303694   -3.169199   -4.673941
     35          1           0       -2.585006   -2.347928   -4.763172
     36          1           0       -2.759897   -4.107276   -4.813332
     37          1           0       -3.688453   -3.153380   -3.651546
     38          7           0       -6.519660   -2.704418   -3.647427
     39          1           0       -6.495746   -3.567576   -4.179329
     40          6           0       -6.710927   -2.931181   -2.211304
     41          1           0       -6.461933   -1.994483   -1.708248
     42          6           0       -5.685474   -4.029550   -1.870129
     43          6           0       -8.152676   -3.362706   -1.886230
     44          1           0       -8.350915   -4.272379   -2.468575
     45          8           0       -5.578302   -5.016123   -2.596128
     46          6           0       -8.289175   -3.704038   -0.397402
     47          1           0       -8.037987   -2.838625    0.227733
     48          1           0       -7.644458   -4.538303   -0.106068
     49          1           0       -9.319473   -3.988234   -0.167955
     50          6           0       -9.147494   -2.274556   -2.300276
     51          1           0       -8.979820   -1.356590   -1.725458
     52          1           0       -9.059718   -2.030904   -3.362146
     53          1           0      -10.173057   -2.604438   -2.113374
     54          7           0       -4.889101   -3.777873   -0.802874
     55          1           0       -5.083954   -3.002829   -0.174510
     56          6           0       -3.822592   -4.650132   -0.343783
     57          1           0       -4.202828   -5.651060   -0.111967
     58          6           0       -3.232799   -3.982838    0.895898
     59          6           0       -2.708233   -4.799251   -1.426874
     60          1           0       -2.356158   -3.790423   -1.686127
     61          1           0       -3.172991   -5.245364   -2.307941
     62          8           0       -3.515980   -2.816597    1.173941
     63          8           0       -1.657986   -5.628971   -0.984338
     64          1           0       -0.922091   -5.051479   -0.688834
     65          7           0       -2.333146   -4.724603    1.597157
     66          1           0       -1.994680   -5.530878    1.072772
     67          6           0       -1.304211   -4.015860    2.360076
     68          1           0       -1.805556   -3.303731    3.017970
     69          6           0       -0.371928   -3.297968    1.378278
     70          6           0       -0.520923   -5.019671    3.230163
     71          1           0       -0.078077   -5.770520    2.553616
     72          8           0        0.005876   -3.863189    0.341066
     73          6           0        0.589273   -4.339155    4.018423
     74          1           0        1.342500   -3.898145    3.358287
     75          1           0        0.175281   -3.553102    4.657216
     76          1           0        1.077559   -5.074414    4.660913
     77          8           0       -1.392363   -5.625469    4.165915
     78          1           0       -2.152630   -5.977923    3.682191
     79          7           0        0.012766   -2.049836    1.707529
     80          1           0       -0.361942   -1.596928    2.530383
     81          6           0        0.852023   -1.230540    0.820407
     82          1           0        1.364980   -1.944399    0.171195
     83          6           0        1.821994   -0.519877    1.758182
     84          6           0        0.004297   -0.290551   -0.053186
     85          1           0        0.649499    0.225720   -0.770428
     86          1           0       -0.459027    0.468460    0.585780
     87          8           0        1.401030    0.310624    2.573937
     88          6           0       -1.072821   -1.098976   -0.772410
     89          1           0       -1.753318   -1.520462   -0.031436
     90          1           0       -0.619495   -1.953211   -1.295959
     91          6           0       -1.921775   -0.359176   -1.797948
     92          7           0       -3.205583   -0.804705   -1.840674
     93          1           0       -3.533738   -1.446358   -1.132944
     94          1           0       -3.875309   -0.421582   -2.497256
     95          8           0       -1.492785    0.522368   -2.542210
     96          7           0        3.095359   -0.945446    1.704847
     97          1           0        3.436590   -1.523561    0.942710
     98          6           0        4.107801   -0.576518    2.685067
     99          1           0        3.601873   -0.445398    3.647441
    100          6           0        4.771932    0.753523    2.282636
    101          6           0        5.157710   -1.703483    2.741359
    102          1           0        5.940622   -1.383194    3.441539
    103          8           0        5.925728    0.805629    1.840331
    104          6           0        4.586668   -3.040673    3.185339
    105          1           0        4.167416   -2.972574    4.192557
    106          1           0        3.800345   -3.366597    2.495280
    107          1           0        5.374672   -3.796376    3.181486
    108          8           0        5.701612   -1.869576    1.435551
    109          1           0        6.164276   -1.026654    1.274181
    110          7           0        3.980740    1.834744    2.417135
    111          1           0        3.043517    1.695916    2.786825
    112          6           0        4.489654    3.178115    2.189488
    113          1           0        4.871560    3.239019    1.163820
    114          6           0        5.635350    3.448612    3.185939
    115          6           0        3.369474    4.193619    2.407815
    116          1           0        3.729189    5.204280    2.200285
    117          1           0        2.521660    3.984021    1.749318
    118          1           0        3.035439    4.154193    3.448154
    119          8           0        5.519388    3.150949    4.371207
    120          7           0        6.718772    4.046374    2.651060
    121          1           0        6.738219    4.328987    1.680084
    122          6           0        7.871465    4.452860    3.425791
    123          1           0        7.552177    4.569390    4.464984
    124          6           0        8.344188    5.793583    2.854680
    125          6           0        9.026950    3.430234    3.332096
    126          1           0        9.315982    3.362266    2.276359
    127          1           0        9.894997    3.835219    3.869657
    128          8           0        8.083149    6.127400    1.698604
    129          6           0        8.708654    2.026902    3.869973
    130          1           0        7.814213    1.660541    3.354329
    131          6           0        9.866328    1.078809    3.535722
    132          1           0       10.795524    1.405966    4.017392
    133          1           0       10.045704    1.031858    2.456562
    134          1           0        9.652460    0.063755    3.885226
    135          6           0        8.428539    2.042156    5.376476
    136          1           0        9.280430    2.457228    5.929636
    137          1           0        8.263910    1.024184    5.745664
    138          1           0        7.533489    2.622529    5.610051
    139          7           0        9.100566    6.545039    3.687039
    140          1           0        9.359932    6.213234    4.607531
    141          6           0        9.759186    7.756316    3.234667
    142          1           0       10.190071    7.577634    2.242752
    143          6           0       10.892650    8.037265    4.205258
    144          6           0        8.793914    8.948943    3.137598
    145          1           0        9.318799    9.836737    2.779677
    146          1           0        7.998899    8.692801    2.435835
    147          1           0        8.352286    9.163588    4.114610
    148          8           0       11.088046    7.421569    5.232191
    149          8           0       11.651866    9.071620    3.802669
    150          1           0       12.334792    9.200803    4.482448
 ---------------------------------------------------------------------

 SCF Done:  E(RB3LYP) =  -3455.97380206     A.U. after    1 cycles

 Alpha  occ. eigenvalues --  -19.27638 -19.25185 -19.23898 -19.22239 -19.21781
 Alpha  occ. eigenvalues --  -19.21369 -19.21318 -19.20908 -19.19697 -19.19578
 Alpha  occ. eigenvalues --  -19.18837 -19.18745 -19.18078 -19.16224 -19.15030
 Alpha  occ. eigenvalues --  -14.58699 -14.49964 -14.47090 -14.45544 -14.45530
 Alpha  occ. eigenvalues --  -14.44955 -14.44006 -14.42416 -14.41374 -14.40581
 Alpha  occ. eigenvalues --  -14.39770 -10.43942 -10.40737 -10.40006 -10.38507
 Alpha  occ. eigenvalues --  -10.38161 -10.38035 -10.37550 -10.36644 -10.36223
 Alpha  occ. eigenvalues --  -10.35285 -10.34590 -10.33165 -10.32545 -10.32453
 Alpha  occ. eigenvalues --  -10.32424 -10.32204 -10.31833 -10.31614 -10.31540
 Alpha  occ. eigenvalues --  -10.31498 -10.31303 -10.30174 -10.29424 -10.29364
 Alpha  occ. eigenvalues --  -10.28880 -10.28551 -10.28279 -10.28008 -10.27185
 Alpha  occ. eigenvalues --  -10.27108 -10.26753 -10.26666 -10.26636 -10.26390
 Alpha  occ. eigenvalues --  -10.25482 -10.25180 -10.24516 -10.23869 -10.23124
 Alpha  occ. eigenvalues --  -10.22658 -10.22137 -10.21209 -10.19918 -10.19129
 Alpha  occ. eigenvalues --   -1.19969  -1.16272  -1.15842  -1.14375  -1.13069
 Alpha  occ. eigenvalues --   -1.12889  -1.12683  -1.11405  -1.10102  -1.09873
 Alpha  occ. eigenvalues --   -1.09338  -1.09262  -1.08374  -1.07292  -1.07055
 Alpha  occ. eigenvalues --   -1.07007  -1.06367  -1.03847  -1.01958  -1.01717
 Alpha  occ. eigenvalues --   -1.01549  -1.00216  -0.97939  -0.97489  -0.97415
 Alpha  occ. eigenvalues --   -0.96523  -0.94656  -0.91942  -0.89467  -0.88292
 Alpha  occ. eigenvalues --   -0.88194  -0.86256  -0.84980  -0.84309  -0.84097
 Alpha  occ. eigenvalues --   -0.83285  -0.82610  -0.82099  -0.80700  -0.80145
 Alpha  occ. eigenvalues --   -0.79307  -0.78497  -0.78083  -0.77979  -0.77839
 Alpha  occ. eigenvalues --   -0.76685  -0.76388  -0.73885  -0.73650  -0.73074
 Alpha  occ. eigenvalues --   -0.72049  -0.71992  -0.70900  -0.70496  -0.70380
 Alpha  occ. eigenvalues --   -0.69977  -0.69318  -0.69022  -0.68801  -0.67707
 Alpha  occ. eigenvalues --   -0.67564  -0.67185  -0.67179  -0.66884  -0.66380
 Alpha  occ. eigenvalues --   -0.66012  -0.65182  -0.64839  -0.64815  -0.64084
 Alpha  occ. eigenvalues --   -0.63307  -0.62947  -0.62713  -0.62224  -0.61632
 Alpha  occ. eigenvalues --   -0.60995  -0.60789  -0.60649  -0.59912  -0.59358
 Alpha  occ. eigenvalues --   -0.59099  -0.58805  -0.58475  -0.58035  -0.57753
 Alpha  occ. eigenvalues --   -0.57474  -0.57123  -0.56788  -0.56323  -0.56224
 Alpha  occ. eigenvalues --   -0.55832  -0.55756  -0.55500  -0.55306  -0.54855
 Alpha  occ. eigenvalues --   -0.54494  -0.54368  -0.54185  -0.53496  -0.53412
 Alpha  occ. eigenvalues --   -0.53284  -0.53060  -0.52599  -0.52501  -0.52425
 Alpha  occ. eigenvalues --   -0.51983  -0.51788  -0.51714  -0.51650  -0.50976
 Alpha  occ. eigenvalues --   -0.50610  -0.50442  -0.50267  -0.50217  -0.50123
 Alpha  occ. eigenvalues --   -0.49987  -0.49711  -0.49184  -0.49085  -0.48718
 Alpha  occ. eigenvalues --   -0.48647  -0.48508  -0.48296  -0.48126  -0.47925
 Alpha  occ. eigenvalues --   -0.47853  -0.47749  -0.47466  -0.47388  -0.47308
 Alpha  occ. eigenvalues --   -0.47244  -0.46916  -0.46582  -0.46512  -0.46320
 Alpha  occ. eigenvalues --   -0.45949  -0.45908  -0.45724  -0.45640  -0.45389
 Alpha  occ. eigenvalues --   -0.45303  -0.45102  -0.44959  -0.44894  -0.44324
 Alpha  occ. eigenvalues --   -0.44258  -0.44182  -0.43937  -0.43889  -0.43697
 Alpha  occ. eigenvalues --   -0.43661  -0.43551  -0.43371  -0.43322  -0.43155
 Alpha  occ. eigenvalues --   -0.42791  -0.42742  -0.42404  -0.42023  -0.41961
 Alpha  occ. eigenvalues --   -0.41770  -0.41711  -0.41639  -0.41565  -0.41408
 Alpha  occ. eigenvalues --   -0.41205  -0.40617  -0.40594  -0.40310  -0.40230
 Alpha  occ. eigenvalues --   -0.40113  -0.39585  -0.38614  -0.38470  -0.38194
 Alpha  occ. eigenvalues --   -0.37799  -0.37356  -0.37282  -0.36486  -0.36088
 Alpha  occ. eigenvalues --   -0.35717  -0.35592  -0.35085  -0.35010  -0.34910
 Alpha  occ. eigenvalues --   -0.34776  -0.34293  -0.34065  -0.33521  -0.33304
 Alpha  occ. eigenvalues --   -0.33135  -0.32957  -0.32414  -0.32288  -0.31857
 Alpha  occ. eigenvalues --   -0.30620  -0.30279  -0.30228  -0.28706  -0.28635
 Alpha virt. eigenvalues --   -0.13279  -0.10151  -0.10037  -0.08816  -0.07985
 Alpha virt. eigenvalues --   -0.07084  -0.05894  -0.05692  -0.04537  -0.04488
 Alpha virt. eigenvalues --   -0.04025  -0.03655  -0.02302  -0.02024  -0.01716

 Mulliken charges:
               1
     1  N   -0.560760
     2  H    0.378422
     3  H    0.348666
     4  H    0.345157
     5  C   -0.097786
     6  H    0.198259
     7  C    0.640906
     8  C   -0.221574
     9  H    0.168944
    10  H    0.126810
    11  O   -0.548788
    12  C   -0.080690
    13  H    0.071084
    14  C   -0.320374
    15  H    0.143709
    16  H    0.111560
    17  H    0.125388
    18  C   -0.326456
    19  H    0.154603
    20  H    0.071093
    21  H    0.136384
    22  N   -0.509731
    23  H    0.310397
    24  C   -0.033645
    25  H    0.162434
    26  C    0.609620
    27  C   -0.073548
    28  H    0.117246
    29  O   -0.564700
    30  C   -0.314300
    31  H    0.100953
    32  H    0.122979
    33  H    0.129444
    34  C   -0.332396
    35  H    0.111031
    36  H    0.133953
    37  H    0.117257
    38  N   -0.502883
    39  H    0.291965
    40  C   -0.026752
    41  H    0.131168
    42  C    0.621345
    43  C   -0.060546
    44  H    0.112874
    45  O   -0.542285
    46  C   -0.330451
    47  H    0.107425
    48  H    0.117626
    49  H    0.128262
    50  C   -0.313718
    51  H    0.111161
    52  H    0.106911
    53  H    0.122393
    54  N   -0.560156
    55  H    0.288036
    56  C   -0.001622
    57  H    0.154598
    58  C    0.584201
    59  C    0.045788
    60  H    0.097012
    61  H    0.151887
    62  O   -0.541055
    63  O   -0.566064
    64  H    0.352613
    65  N   -0.542191
    66  H    0.284678
    67  C   -0.029056
    68  H    0.141713
    69  C    0.630492
    70  C    0.168792
    71  H    0.098132
    72  O   -0.578357
    73  C   -0.336311
    74  H    0.117168
    75  H    0.118966
    76  H    0.142718
    77  O   -0.531164
    78  H    0.314765
    79  N   -0.513899
    80  H    0.291266
    81  C   -0.023049
    82  H    0.141213
    83  C    0.612221
    84  C   -0.163643
    85  H    0.131551
    86  H    0.130156
    87  O   -0.558033
    88  C   -0.297611
    89  H    0.127578
    90  H    0.147033
    91  C    0.570817
    92  N   -0.639912
    93  H    0.271524
    94  H    0.297930
    95  O   -0.545739
    96  N   -0.511249
    97  H    0.284158
    98  C   -0.047326
    99  H    0.144824
   100  C    0.647113
   101  C    0.137918
   102  H    0.114968
   103  O   -0.553828
   104  C   -0.316152
   105  H    0.108903
   106  H    0.101099
   107  H    0.134133
   108  O   -0.566330
   109  H    0.333547
   110  N   -0.520070
   111  H    0.295434
   112  C    0.003751
   113  H    0.112352
   114  C    0.629861
   115  C   -0.345302
   116  H    0.128235
   117  H    0.114915
   118  H    0.141723
   119  O   -0.542176
   120  N   -0.510746
   121  H    0.275069
   122  C   -0.036795
   123  H    0.136309
   124  C    0.605157
   125  C   -0.146226
   126  H    0.098626
   127  H    0.092190
   128  O   -0.547602
   129  C   -0.070368
   130  H    0.122927
   131  C   -0.309504
   132  H    0.097914
   133  H    0.097610
   134  H    0.097263
   135  C   -0.325324
   136  H    0.086604
   137  H    0.092355
   138  H    0.135233
   139  N   -0.535252
   140  H    0.286262
   141  C    0.014996
   142  H    0.158051
   143  C    0.580363
   144  C   -0.315924
   145  H    0.130117
   146  H    0.146566
   147  H    0.115587
   148  O   -0.470255
   149  O   -0.477263
   150  H    0.334523
 Sum of Mulliken charges =   1.00000

 Dipole moment (field-independent basis, Debye):
    X=            -15.7642    Y=              6.1072    Z=            -22.7707  Tot=             28.3604
 Quadrupole moment (field-independent basis, Debye-Ang):
   XX=           -271.5300   YY=           -338.7649   ZZ=           -236.2277
   XY=             46.2763   XZ=            118.4472   YZ=            -43.4546

 Normal termination of Gaussian 16 at Thu Sep  8 14:44:20 2022.
