 Gaussian 16, Revision C.01,
 Gaussian 16:  ES64L-G16RevC.01  3-Jul-2019

 ----------------------------------------------------------------------
 # B3LYP/6-31G** empiricaldispersion=gd3bj guess=read geom=check nosymm
  integral(ultrafinegrid)
 ----------------------------------------------------------------------

 ------------------------------------------------------
 Candidate Structure: Conf:112 Charge calc in gas phase
 ------------------------------------------------------
 Structure from the checkpoint file:  "conf-112.chk"
 Charge =  1 Multiplicity = 1

                          Input orientation:
 ---------------------------------------------------------------------
 Center     Atomic      Atomic             Coordinates (Angstroms)
 Number     Number       Type             X           Y           Z
 ---------------------------------------------------------------------
      1          7           0      -10.059782   -0.991530   -7.352208
      2          1           0      -10.257307   -0.928777   -8.352515
      3          1           0      -10.899920   -0.739905   -6.829048
      4          1           0       -9.715837   -1.983714   -7.117096
      5          6           0       -8.840255   -0.201139   -6.928823
      6          1           0       -8.618767    0.546676   -7.690904
      7          6           0       -7.764407   -1.312077   -6.861193
      8          6           0       -9.109170    0.440216   -5.556130
      9          1           0       -9.382575   -0.361794   -4.858325
     10          1           0       -9.982297    1.099428   -5.660074
     11          8           0       -8.179881   -2.482602   -6.781623
     12          6           0       -7.946039    1.256963   -4.958494
     13          1           0       -7.084257    0.597088   -4.822779
     14          6           0       -7.520335    2.417585   -5.865227
     15          1           0       -8.348353    3.118024   -6.024041
     16          1           0       -7.167290    2.090549   -6.850043
     17          1           0       -6.694526    2.966642   -5.407907
     18          6           0       -8.352836    1.767764   -3.571124
     19          1           0       -9.203215    2.456069   -3.633926
     20          1           0       -8.629480    0.943941   -2.905744
     21          1           0       -7.520959    2.304218   -3.108094
     22          7           0       -6.500010   -0.926669   -6.868801
     23          1           0       -6.251158    0.062729   -6.816818
     24          6           0       -5.365784   -1.767467   -6.474983
     25          1           0       -5.757217   -2.648940   -5.959095
     26          6           0       -4.581429   -0.851432   -5.512796
     27          6           0       -4.518275   -2.210792   -7.694531
     28          1           0       -4.089091   -1.298877   -8.130660
     29          8           0       -4.659094    0.375432   -5.663762
     30          6           0       -3.374954   -3.139123   -7.264000
     31          1           0       -3.766952   -4.046398   -6.789089
     32          1           0       -2.679139   -2.668610   -6.566832
     33          1           0       -2.802609   -3.452708   -8.140817
     34          6           0       -5.401306   -2.892774   -8.745648
     35          1           0       -5.892336   -3.778769   -8.330139
     36          1           0       -4.793377   -3.210378   -9.596950
     37          1           0       -6.176561   -2.220816   -9.123491
     38          7           0       -3.883406   -1.456419   -4.548105
     39          1           0       -3.741898   -2.463498   -4.549558
     40          6           0       -2.970123   -0.756648   -3.651639
     41          1           0       -2.723634    0.208380   -4.104637
     42          6           0       -1.733778   -1.665462   -3.577606
     43          6           0       -3.606027   -0.516516   -2.252626
     44          1           0       -3.757505   -1.504995   -1.799533
     45          8           0       -1.842444   -2.874023   -3.799065
     46          6           0       -2.675867    0.294812   -1.341239
     47          1           0       -2.400234    1.248144   -1.809979
     48          1           0       -1.771475   -0.259209   -1.086351
     49          1           0       -3.190829    0.532654   -0.405900
     50          6           0       -4.969137    0.173990   -2.392247
     51          1           0       -4.868605    1.139608   -2.898304
     52          1           0       -5.674962   -0.435321   -2.963531
     53          1           0       -5.401853    0.348102   -1.402812
     54          7           0       -0.561477   -1.069557   -3.286421
     55          1           0       -0.546227   -0.120668   -2.930267
     56          6           0        0.585440   -1.860561   -2.896699
     57          1           0        0.823568   -2.575050   -3.691024
     58          6           0        0.291931   -2.636332   -1.601613
     59          6           0        1.768579   -0.892315   -2.692202
     60          1           0        2.136405   -0.583989   -3.682834
     61          1           0        2.586219   -1.419324   -2.182554
     62          8           0       -0.555754   -2.268130   -0.785538
     63          8           0        1.298407    0.206495   -1.949804
     64          1           0        2.067116    0.654530   -1.510472
     65          7           0        1.086166   -3.712045   -1.400381
     66          1           0        1.830978   -3.949621   -2.046307
     67          6           0        1.180105   -4.401907   -0.114338
     68          1           0        0.175296   -4.487732    0.307834
     69          6           0        2.066964   -3.514525    0.774253
     70          6           0        1.817915   -5.783050   -0.345514
     71          1           0        2.037323   -6.211991    0.642590
     72          8           0        3.282235   -3.720618    0.899694
     73          6           0        0.907862   -6.721948   -1.120685
     74          1           0       -0.006588   -6.928355   -0.556849
     75          1           0        0.629361   -6.285437   -2.083715
     76          1           0        1.427610   -7.664464   -1.305887
     77          8           0        3.019693   -5.613696   -1.091277
     78          1           0        3.593562   -5.078226   -0.512523
     79          7           0        1.452983   -2.423396    1.281672
     80          1           0        0.495685   -2.261829    0.977864
     81          6           0        2.263327   -1.248129    1.593398
     82          1           0        3.117538   -1.272303    0.908810
     83          6           0        2.822666   -1.265615    3.024579
     84          6           0        1.463643    0.032628    1.361791
     85          1           0        0.673193    0.098381    2.114344
     86          1           0        1.011190   -0.016627    0.368986
     87          8           0        2.207500   -0.808175    3.983481
     88          6           0        2.364309    1.275414    1.471388
     89          1           0        2.682605    1.419385    2.506358
     90          1           0        1.797811    2.159915    1.164570
     91          6           0        3.570888    1.161608    0.551637
     92          7           0        4.768639    1.120678    1.157926
     93          1           0        4.861099    1.034919    2.172017
     94          1           0        5.584961    0.996030    0.576698
     95          8           0        3.457285    1.085302   -0.684929
     96          7           0        4.098396   -1.712901    3.108638
     97          1           0        4.485848   -2.292458    2.371352
     98          6           0        4.861372   -1.570000    4.321339
     99          1           0        4.492227   -2.243217    5.110267
    100          6           0        4.784498   -0.118610    4.807373
    101          6           0        6.345638   -1.904287    4.000050
    102          1           0        6.723901   -1.092352    3.370408
    103          8           0        4.904663    0.836053    4.029867
    104          6           0        7.203162   -2.036213    5.249911
    105          1           0        7.230922   -1.105930    5.824112
    106          1           0        6.819690   -2.836416    5.896952
    107          1           0        8.225434   -2.293082    4.962500
    108          8           0        6.411629   -3.061354    3.171278
    109          1           0        6.233790   -3.836652    3.722692
    110          7           0        4.691236    0.068584    6.136944
    111          1           0        4.684458   -0.733493    6.748887
    112          6           0        4.926096    1.385154    6.716125
    113          1           0        4.223889    2.084997    6.253000
    114          6           0        6.375748    1.801607    6.397247
    115          6           0        4.718906    1.331665    8.227794
    116          1           0        4.854761    2.324918    8.662009
    117          1           0        3.710525    0.984146    8.468573
    118          1           0        5.454985    0.660230    8.679733
    119          8           0        7.307155    1.026948    6.619211
    120          7           0        6.528248    3.039265    5.891801
    121          1           0        5.737739    3.658441    5.764889
    122          6           0        7.813754    3.598802    5.521755
    123          1           0        8.581045    3.074059    6.096386
    124          6           0        7.771063    5.085247    5.888037
    125          6           0        8.088661    3.468467    4.004915
    126          1           0        7.315142    4.047494    3.485222
    127          1           0        9.047378    3.957369    3.785082
    128          8           0        6.705484    5.700482    5.919025
    129          6           0        8.106738    2.032258    3.457208
    130          1           0        7.169445    1.552760    3.758081
    131          6           0        8.139732    2.068470    1.923711
    132          1           0        9.051986    2.553431    1.556754
    133          1           0        7.283065    2.618410    1.519163
    134          1           0        8.123077    1.053059    1.511062
    135          6           0        9.274651    1.209863    4.012726
    136          1           0       10.236105    1.678889    3.769396
    137          1           0        9.279623    0.206103    3.573558
    138          1           0        9.198320    1.091890    5.095474
    139          7           0        8.970342    5.665147    6.115384
    140          1           0        9.834790    5.146301    6.022864
    141          6           0        9.102128    7.096279    6.321022
    142          1           0        8.470733    7.619483    5.593482
    143          6           0       10.551701    7.453284    6.042579
    144          6           0        8.677561    7.529757    7.734114
    145          1           0        8.775397    8.611355    7.847343
    146          1           0        7.635068    7.245444    7.883737
    147          1           0        9.295454    7.033788    8.487828
    148          8           0       11.430794    6.644122    5.831395
    149          8           0       10.755696    8.781250    6.077639
    150          1           0       11.703433    8.926207    5.915053
 ---------------------------------------------------------------------

 SCF Done:  E(RB3LYP) =  -3455.99440527     A.U. after    2 cycles

 Alpha  occ. eigenvalues --  -19.26665 -19.25273 -19.21214 -19.20356 -19.19789
 Alpha  occ. eigenvalues --  -19.18856 -19.18854 -19.18704 -19.18468 -19.18466
 Alpha  occ. eigenvalues --  -19.17981 -19.16754 -19.16359 -19.16093 -19.15925
 Alpha  occ. eigenvalues --  -14.59240 -14.48960 -14.44729 -14.42668 -14.42354
 Alpha  occ. eigenvalues --  -14.42030 -14.41507 -14.40825 -14.40457 -14.40117
 Alpha  occ. eigenvalues --  -14.39540 -10.43127 -10.40118 -10.38186 -10.37647
 Alpha  occ. eigenvalues --  -10.35637 -10.35261 -10.34867 -10.34764 -10.33857
 Alpha  occ. eigenvalues --  -10.33602 -10.33386 -10.33132 -10.32945 -10.32823
 Alpha  occ. eigenvalues --  -10.30506 -10.30147 -10.29645 -10.29572 -10.29509
 Alpha  occ. eigenvalues --  -10.29289 -10.29159 -10.28991 -10.28765 -10.28742
 Alpha  occ. eigenvalues --  -10.28628 -10.27924 -10.27630 -10.27620 -10.26933
 Alpha  occ. eigenvalues --  -10.26326 -10.25894 -10.25411 -10.24230 -10.23828
 Alpha  occ. eigenvalues --  -10.23754 -10.23537 -10.22866 -10.22794 -10.22651
 Alpha  occ. eigenvalues --  -10.22443 -10.22120 -10.22052 -10.21148 -10.20000
 Alpha  occ. eigenvalues --   -1.19155  -1.16371  -1.13503  -1.12917  -1.11240
 Alpha  occ. eigenvalues --   -1.10574  -1.10155  -1.09616  -1.08634  -1.08172
 Alpha  occ. eigenvalues --   -1.08087  -1.07634  -1.07505  -1.07302  -1.06513
 Alpha  occ. eigenvalues --   -1.06160  -1.05840  -1.01438  -0.99244  -0.99038
 Alpha  occ. eigenvalues --   -0.98466  -0.98098  -0.97627  -0.97072  -0.96931
 Alpha  occ. eigenvalues --   -0.94724  -0.94385  -0.90500  -0.87809  -0.87355
 Alpha  occ. eigenvalues --   -0.85602  -0.85261  -0.84023  -0.83710  -0.82943
 Alpha  occ. eigenvalues --   -0.82370  -0.81643  -0.81532  -0.79623  -0.78430
 Alpha  occ. eigenvalues --   -0.78392  -0.78195  -0.77495  -0.76641  -0.76107
 Alpha  occ. eigenvalues --   -0.74605  -0.74440  -0.73348  -0.72441  -0.72114
 Alpha  occ. eigenvalues --   -0.71546  -0.71297  -0.71283  -0.69973  -0.69661
 Alpha  occ. eigenvalues --   -0.68534  -0.68287  -0.67726  -0.67557  -0.66755
 Alpha  occ. eigenvalues --   -0.66649  -0.66042  -0.65602  -0.65337  -0.64764
 Alpha  occ. eigenvalues --   -0.64382  -0.63793  -0.63617  -0.63239  -0.62722
 Alpha  occ. eigenvalues --   -0.62648  -0.62554  -0.61905  -0.60832  -0.60350
 Alpha  occ. eigenvalues --   -0.59407  -0.59027  -0.58523  -0.58324  -0.58229
 Alpha  occ. eigenvalues --   -0.58005  -0.56879  -0.56719  -0.56408  -0.56251
 Alpha  occ. eigenvalues --   -0.55980  -0.55569  -0.55463  -0.55268  -0.55017
 Alpha  occ. eigenvalues --   -0.54814  -0.54533  -0.54359  -0.54170  -0.54008
 Alpha  occ. eigenvalues --   -0.53686  -0.52947  -0.52705  -0.52577  -0.52112
 Alpha  occ. eigenvalues --   -0.51984  -0.51725  -0.51592  -0.51489  -0.51044
 Alpha  occ. eigenvalues --   -0.50857  -0.50520  -0.50085  -0.50006  -0.49908
 Alpha  occ. eigenvalues --   -0.49462  -0.49409  -0.49147  -0.48863  -0.48522
 Alpha  occ. eigenvalues --   -0.48417  -0.48275  -0.47984  -0.47945  -0.47794
 Alpha  occ. eigenvalues --   -0.47581  -0.47253  -0.47086  -0.47036  -0.47006
 Alpha  occ. eigenvalues --   -0.46820  -0.46438  -0.46215  -0.46188  -0.45922
 Alpha  occ. eigenvalues --   -0.45796  -0.45772  -0.45463  -0.45260  -0.45213
 Alpha  occ. eigenvalues --   -0.45161  -0.45025  -0.44653  -0.44355  -0.44197
 Alpha  occ. eigenvalues --   -0.43959  -0.43931  -0.43800  -0.43725  -0.43573
 Alpha  occ. eigenvalues --   -0.43369  -0.43293  -0.42852  -0.42798  -0.42650
 Alpha  occ. eigenvalues --   -0.42542  -0.42401  -0.42179  -0.42134  -0.42107
 Alpha  occ. eigenvalues --   -0.41872  -0.41669  -0.41494  -0.41393  -0.41233
 Alpha  occ. eigenvalues --   -0.41172  -0.40718  -0.40712  -0.40481  -0.40410
 Alpha  occ. eigenvalues --   -0.40179  -0.39807  -0.39657  -0.39325  -0.39223
 Alpha  occ. eigenvalues --   -0.38464  -0.38340  -0.38204  -0.37628  -0.37445
 Alpha  occ. eigenvalues --   -0.36388  -0.35921  -0.35733  -0.35405  -0.34547
 Alpha  occ. eigenvalues --   -0.34495  -0.33826  -0.33707  -0.33407  -0.33048
 Alpha  occ. eigenvalues --   -0.32772  -0.32435  -0.32362  -0.32286  -0.31982
 Alpha  occ. eigenvalues --   -0.31531  -0.30945  -0.30904  -0.30530  -0.30455
 Alpha  occ. eigenvalues --   -0.30379  -0.29793  -0.29361  -0.29137  -0.28800
 Alpha virt. eigenvalues --   -0.12132  -0.10420  -0.07179  -0.05764  -0.05710
 Alpha virt. eigenvalues --   -0.04770  -0.04578  -0.04462  -0.04293  -0.03395
 Alpha virt. eigenvalues --   -0.02973  -0.02528  -0.02409  -0.01733  -0.01688

 Mulliken charges:
               1
     1  N   -0.555038
     2  H    0.350029
     3  H    0.344399
     4  H    0.372769
     5  C   -0.099346
     6  H    0.171328
     7  C    0.637489
     8  C   -0.183150
     9  H    0.128000
    10  H    0.122649
    11  O   -0.546243
    12  C   -0.095700
    13  H    0.127136
    14  C   -0.317297
    15  H    0.112082
    16  H    0.087073
    17  H    0.149336
    18  C   -0.317234
    19  H    0.112137
    20  H    0.113085
    21  H    0.133992
    22  N   -0.510199
    23  H    0.309942
    24  C   -0.030467
    25  H    0.143069
    26  C    0.615669
    27  C   -0.052852
    28  H    0.110415
    29  O   -0.561640
    30  C   -0.336410
    31  H    0.114137
    32  H    0.129669
    33  H    0.125497
    34  C   -0.311080
    35  H    0.122022
    36  H    0.124730
    37  H    0.087625
    38  N   -0.515671
    39  H    0.292365
    40  C   -0.029490
    41  H    0.138452
    42  C    0.630870
    43  C   -0.042642
    44  H    0.110408
    45  O   -0.555975
    46  C   -0.354722
    47  H    0.097488
    48  H    0.162478
    49  H    0.108465
    50  C   -0.314087
    51  H    0.115886
    52  H    0.087542
    53  H    0.109568
    54  N   -0.516820
    55  H    0.297632
    56  C   -0.037345
    57  H    0.134993
    58  C    0.643691
    59  C    0.060719
    60  H    0.104869
    61  H    0.102786
    62  O   -0.550110
    63  O   -0.590881
    64  H    0.369304
    65  N   -0.513006
    66  H    0.280240
    67  C   -0.036866
    68  H    0.137741
    69  C    0.608484
    70  C    0.151577
    71  H    0.100892
    72  O   -0.557341
    73  C   -0.314367
    74  H    0.105823
    75  H    0.117035
    76  H    0.128486
    77  O   -0.563647
    78  H    0.330263
    79  N   -0.519091
    80  H    0.298931
    81  C   -0.025973
    82  H    0.127307
    83  C    0.629335
    84  C   -0.226232
    85  H    0.130909
    86  H    0.136979
    87  O   -0.535206
    88  C   -0.276104
    89  H    0.141859
    90  H    0.130960
    91  C    0.567485
    92  N   -0.612148
    93  H    0.339095
    94  H    0.274821
    95  O   -0.569560
    96  N   -0.536356
    97  H    0.298203
    98  C    0.006329
    99  H    0.096583
   100  C    0.665009
   101  C    0.152236
   102  H    0.124086
   103  O   -0.568054
   104  C   -0.367584
   105  H    0.167609
   106  H    0.086371
   107  H    0.129837
   108  O   -0.540707
   109  H    0.309232
   110  N   -0.501957
   111  H    0.272408
   112  C    0.001846
   113  H    0.126615
   114  C    0.629471
   115  C   -0.349637
   116  H    0.133138
   117  H    0.127383
   118  H    0.134960
   119  O   -0.544832
   120  N   -0.505650
   121  H    0.280717
   122  C   -0.037693
   123  H    0.136852
   124  C    0.608745
   125  C   -0.147980
   126  H    0.102504
   127  H    0.095706
   128  O   -0.545073
   129  C   -0.074442
   130  H    0.121043
   131  C   -0.325002
   132  H    0.104869
   133  H    0.100687
   134  H    0.092491
   135  C   -0.329156
   136  H    0.091486
   137  H    0.095271
   138  H    0.135765
   139  N   -0.536529
   140  H    0.285837
   141  C    0.014072
   142  H    0.158696
   143  C    0.580688
   144  C   -0.316540
   145  H    0.131596
   146  H    0.149069
   147  H    0.116283
   148  O   -0.471065
   149  O   -0.476372
   150  H    0.334856
 Sum of Mulliken charges =   1.00000

 Dipole moment (field-independent basis, Debye):
    X=            -26.8065    Y=              0.4980    Z=            -19.5209  Tot=             33.1648
 Quadrupole moment (field-independent basis, Debye-Ang):
   XX=             -6.6194   YY=           -367.9479   ZZ=           -164.4377
   XY=             56.1564   XZ=            303.1148   YZ=             32.5542

 Normal termination of Gaussian 16 at Thu Sep  8 14:45:26 2022.
