 Gaussian 16, Revision C.01,
 Gaussian 16:  ES64L-G16RevC.01  3-Jul-2019

 ----------------------------------------------------------------------
 # B3LYP/6-31G** empiricaldispersion=gd3bj guess=read geom=check nosymm
  integral(ultrafinegrid)
 ----------------------------------------------------------------------

 ------------------------------------------------------
 Candidate Structure: Conf:961 Charge calc in gas phase
 ------------------------------------------------------
 Structure from the checkpoint file:  "conf-961.chk"
 Charge =  1 Multiplicity = 1

                          Input orientation:
 ---------------------------------------------------------------------
 Center     Atomic      Atomic             Coordinates (Angstroms)
 Number     Number       Type             X           Y           Z
 ---------------------------------------------------------------------
      1          7           0       -1.208075   -2.057375   -8.188826
      2          1           0       -0.360924   -1.555263   -8.462032
      3          1           0       -1.832306   -2.124565   -8.994009
      4          1           0       -0.937181   -3.020353   -7.800937
      5          6           0       -1.879999   -1.473165   -6.964755
      6          1           0       -1.583353   -0.428674   -6.859672
      7          6           0       -1.308864   -2.377992   -5.845491
      8          6           0       -3.406058   -1.636860   -7.089088
      9          1           0       -3.633098   -2.707937   -7.030660
     10          1           0       -3.717097   -1.290566   -8.084767
     11          8           0       -0.883729   -3.492156   -6.206158
     12          6           0       -4.208003   -0.861231   -6.024714
     13          1           0       -3.725376   -1.014201   -5.056367
     14          6           0       -4.252716    0.638958   -6.337091
     15          1           0       -4.851282    0.830987   -7.234297
     16          1           0       -3.259444    1.068836   -6.517002
     17          1           0       -4.707265    1.181744   -5.504937
     18          6           0       -5.625840   -1.429960   -5.902991
     19          1           0       -6.177021   -1.339083   -6.845596
     20          1           0       -5.604433   -2.486877   -5.619360
     21          1           0       -6.176083   -0.883051   -5.133105
     22          7           0       -1.349584   -1.919459   -4.607653
     23          1           0       -1.699587   -0.973386   -4.403717
     24          6           0       -1.031896   -2.732482   -3.437220
     25          1           0       -0.718470   -3.718706   -3.791916
     26          6           0       -2.342436   -2.841848   -2.637603
     27          6           0        0.142648   -2.072514   -2.651408
     28          1           0       -0.210543   -1.097941   -2.304314
     29          8           0       -3.289694   -2.091265   -2.900250
     30          6           0        0.567068   -2.875488   -1.416797
     31          1           0        0.756649   -3.928653   -1.662441
     32          1           0       -0.171822   -2.803415   -0.618858
     33          1           0        1.503024   -2.470599   -1.023519
     34          6           0        1.328731   -1.837864   -3.595480
     35          1           0        1.669465   -2.777685   -4.044391
     36          1           0        2.163125   -1.407013   -3.037113
     37          1           0        1.078156   -1.135107   -4.392457
     38          7           0       -2.412751   -3.737048   -1.626673
     39          1           0       -1.571199   -4.228063   -1.361957
     40          6           0       -3.421674   -3.524548   -0.580901
     41          1           0       -4.405562   -3.745051   -1.007970
     42          6           0       -3.342191   -2.030316   -0.233707
     43          6           0       -3.206951   -4.441137    0.644503
     44          1           0       -3.321843   -5.467031    0.270456
     45          8           0       -2.256184   -1.492239   -0.037933
     46          6           0       -1.822657   -4.306814    1.294388
     47          1           0       -1.628305   -3.280461    1.614507
     48          1           0       -1.006749   -4.610680    0.630416
     49          1           0       -1.771070   -4.957337    2.171369
     50          6           0       -4.309387   -4.178002    1.681302
     51          1           0       -4.164626   -3.218454    2.189290
     52          1           0       -5.307369   -4.190113    1.229521
     53          1           0       -4.288330   -4.952223    2.452020
     54          7           0       -4.502075   -1.309474   -0.237144
     55          1           0       -5.354217   -1.780026   -0.508818
     56          6           0       -4.381551    0.119708   -0.519767
     57          1           0       -3.404948    0.226295   -0.995122
     58          6           0       -4.150690    1.016468    0.696316
     59          6           0       -5.380173    0.603663   -1.562418
     60          1           0       -5.425696    1.692578   -1.517712
     61          1           0       -6.387692    0.207145   -1.369608
     62          8           0       -3.917006    2.213628    0.513533
     63          8           0       -4.935112    0.253124   -2.876804
     64          1           0       -4.624213   -0.669262   -2.863357
     65          7           0       -4.010423    0.378375    1.874475
     66          1           0       -4.134514   -0.627184    1.888607
     67          6           0       -3.067428    0.841804    2.891426
     68          1           0       -3.219378    1.909575    3.064780
     69          6           0       -1.651446    0.582670    2.335577
     70          6           0       -3.293452    0.025146    4.176175
     71          1           0       -2.477401    0.277844    4.864410
     72          8           0       -0.989439   -0.408011    2.683943
     73          6           0       -4.636764    0.313505    4.822914
     74          1           0       -4.700202    1.360296    5.133807
     75          1           0       -5.455791    0.107788    4.128143
     76          1           0       -4.762310   -0.320736    5.702996
     77          8           0       -3.248137   -1.366091    3.841053
     78          1           0       -2.325308   -1.506907    3.559310
     79          7           0       -1.215220    1.452494    1.403336
     80          1           0       -1.815652    2.229664    1.152995
     81          6           0        0.054147    1.252941    0.689276
     82          1           0        0.203910    0.168565    0.653878
     83          6           0        1.175984    1.882293    1.542026
     84          6           0        0.019465    1.826246   -0.725939
     85          1           0        0.948488    1.546600   -1.228621
     86          1           0        0.030281    2.918394   -0.681048
     87          8           0        1.783906    2.893826    1.200435
     88          6           0       -1.178947    1.315992   -1.529769
     89          1           0       -2.079435    1.898414   -1.301456
     90          1           0       -1.414592    0.286716   -1.233279
     91          6           0       -0.971349    1.321617   -3.033291
     92          7           0       -2.082645    0.920553   -3.788031
     93          1           0       -3.007300    0.916440   -3.354489
     94          1           0       -2.079448    1.337691   -4.710976
     95          8           0        0.083076    1.579637   -3.586864
     96          7           0        1.361254    1.249839    2.724334
     97          1           0        0.745847    0.468660    2.936577
     98          6           0        1.995968    1.925962    3.849107
     99          1           0        1.964408    3.002063    3.636420
    100          6           0        3.469847    1.492975    3.940264
    101          6           0        1.203614    1.627750    5.133046
    102          1           0        1.272812    0.555265    5.336443
    103          8           0        3.878514    0.713534    4.800294
    104          6           0        1.728005    2.406640    6.331139
    105          1           0        2.758399    2.120127    6.546885
    106          1           0        1.698979    3.486597    6.136247
    107          1           0        1.109671    2.198534    7.207716
    108          8           0       -0.192768    1.879787    4.911203
    109          1           0       -0.302919    2.840066    4.869277
    110          7           0        4.250712    2.026786    2.975688
    111          1           0        3.861570    2.623808    2.248503
    112          6           0        5.650791    1.671784    2.855551
    113          1           0        6.089040    1.670521    3.859524
    114          6           0        6.317596    2.744547    1.990335
    115          6           0        5.841438    0.277721    2.232980
    116          1           0        6.902217    0.018025    2.170491
    117          1           0        5.334058   -0.461959    2.855081
    118          1           0        5.415993    0.257627    1.225321
    119          8           0        5.668175    3.438641    1.208520
    120          7           0        7.659141    2.831895    2.120406
    121          1           0        8.181683    2.266525    2.779248
    122          6           0        8.454812    3.751829    1.328924
    123          1           0        8.069244    3.741746    0.305262
    124          6           0        9.886627    3.217840    1.373275
    125          6           0        8.358960    5.186333    1.901759
    126          1           0        7.288838    5.401872    1.991918
    127          1           0        8.776850    5.166634    2.914828
    128          8           0       10.275534    2.503601    2.294488
    129          6           0        9.027133    6.307800    1.089492
    130          1           0       10.104595    6.111205    1.042368
    131          6           0        8.470803    6.403044   -0.338506
    132          1           0        7.384129    6.541904   -0.321436
    133          1           0        8.664732    5.505280   -0.937684
    134          1           0        8.911361    7.250660   -0.872705
    135          6           0        8.839638    7.643178    1.821089
    136          1           0        7.776656    7.898476    1.901169
    137          1           0        9.340046    8.458072    1.288451
    138          1           0        9.250638    7.600213    2.834805
    139          7           0       10.700366    3.582518    0.348202
    140          1           0       10.381142    4.283624   -0.304011
    141          6           0       12.119130    3.279458    0.399674
    142          1           0       12.237052    2.209463    0.587097
    143          6           0       12.850895    3.963878    1.555486
    144          6           0       12.792695    3.655910   -0.923046
    145          1           0       13.854674    3.408754   -0.879633
    146          1           0       12.335464    3.105972   -1.749603
    147          1           0       12.697026    4.729523   -1.117596
    148          8           0       13.903908    3.571818    1.997957
    149          8           0       12.237185    5.091348    1.982447
    150          1           0       12.791272    5.446103    2.698124
 ---------------------------------------------------------------------

 SCF Done:  E(RB3LYP) =  -3455.96877500     A.U. after    1 cycles

 Alpha  occ. eigenvalues --  -19.26777 -19.24934 -19.24302 -19.24179 -19.22640
 Alpha  occ. eigenvalues --  -19.21014 -19.20311 -19.20286 -19.20282 -19.20093
 Alpha  occ. eigenvalues --  -19.18065 -19.17341 -19.16992 -19.15611 -19.15184
 Alpha  occ. eigenvalues --  -14.59592 -14.49226 -14.47427 -14.46923 -14.44364
 Alpha  occ. eigenvalues --  -14.43960 -14.43797 -14.41479 -14.40526 -14.39949
 Alpha  occ. eigenvalues --  -14.39025 -10.43401 -10.40840 -10.40456 -10.39371
 Alpha  occ. eigenvalues --  -10.37981 -10.37476 -10.36669 -10.36238 -10.35019
 Alpha  occ. eigenvalues --  -10.34034 -10.33883 -10.33794 -10.33405 -10.33143
 Alpha  occ. eigenvalues --  -10.32692 -10.32636 -10.32311 -10.30582 -10.30376
 Alpha  occ. eigenvalues --  -10.30080 -10.30076 -10.29852 -10.29270 -10.28978
 Alpha  occ. eigenvalues --  -10.28828 -10.28136 -10.27750 -10.27520 -10.27218
 Alpha  occ. eigenvalues --  -10.27179 -10.27141 -10.26639 -10.26409 -10.25834
 Alpha  occ. eigenvalues --  -10.25784 -10.25688 -10.24227 -10.23352 -10.23081
 Alpha  occ. eigenvalues --  -10.22540 -10.22198 -10.21976 -10.21968 -10.21205
 Alpha  occ. eigenvalues --   -1.19380  -1.16477  -1.15028  -1.14545  -1.13439
 Alpha  occ. eigenvalues --   -1.12652  -1.12548  -1.11901  -1.11442  -1.09161
 Alpha  occ. eigenvalues --   -1.09115  -1.07725  -1.07664  -1.07401  -1.06705
 Alpha  occ. eigenvalues --   -1.06394  -1.05906  -1.03944  -1.03317  -1.00868
 Alpha  occ. eigenvalues --   -0.99892  -0.98948  -0.98187  -0.97442  -0.96708
 Alpha  occ. eigenvalues --   -0.95733  -0.94790  -0.91670  -0.89996  -0.88104
 Alpha  occ. eigenvalues --   -0.87527  -0.86268  -0.85734  -0.84042  -0.83354
 Alpha  occ. eigenvalues --   -0.83222  -0.83048  -0.81140  -0.80712  -0.80342
 Alpha  occ. eigenvalues --   -0.79275  -0.78484  -0.77978  -0.77667  -0.77565
 Alpha  occ. eigenvalues --   -0.76939  -0.75165  -0.74615  -0.73677  -0.72846
 Alpha  occ. eigenvalues --   -0.72707  -0.72237  -0.72174  -0.71079  -0.70786
 Alpha  occ. eigenvalues --   -0.70413  -0.69231  -0.69001  -0.68482  -0.68037
 Alpha  occ. eigenvalues --   -0.67708  -0.67129  -0.66821  -0.66699  -0.65551
 Alpha  occ. eigenvalues --   -0.65251  -0.65162  -0.64939  -0.64331  -0.63302
 Alpha  occ. eigenvalues --   -0.63164  -0.62881  -0.62744  -0.61663  -0.61479
 Alpha  occ. eigenvalues --   -0.61238  -0.61054  -0.60370  -0.60113  -0.59674
 Alpha  occ. eigenvalues --   -0.59569  -0.59168  -0.58901  -0.58648  -0.58327
 Alpha  occ. eigenvalues --   -0.57211  -0.56998  -0.56642  -0.56220  -0.55956
 Alpha  occ. eigenvalues --   -0.55700  -0.55411  -0.54864  -0.54561  -0.54236
 Alpha  occ. eigenvalues --   -0.54174  -0.53953  -0.53904  -0.53734  -0.53643
 Alpha  occ. eigenvalues --   -0.53175  -0.52678  -0.52626  -0.52192  -0.51785
 Alpha  occ. eigenvalues --   -0.51679  -0.51590  -0.51512  -0.51360  -0.51072
 Alpha  occ. eigenvalues --   -0.51026  -0.50549  -0.50523  -0.50237  -0.49921
 Alpha  occ. eigenvalues --   -0.49760  -0.49255  -0.49215  -0.49091  -0.48911
 Alpha  occ. eigenvalues --   -0.48878  -0.48795  -0.48690  -0.48472  -0.47799
 Alpha  occ. eigenvalues --   -0.47601  -0.47481  -0.47445  -0.47255  -0.47190
 Alpha  occ. eigenvalues --   -0.46711  -0.46541  -0.46326  -0.46275  -0.46121
 Alpha  occ. eigenvalues --   -0.45933  -0.45596  -0.45343  -0.45301  -0.44715
 Alpha  occ. eigenvalues --   -0.44612  -0.44309  -0.44222  -0.44111  -0.44072
 Alpha  occ. eigenvalues --   -0.44012  -0.43919  -0.43774  -0.43564  -0.43473
 Alpha  occ. eigenvalues --   -0.43315  -0.43242  -0.43125  -0.42934  -0.42756
 Alpha  occ. eigenvalues --   -0.42616  -0.42550  -0.42392  -0.42327  -0.42289
 Alpha  occ. eigenvalues --   -0.42186  -0.41936  -0.41695  -0.41572  -0.41503
 Alpha  occ. eigenvalues --   -0.41362  -0.41038  -0.40876  -0.40560  -0.39943
 Alpha  occ. eigenvalues --   -0.39615  -0.39138  -0.38950  -0.38614  -0.38296
 Alpha  occ. eigenvalues --   -0.37948  -0.37655  -0.37409  -0.37215  -0.37096
 Alpha  occ. eigenvalues --   -0.36795  -0.36536  -0.36347  -0.36019  -0.35704
 Alpha  occ. eigenvalues --   -0.34593  -0.34113  -0.33755  -0.33423  -0.33237
 Alpha  occ. eigenvalues --   -0.32926  -0.32123  -0.31827  -0.31059  -0.30361
 Alpha  occ. eigenvalues --   -0.30162  -0.29686  -0.29331  -0.28431  -0.27973
 Alpha virt. eigenvalues --   -0.12282  -0.11040  -0.10611  -0.08794  -0.08346
 Alpha virt. eigenvalues --   -0.07484  -0.06504  -0.05454  -0.04948  -0.03624
 Alpha virt. eigenvalues --   -0.03306  -0.03138  -0.02799  -0.02235  -0.01977

 Mulliken charges:
               1
     1  N   -0.552202
     2  H    0.352017
     3  H    0.343591
     4  H    0.371874
     5  C   -0.096665
     6  H    0.163753
     7  C    0.635737
     8  C   -0.184662
     9  H    0.135112
    10  H    0.117069
    11  O   -0.552224
    12  C   -0.081930
    13  H    0.120547
    14  C   -0.331733
    15  H    0.120254
    16  H    0.074035
    17  H    0.150718
    18  C   -0.325162
    19  H    0.112595
    20  H    0.109919
    21  H    0.134271
    22  N   -0.495732
    23  H    0.335817
    24  C   -0.073628
    25  H    0.158163
    26  C    0.645364
    27  C   -0.059880
    28  H    0.115438
    29  O   -0.564634
    30  C   -0.364754
    31  H    0.101125
    32  H    0.150574
    33  H    0.132980
    34  C   -0.311502
    35  H    0.110559
    36  H    0.132659
    37  H    0.107644
    38  N   -0.521477
    39  H    0.279175
    40  C    0.030832
    41  H    0.117121
    42  C    0.604173
    43  C   -0.097384
    44  H    0.115806
    45  O   -0.517918
    46  C   -0.335302
    47  H    0.152304
    48  H    0.090269
    49  H    0.129047
    50  C   -0.343824
    51  H    0.143718
    52  H    0.095743
    53  H    0.133869
    54  N   -0.552755
    55  H    0.272562
    56  C   -0.027615
    57  H    0.152121
    58  C    0.606610
    59  C    0.042488
    60  H    0.156650
    61  H    0.107361
    62  O   -0.548341
    63  O   -0.571331
    64  H    0.348924
    65  N   -0.501773
    66  H    0.289966
    67  C   -0.040297
    68  H    0.139464
    69  C    0.674967
    70  C    0.139069
    71  H    0.133463
    72  O   -0.592137
    73  C   -0.315581
    74  H    0.111064
    75  H    0.110467
    76  H    0.130542
    77  O   -0.573633
    78  H    0.336808
    79  N   -0.527107
    80  H    0.292907
    81  C   -0.047481
    82  H    0.145920
    83  C    0.607413
    84  C   -0.188522
    85  H    0.144706
    86  H    0.143015
    87  O   -0.526983
    88  C   -0.324025
    89  H    0.143639
    90  H    0.170323
    91  C    0.545932
    92  N   -0.684728
    93  H    0.301510
    94  H    0.273611
    95  O   -0.482760
    96  N   -0.523118
    97  H    0.302562
    98  C   -0.036929
    99  H    0.121001
   100  C    0.629770
   101  C    0.154222
   102  H    0.127641
   103  O   -0.547024
   104  C   -0.344218
   105  H    0.150658
   106  H    0.092224
   107  H    0.120634
   108  O   -0.555171
   109  H    0.301715
   110  N   -0.541669
   111  H    0.301476
   112  C    0.005855
   113  H    0.132948
   114  C    0.598650
   115  C   -0.310590
   116  H    0.109915
   117  H    0.141237
   118  H    0.108485
   119  O   -0.542666
   120  N   -0.543518
   121  H    0.283422
   122  C   -0.015364
   123  H    0.129885
   124  C    0.611952
   125  C   -0.149749
   126  H    0.127648
   127  H    0.102766
   128  O   -0.536433
   129  C   -0.088954
   130  H    0.103865
   131  C   -0.318305
   132  H    0.122899
   133  H    0.078807
   134  H    0.106162
   135  C   -0.310180
   136  H    0.106453
   137  H    0.101246
   138  H    0.103208
   139  N   -0.533819
   140  H    0.272048
   141  C    0.013915
   142  H    0.164615
   143  C    0.603329
   144  C   -0.353162
   145  H    0.151356
   146  H    0.128004
   147  H    0.119999
   148  O   -0.459032
   149  O   -0.480906
   150  H    0.330547
 Sum of Mulliken charges =   1.00000

 Dipole moment (field-independent basis, Debye):
    X=            -10.3145    Y=             -6.4125    Z=            -27.0270  Tot=             29.6305
 Quadrupole moment (field-independent basis, Debye-Ang):
   XX=           -338.3470   YY=           -362.8519   ZZ=           -201.7552
   XY=             62.3827   XZ=             16.6740   YZ=             56.7653

 Normal termination of Gaussian 16 at Thu Sep  8 14:47:22 2022.
