 Gaussian 16, Revision C.01,
 Gaussian 16:  ES64L-G16RevC.01  3-Jul-2019

 ----------------------------------------------------------------------
 # B3LYP/6-31G** empiricaldispersion=gd3bj guess=read geom=check nosymm
  integral(ultrafinegrid)
 ----------------------------------------------------------------------

 ------------------------------------------------------
 Candidate Structure: Conf:367 Charge calc in gas phase
 ------------------------------------------------------
 Structure from the checkpoint file:  "conf-367.chk"
 Charge =  1 Multiplicity = 1

                          Input orientation:
 ---------------------------------------------------------------------
 Center     Atomic      Atomic             Coordinates (Angstroms)
 Number     Number       Type             X           Y           Z
 ---------------------------------------------------------------------
      1          7           0       -8.363411   -5.423906   -6.839873
      2          1           0       -7.922901   -5.822174   -7.670943
      3          1           0       -9.375189   -5.402329   -6.977690
      4          1           0       -8.085931   -5.999745   -5.973564
      5          6           0       -7.793551   -4.078502   -6.442500
      6          1           0       -7.218200   -3.681422   -7.279544
      7          6           0       -6.878141   -4.471659   -5.255509
      8          6           0       -8.941479   -3.134798   -6.048443
      9          1           0       -9.504656   -3.604144   -5.231598
     10          1           0       -9.616492   -3.057618   -6.912074
     11          8           0       -7.055203   -5.600234   -4.763077
     12          6           0       -8.528390   -1.709284   -5.629274
     13          1           0       -7.917419   -1.770075   -4.722356
     14          6           0       -7.713465   -0.994634   -6.714881
     15          1           0       -8.279778   -0.923786   -7.650642
     16          1           0       -6.760839   -1.488587   -6.940210
     17          1           0       -7.468406    0.020226   -6.394040
     18          6           0       -9.791427   -0.910288   -5.283742
     19          1           0      -10.437780   -0.793346   -6.160834
     20          1           0      -10.373119   -1.398712   -4.495755
     21          1           0       -9.523850    0.088987   -4.931516
     22          7           0       -5.985877   -3.578771   -4.859085
     23          1           0       -6.007249   -2.624933   -5.218126
     24          6           0       -5.190159   -3.681810   -3.637444
     25          1           0       -5.696350   -4.373985   -2.958166
     26          6           0       -5.192273   -2.257284   -3.058551
     27          6           0       -3.747273   -4.186814   -3.910037
     28          1           0       -3.233772   -4.164376   -2.940140
     29          8           0       -5.557387   -1.303826   -3.752725
     30          6           0       -3.763718   -5.634160   -4.410667
     31          1           0       -4.225242   -5.701002   -5.401314
     32          1           0       -4.318242   -6.294522   -3.738150
     33          1           0       -2.741447   -6.011309   -4.498743
     34          6           0       -2.986819   -3.261533   -4.865723
     35          1           0       -3.485982   -3.208560   -5.839678
     36          1           0       -1.980099   -3.652166   -5.034849
     37          1           0       -2.885444   -2.252830   -4.461260
     38          7           0       -4.768737   -2.131177   -1.786890
     39          1           0       -4.309847   -2.923387   -1.358212
     40          6           0       -4.426618   -0.818448   -1.246517
     41          1           0       -5.281700   -0.156574   -1.415603
     42          6           0       -3.207343   -0.299609   -2.024581
     43          6           0       -4.144073   -0.929733    0.271697
     44          1           0       -3.288988   -1.608496    0.392558
     45          8           0       -2.326774   -1.079278   -2.399243
     46          6           0       -3.745095    0.422488    0.873512
     47          1           0       -4.518988    1.179316    0.690069
     48          1           0       -2.789752    0.791091    0.499362
     49          1           0       -3.646691    0.321718    1.957384
     50          6           0       -5.365146   -1.506801    0.999525
     51          1           0       -6.223591   -0.831632    0.908420
     52          1           0       -5.667724   -2.483302    0.611321
     53          1           0       -5.144094   -1.623036    2.063746
     54          7           0       -3.162330    1.032903   -2.269563
     55          1           0       -3.741431    1.622458   -1.682056
     56          6           0       -1.913323    1.652497   -2.737564
     57          1           0       -1.514981    1.005401   -3.520850
     58          6           0       -0.982326    1.722513   -1.521678
     59          6           0       -2.233261    3.026442   -3.324328
     60          1           0       -1.305934    3.502529   -3.653410
     61          1           0       -2.665368    3.659604   -2.534615
     62          8           0       -1.313825    2.379585   -0.536895
     63          8           0       -3.069530    2.923110   -4.460517
     64          1           0       -3.836463    2.391557   -4.205199
     65          7           0        0.126201    0.953803   -1.596158
     66          1           0        0.369854    0.474848   -2.452560
     67          6           0        0.929140    0.634906   -0.433200
     68          1           0        0.662454    1.352367    0.345721
     69          6           0        2.395788    0.709611   -0.837425
     70          6           0        0.606938   -0.816805    0.057143
     71          1           0        1.081564   -1.505032   -0.658053
     72          8           0        2.758928    0.276520   -1.930360
     73          6           0        1.156391   -1.074349    1.450513
     74          1           0        2.247162   -1.005208    1.464307
     75          1           0        0.728704   -0.360264    2.162862
     76          1           0        0.873772   -2.079679    1.771584
     77          8           0       -0.796237   -1.033783    0.080583
     78          1           0       -1.104178   -1.130233   -0.834750
     79          7           0        3.255192    1.232107    0.072086
     80          1           0        2.920840    1.395791    1.011250
     81          6           0        4.686843    1.047122   -0.107194
     82          1           0        4.965765    1.495864   -1.066709
     83          6           0        4.994061   -0.460174   -0.126476
     84          6           0        5.442238    1.719966    1.049371
     85          1           0        5.255354    1.161343    1.970233
     86          1           0        5.057057    2.735115    1.184492
     87          8           0        4.493811   -1.216952    0.706335
     88          6           0        6.945272    1.767530    0.797019
     89          1           0        7.174085    2.400719   -0.070833
     90          1           0        7.318368    0.765399    0.564983
     91          6           0        7.732284    2.288660    1.990540
     92          7           0        9.080653    2.186020    1.861940
     93          1           0        9.507521    1.783516    1.044122
     94          1           0        9.669267    2.456128    2.635996
     95          8           0        7.201332    2.763867    2.995926
     96          7           0        5.889708   -0.878777   -1.045697
     97          1           0        6.231104   -0.268319   -1.776860
     98          6           0        6.285589   -2.276638   -1.157778
     99          1           0        5.500554   -2.873265   -0.683161
    100          6           0        7.613879   -2.488110   -0.393791
    101          6           0        6.438507   -2.636465   -2.642476
    102          1           0        6.821469   -3.663927   -2.696271
    103          8           0        8.643133   -2.839171   -0.977758
    104          6           0        5.121814   -2.534664   -3.397539
    105          1           0        4.412728   -3.281393   -3.026866
    106          1           0        4.666683   -1.547810   -3.276165
    107          1           0        5.296085   -2.713096   -4.461123
    108          8           0        7.370662   -1.733687   -3.235903
    109          1           0        8.218448   -1.959365   -2.814926
    110          7           0        7.511529   -2.209119    0.923333
    111          1           0        6.608493   -1.886710    1.272089
    112          6           0        8.588544   -2.012875    1.883995
    113          1           0        8.839666   -2.965969    2.371269
    114          6           0        7.994301   -1.062798    2.950464
    115          6           0        9.867025   -1.424399    1.270853
    116          1           0       10.625811   -1.270557    2.041876
    117          1           0       10.259782   -2.089976    0.505069
    118          1           0        9.650333   -0.458664    0.805916
    119          8           0        6.844759   -0.632623    2.831649
    120          7           0        8.794125   -0.712904    3.976470
    121          1           0        9.735021   -1.069554    4.073195
    122          6           0        8.369675    0.298140    4.942063
    123          1           0        7.557729    0.848609    4.470013
    124          6           0        9.569964    1.203554    5.209776
    125          6           0        7.884758   -0.338648    6.253989
    126          1           0        7.078180   -1.037157    5.999760
    127          1           0        8.712391   -0.925212    6.668627
    128          8           0       10.644653    0.730277    5.572792
    129          6           0        7.388279    0.667889    7.305166
    130          1           0        8.208190    1.360391    7.532868
    131          6           0        6.199706    1.495638    6.799197
    132          1           0        5.365915    0.843306    6.513387
    133          1           0        6.453652    2.109611    5.930974
    134          1           0        5.841531    2.171945    7.581832
    135          6           0        7.023015   -0.072806    8.596903
    136          1           0        6.200211   -0.776810    8.424070
    137          1           0        6.702687    0.627339    9.375073
    138          1           0        7.874167   -0.641624    8.985060
    139          7           0        9.347982    2.532577    5.023747
    140          1           0        8.461075    2.824002    4.615013
    141          6           0       10.316484    3.535499    5.426230
    142          1           0       11.138344    2.974923    5.888338
    143          6           0        9.767687    4.460343    6.512575
    144          6           0       10.853166    4.349234    4.246759
    145          1           0       11.513843    5.139822    4.604396
    146          1           0       11.416006    3.698454    3.571599
    147          1           0       10.034288    4.817131    3.691434
    148          8           0       10.158947    5.588465    6.705764
    149          8           0        8.816928    3.870821    7.270821
    150          1           0        8.569609    4.522208    7.948970
 ---------------------------------------------------------------------

 SCF Done:  E(RB3LYP) =  -3455.96594230     A.U. after    1 cycles

 Alpha  occ. eigenvalues --  -19.27628 -19.24308 -19.23139 -19.21262 -19.21069
 Alpha  occ. eigenvalues --  -19.19553 -19.18369 -19.17991 -19.17838 -19.17798
 Alpha  occ. eigenvalues --  -19.17662 -19.17203 -19.16885 -19.16846 -19.16203
 Alpha  occ. eigenvalues --  -14.59885 -14.50022 -14.46578 -14.45327 -14.42636
 Alpha  occ. eigenvalues --  -14.42165 -14.41520 -14.41413 -14.41403 -14.40582
 Alpha  occ. eigenvalues --  -14.40294 -10.44123 -10.40913 -10.39781 -10.38040
 Alpha  occ. eigenvalues --  -10.36456 -10.35281 -10.35108 -10.34778 -10.34608
 Alpha  occ. eigenvalues --  -10.34283 -10.33893 -10.33749 -10.33716 -10.33156
 Alpha  occ. eigenvalues --  -10.32367 -10.31093 -10.30519 -10.30264 -10.29707
 Alpha  occ. eigenvalues --  -10.29406 -10.29254 -10.29122 -10.28660 -10.28618
 Alpha  occ. eigenvalues --  -10.28561 -10.28026 -10.27744 -10.27640 -10.27554
 Alpha  occ. eigenvalues --  -10.26954 -10.26638 -10.25825 -10.25221 -10.25086
 Alpha  occ. eigenvalues --  -10.24449 -10.23790 -10.23651 -10.23021 -10.22013
 Alpha  occ. eigenvalues --  -10.21957 -10.21816 -10.21431 -10.20369 -10.20346
 Alpha  occ. eigenvalues --   -1.20109  -1.15223  -1.15171  -1.13824  -1.13090
 Alpha  occ. eigenvalues --   -1.10404  -1.09812  -1.09595  -1.09122  -1.08884
 Alpha  occ. eigenvalues --   -1.08622  -1.08209  -1.08027  -1.07094  -1.06945
 Alpha  occ. eigenvalues --   -1.06042  -1.05465  -1.03277  -1.01297  -0.98926
 Alpha  occ. eigenvalues --   -0.98668  -0.98224  -0.97729  -0.97397  -0.96712
 Alpha  occ. eigenvalues --   -0.96335  -0.95248  -0.91562  -0.88971  -0.88380
 Alpha  occ. eigenvalues --   -0.86239  -0.85277  -0.84658  -0.83305  -0.83190
 Alpha  occ. eigenvalues --   -0.82462  -0.82377  -0.81295  -0.80577  -0.79153
 Alpha  occ. eigenvalues --   -0.78498  -0.78379  -0.77841  -0.77475  -0.76149
 Alpha  occ. eigenvalues --   -0.75615  -0.75100  -0.74186  -0.73277  -0.72581
 Alpha  occ. eigenvalues --   -0.72432  -0.71603  -0.71468  -0.71303  -0.69738
 Alpha  occ. eigenvalues --   -0.69374  -0.68932  -0.68628  -0.67649  -0.67133
 Alpha  occ. eigenvalues --   -0.66689  -0.66497  -0.65580  -0.65304  -0.64645
 Alpha  occ. eigenvalues --   -0.64199  -0.64090  -0.63985  -0.63466  -0.63425
 Alpha  occ. eigenvalues --   -0.63230  -0.63160  -0.62112  -0.61203  -0.60796
 Alpha  occ. eigenvalues --   -0.60562  -0.60015  -0.59811  -0.59428  -0.59102
 Alpha  occ. eigenvalues --   -0.58133  -0.58052  -0.57588  -0.57354  -0.57038
 Alpha  occ. eigenvalues --   -0.56738  -0.56503  -0.56191  -0.55916  -0.55809
 Alpha  occ. eigenvalues --   -0.55427  -0.54908  -0.54743  -0.54398  -0.54182
 Alpha  occ. eigenvalues --   -0.53950  -0.53525  -0.53344  -0.52928  -0.52614
 Alpha  occ. eigenvalues --   -0.52331  -0.52288  -0.52076  -0.51726  -0.51573
 Alpha  occ. eigenvalues --   -0.51026  -0.50975  -0.50918  -0.50709  -0.50307
 Alpha  occ. eigenvalues --   -0.50199  -0.49904  -0.49566  -0.49333  -0.49079
 Alpha  occ. eigenvalues --   -0.48878  -0.48651  -0.48545  -0.48171  -0.47930
 Alpha  occ. eigenvalues --   -0.47871  -0.47772  -0.47365  -0.47309  -0.47268
 Alpha  occ. eigenvalues --   -0.47064  -0.46704  -0.46650  -0.46486  -0.46263
 Alpha  occ. eigenvalues --   -0.45997  -0.45765  -0.45549  -0.45394  -0.45235
 Alpha  occ. eigenvalues --   -0.45124  -0.45093  -0.45027  -0.44832  -0.44824
 Alpha  occ. eigenvalues --   -0.44617  -0.44302  -0.44270  -0.44236  -0.44011
 Alpha  occ. eigenvalues --   -0.43499  -0.43251  -0.43195  -0.43027  -0.42942
 Alpha  occ. eigenvalues --   -0.42594  -0.42549  -0.42459  -0.42283  -0.42144
 Alpha  occ. eigenvalues --   -0.42123  -0.41978  -0.41714  -0.41682  -0.41336
 Alpha  occ. eigenvalues --   -0.41308  -0.40838  -0.40766  -0.40650  -0.40610
 Alpha  occ. eigenvalues --   -0.40554  -0.40461  -0.40304  -0.39902  -0.39799
 Alpha  occ. eigenvalues --   -0.39536  -0.39129  -0.37883  -0.37194  -0.37106
 Alpha  occ. eigenvalues --   -0.36768  -0.36704  -0.36338  -0.35857  -0.35776
 Alpha  occ. eigenvalues --   -0.35431  -0.34649  -0.34165  -0.33364  -0.33348
 Alpha  occ. eigenvalues --   -0.33256  -0.33064  -0.32935  -0.32251  -0.31710
 Alpha  occ. eigenvalues --   -0.31458  -0.31237  -0.31029  -0.30983  -0.30402
 Alpha  occ. eigenvalues --   -0.30223  -0.30117  -0.29497  -0.29132  -0.28598
 Alpha virt. eigenvalues --   -0.12980  -0.11121  -0.09134  -0.07811  -0.06461
 Alpha virt. eigenvalues --   -0.05189  -0.04866  -0.04488  -0.04067  -0.03824
 Alpha virt. eigenvalues --   -0.03562  -0.03217  -0.02642  -0.02050  -0.01666

 Mulliken charges:
               1
     1  N   -0.557308
     2  H    0.351359
     3  H    0.345689
     4  H    0.374605
     5  C   -0.099226
     6  H    0.175218
     7  C    0.640338
     8  C   -0.184325
     9  H    0.129574
    10  H    0.124712
    11  O   -0.544952
    12  C   -0.096644
    13  H    0.127795
    14  C   -0.321184
    15  H    0.115791
    16  H    0.088600
    17  H    0.147508
    18  C   -0.318066
    19  H    0.115705
    20  H    0.114701
    21  H    0.132528
    22  N   -0.505537
    23  H    0.312839
    24  C   -0.049097
    25  H    0.150457
    26  C    0.638084
    27  C   -0.056551
    28  H    0.113353
    29  O   -0.557229
    30  C   -0.308523
    31  H    0.092142
    32  H    0.118027
    33  H    0.127252
    34  C   -0.333953
    35  H    0.088582
    36  H    0.126234
    37  H    0.150229
    38  N   -0.515336
    39  H    0.280882
    40  C    0.000481
    41  H    0.126551
    42  C    0.634752
    43  C   -0.096677
    44  H    0.125514
    45  O   -0.566143
    46  C   -0.345756
    47  H    0.088513
    48  H    0.162547
    49  H    0.122756
    50  C   -0.309212
    51  H    0.109559
    52  H    0.093645
    53  H    0.126918
    54  N   -0.521889
    55  H    0.283372
    56  C   -0.046427
    57  H    0.134476
    58  C    0.614334
    59  C    0.058072
    60  H    0.132181
    61  H    0.110355
    62  O   -0.536613
    63  O   -0.535035
    64  H    0.308306
    65  N   -0.520269
    66  H    0.280694
    67  C   -0.030050
    68  H    0.138094
    69  C    0.631375
    70  C    0.169983
    71  H    0.096653
    72  O   -0.549823
    73  C   -0.347365
    74  H    0.151383
    75  H    0.105361
    76  H    0.117704
    77  O   -0.569660
    78  H    0.330464
    79  N   -0.529262
    80  H    0.276697
    81  C    0.006109
    82  H    0.117013
    83  C    0.636023
    84  C   -0.206434
    85  H    0.165852
    86  H    0.124307
    87  O   -0.548547
    88  C   -0.280601
    89  H    0.125639
    90  H    0.132412
    91  C    0.613131
    92  N   -0.622577
    93  H    0.277236
    94  H    0.296991
    95  O   -0.541236
    96  N   -0.510017
    97  H    0.277668
    98  C   -0.042516
    99  H    0.148029
   100  C    0.612439
   101  C    0.153077
   102  H    0.103345
   103  O   -0.551654
   104  C   -0.323186
   105  H    0.098637
   106  H    0.131360
   107  H    0.118806
   108  O   -0.567426
   109  H    0.324554
   110  N   -0.555003
   111  H    0.318329
   112  C    0.015922
   113  H    0.139317
   114  C    0.603551
   115  C   -0.318933
   116  H    0.105115
   117  H    0.169582
   118  H    0.086799
   119  O   -0.546729
   120  N   -0.536652
   121  H    0.277372
   122  C   -0.024785
   123  H    0.156108
   124  C    0.583016
   125  C   -0.149921
   126  H    0.103495
   127  H    0.106172
   128  O   -0.539431
   129  C   -0.078790
   130  H    0.113529
   131  C   -0.311271
   132  H    0.100989
   133  H    0.107909
   134  H    0.095443
   135  C   -0.310295
   136  H    0.099387
   137  H    0.098762
   138  H    0.103872
   139  N   -0.549262
   140  H    0.300265
   141  C   -0.022154
   142  H    0.181463
   143  C    0.592717
   144  C   -0.324397
   145  H    0.150064
   146  H    0.105973
   147  H    0.122722
   148  O   -0.457676
   149  O   -0.472177
   150  H    0.330336
 Sum of Mulliken charges =   1.00000

 Dipole moment (field-independent basis, Debye):
    X=            -28.5411    Y=            -16.9668    Z=            -22.9032  Tot=             40.3364
 Quadrupole moment (field-independent basis, Debye-Ang):
   XX=            -94.4815   YY=           -335.9087   ZZ=           -243.7200
   XY=            153.0933   XZ=            221.0454   YZ=            119.9537

 Normal termination of Gaussian 16 at Thu Sep  8 14:44:22 2022.
