 Gaussian 16, Revision C.01,
 Gaussian 16:  ES64L-G16RevC.01  3-Jul-2019

 ----------------------------------------------------------------------
 # B3LYP/6-31G** empiricaldispersion=gd3bj guess=read geom=check nosymm
  integral(ultrafinegrid)
 ----------------------------------------------------------------------

 ------------------------------------------------------
 Candidate Structure: Conf:981 Charge calc in gas phase
 ------------------------------------------------------
 Structure from the checkpoint file:  "conf-981.chk"
 Charge =  1 Multiplicity = 1

                          Input orientation:
 ---------------------------------------------------------------------
 Center     Atomic      Atomic             Coordinates (Angstroms)
 Number     Number       Type             X           Y           Z
 ---------------------------------------------------------------------
      1          7           0       -8.753472   -8.477216   -7.407802
      2          1           0       -8.743371   -8.546999   -8.426947
      3          1           0       -9.654046   -8.809574   -7.059256
      4          1           0       -7.929585   -9.037769   -7.002898
      5          6           0       -8.392961   -7.099194   -6.895362
      6          1           0       -8.523830   -6.375783   -7.700769
      7          6           0       -6.904848   -7.293553   -6.514805
      8          6           0       -9.275051   -6.767818   -5.678717
      9          1           0       -9.137090   -7.564291   -4.936110
     10          1           0      -10.323260   -6.800584   -6.007068
     11          8           0       -6.517973   -8.466631   -6.364814
     12          6           0       -9.012617   -5.402402   -5.012314
     13          1           0       -7.980090   -5.378650   -4.651602
     14          6           0       -9.206152   -4.231182   -5.982599
     15          1           0      -10.232091   -4.203447   -6.367335
     16          1           0       -8.528859   -4.265557   -6.843866
     17          1           0       -9.009934   -3.285747   -5.472449
     18          6           0       -9.927597   -5.256273   -3.790508
     19          1           0      -10.983536   -5.247650   -4.083130
     20          1           0       -9.778658   -6.073244   -3.077475
     21          1           0       -9.716276   -4.318152   -3.271295
     22          7           0       -6.175886   -6.201431   -6.358881
     23          1           0       -6.605428   -5.275828   -6.386549
     24          6           0       -4.870943   -6.153745   -5.692886
     25          1           0       -4.725187   -7.097607   -5.160084
     26          6           0       -5.027259   -4.971740   -4.714980
     27          6           0       -3.713233   -5.938729   -6.701176
     28          1           0       -3.869121   -4.951467   -7.156247
     29          8           0       -5.809049   -4.057883   -5.006487
     30          6           0       -2.352556   -5.947674   -5.992113
     31          1           0       -2.179336   -6.908689   -5.493209
     32          1           0       -2.249372   -5.158687   -5.244801
     33          1           0       -1.553186   -5.814606   -6.725665
     34          6           0       -3.755099   -7.003090   -7.803559
     35          1           0       -3.658138   -8.008703   -7.381477
     36          1           0       -2.930234   -6.849263   -8.504296
     37          1           0       -4.687001   -6.962405   -8.373855
     38          7           0       -4.315257   -5.031717   -3.582847
     39          1           0       -3.550807   -5.696833   -3.488484
     40          6           0       -4.203849   -3.911902   -2.658218
     41          1           0       -4.460297   -2.997340   -3.201652
     42          6           0       -2.726282   -3.877174   -2.231651
     43          6           0       -5.147920   -4.051780   -1.434471
     44          1           0       -4.999488   -3.146807   -0.831394
     45          8           0       -1.967206   -4.810191   -2.518561
     46          6           0       -6.616289   -4.094823   -1.871822
     47          1           0       -6.826656   -5.017629   -2.422853
     48          1           0       -6.870595   -3.252987   -2.520843
     49          1           0       -7.271633   -4.073811   -0.996150
     50          6           0       -4.788426   -5.267740   -0.574279
     51          1           0       -4.893533   -6.194334   -1.148728
     52          1           0       -3.761769   -5.217309   -0.201437
     53          1           0       -5.455675   -5.333536    0.289389
     54          7           0       -2.358634   -2.805852   -1.517822
     55          1           0       -3.012390   -2.078374   -1.243900
     56          6           0       -1.047275   -2.661653   -0.919887
     57          1           0       -0.737005   -3.622097   -0.492162
     58          6           0       -1.208767   -1.610060    0.194782
     59          6           0        0.012803   -2.228114   -1.938313
     60          1           0        0.022340   -2.961559   -2.755438
     61          1           0        1.002332   -2.244338   -1.459101
     62          8           0       -2.279836   -1.034093    0.366619
     63          8           0       -0.336409   -0.928196   -2.382363
     64          1           0        0.404032   -0.570228   -2.886816
     65          7           0       -0.102578   -1.404090    0.947223
     66          1           0        0.800566   -1.705445    0.581916
     67          6           0        0.053877   -0.205088    1.758442
     68          1           0       -0.670076    0.546808    1.425945
     69          6           0        1.493007    0.278961    1.494721
     70          6           0       -0.163283   -0.502620    3.260903
     71          1           0        0.036565    0.417264    3.821439
     72          8           0        2.267379   -0.392378    0.806462
     73          6           0       -1.581337   -0.976095    3.562346
     74          1           0       -2.324215   -0.238416    3.247661
     75          1           0       -1.798150   -1.907262    3.029753
     76          1           0       -1.684231   -1.156440    4.635059
     77          8           0        0.813911   -1.428035    3.714716
     78          1           0        0.663603   -2.251334    3.227952
     79          7           0        1.822588    1.450640    2.060189
     80          1           0        1.179725    1.961298    2.655779
     81          6           0        3.178835    1.973780    2.059412
     82          1           0        3.882629    1.149215    2.182096
     83          6           0        3.269287    2.902338    3.275360
     84          6           0        3.481030    2.676233    0.710526
     85          1           0        2.653929    3.364736    0.506362
     86          1           0        3.440985    1.889813   -0.048755
     87          8           0        2.242047    3.354523    3.809327
     88          6           0        4.792071    3.466730    0.583670
     89          1           0        4.802233    4.311832    1.281246
     90          1           0        4.839607    3.892381   -0.424420
     91          6           0        6.073269    2.704604    0.888109
     92          7           0        7.156845    3.038613    0.166178
     93          1           0        7.109402    3.801123   -0.490786
     94          1           0        8.082379    2.756291    0.493762
     95          8           0        6.126677    1.855890    1.794918
     96          7           0        4.512790    3.161048    3.695055
     97          1           0        5.273117    2.719890    3.168871
     98          6           0        4.858265    4.155727    4.706301
     99          1           0        4.124966    4.972500    4.651510
    100          6           0        6.202113    4.753078    4.232417
    101          6           0        4.680476    3.519536    6.121466
    102          1           0        5.099884    2.503540    6.051258
    103          8           0        6.497431    4.697995    3.032287
    104          6           0        5.317320    4.218962    7.320669
    105          1           0        6.394618    4.038651    7.388419
    106          1           0        5.100281    5.292926    7.332443
    107          1           0        4.863456    3.793121    8.218014
    108          8           0        3.295359    3.472152    6.415386
    109          1           0        2.781027    3.379560    5.590986
    110          7           0        7.006133    5.368063    5.120857
    111          1           0        6.788578    5.336134    6.103802
    112          6           0        8.325842    5.886742    4.732918
    113          1           0        8.216548    6.291800    3.723578
    114          6           0        9.318920    4.700024    4.700350
    115          6           0        8.775848    6.960505    5.710630
    116          1           0        9.732780    7.378211    5.391711
    117          1           0        8.038015    7.765179    5.760372
    118          1           0        8.926579    6.533380    6.705206
    119          8           0       10.128615    4.511236    5.603108
    120          7           0        9.167304    3.885235    3.623158
    121          1           0        8.396078    4.074319    2.989424
    122          6           0        9.810026    2.585631    3.550705
    123          1           0       10.569185    2.580268    4.335848
    124          6           0       10.456107    2.414255    2.180863
    125          6           0        8.810028    1.422602    3.740562
    126          1           0        8.123154    1.422990    2.888804
    127          1           0        9.373671    0.481007    3.696214
    128          8           0        9.862868    2.673510    1.130435
    129          6           0        7.989428    1.473452    5.037826
    130          1           0        7.462686    2.436924    5.055552
    131          6           0        6.930898    0.363820    5.010667
    132          1           0        7.406220   -0.624069    4.993978
    133          1           0        6.295605    0.445177    4.124041
    134          1           0        6.292434    0.405434    5.899386
    135          6           0        8.856230    1.389771    6.299264
    136          1           0        9.439660    0.460726    6.305206
    137          1           0        8.229924    1.387248    7.197937
    138          1           0        9.546076    2.233989    6.377721
    139          7           0       11.709024    1.900533    2.171190
    140          1           0       12.116463    1.593823    3.042498
    141          6           0       12.303289    1.445764    0.926298
    142          1           0       12.274273    2.266537    0.206010
    143          6           0       11.508795    0.312346    0.274081
    144          6           0       13.749751    0.998662    1.153271
    145          1           0       14.187458    0.672497    0.208224
    146          1           0       14.343462    1.826766    1.548639
    147          1           0       13.793791    0.162802    1.859406
    148          8           0       11.549949    0.061970   -0.907023
    149          8           0       10.811249   -0.422390    1.169873
    150          1           0       10.355280   -1.111805    0.658489
 ---------------------------------------------------------------------

 SCF Done:  E(RB3LYP) =  -3455.96745962     A.U. after    1 cycles

 Alpha  occ. eigenvalues --  -19.26977 -19.24111 -19.21757 -19.20879 -19.19420
 Alpha  occ. eigenvalues --  -19.18831 -19.18545 -19.18033 -19.17721 -19.17471
 Alpha  occ. eigenvalues --  -19.17186 -19.17036 -19.16101 -19.16085 -19.15444
 Alpha  occ. eigenvalues --  -14.59522 -14.49323 -14.45129 -14.42956 -14.42057
 Alpha  occ. eigenvalues --  -14.41571 -14.41497 -14.40674 -14.40347 -14.39271
 Alpha  occ. eigenvalues --  -14.39023 -10.43457 -10.40420 -10.38667 -10.36297
 Alpha  occ. eigenvalues --  -10.36184 -10.35359 -10.35065 -10.33986 -10.33965
 Alpha  occ. eigenvalues --  -10.33934 -10.33796 -10.33491 -10.33246 -10.32488
 Alpha  occ. eigenvalues --  -10.31070 -10.30485 -10.30168 -10.30068 -10.29067
 Alpha  occ. eigenvalues --  -10.28850 -10.28794 -10.28729 -10.28301 -10.28222
 Alpha  occ. eigenvalues --  -10.28102 -10.27954 -10.27740 -10.27291 -10.27239
 Alpha  occ. eigenvalues --  -10.27062 -10.26198 -10.25656 -10.24808 -10.24478
 Alpha  occ. eigenvalues --  -10.24000 -10.23977 -10.23929 -10.22401 -10.22354
 Alpha  occ. eigenvalues --  -10.22109 -10.21842 -10.21449 -10.20046 -10.19826
 Alpha  occ. eigenvalues --   -1.19467  -1.14913  -1.13951  -1.13280  -1.11473
 Alpha  occ. eigenvalues --   -1.10415  -1.10184  -1.09304  -1.09028  -1.08608
 Alpha  occ. eigenvalues --   -1.08236  -1.07477  -1.07156  -1.06520  -1.06202
 Alpha  occ. eigenvalues --   -1.05823  -1.04173  -1.01900  -0.99745  -0.98430
 Alpha  occ. eigenvalues --   -0.98403  -0.98125  -0.97495  -0.97355  -0.96186
 Alpha  occ. eigenvalues --   -0.94696  -0.94307  -0.90870  -0.88417  -0.87898
 Alpha  occ. eigenvalues --   -0.85177  -0.84736  -0.84007  -0.82983  -0.82848
 Alpha  occ. eigenvalues --   -0.82691  -0.81433  -0.80381  -0.79948  -0.78660
 Alpha  occ. eigenvalues --   -0.78215  -0.78092  -0.77943  -0.76932  -0.76422
 Alpha  occ. eigenvalues --   -0.75717  -0.74460  -0.73671  -0.72745  -0.72140
 Alpha  occ. eigenvalues --   -0.72133  -0.71249  -0.71051  -0.70375  -0.68936
 Alpha  occ. eigenvalues --   -0.68581  -0.68499  -0.67892  -0.67120  -0.66944
 Alpha  occ. eigenvalues --   -0.65974  -0.65697  -0.65608  -0.64927  -0.64624
 Alpha  occ. eigenvalues --   -0.64102  -0.64003  -0.63699  -0.63144  -0.62980
 Alpha  occ. eigenvalues --   -0.62483  -0.62398  -0.61978  -0.61597  -0.60171
 Alpha  occ. eigenvalues --   -0.59815  -0.59491  -0.58836  -0.58652  -0.58311
 Alpha  occ. eigenvalues --   -0.57779  -0.56980  -0.56841  -0.56332  -0.56160
 Alpha  occ. eigenvalues --   -0.55918  -0.55163  -0.54866  -0.54645  -0.54508
 Alpha  occ. eigenvalues --   -0.54098  -0.54050  -0.53619  -0.53565  -0.53417
 Alpha  occ. eigenvalues --   -0.53169  -0.52953  -0.52786  -0.52648  -0.52429
 Alpha  occ. eigenvalues --   -0.52007  -0.51786  -0.51592  -0.51309  -0.51155
 Alpha  occ. eigenvalues --   -0.50712  -0.50472  -0.50383  -0.50034  -0.49926
 Alpha  occ. eigenvalues --   -0.49786  -0.49491  -0.49282  -0.49163  -0.48802
 Alpha  occ. eigenvalues --   -0.48698  -0.48496  -0.48255  -0.48027  -0.47868
 Alpha  occ. eigenvalues --   -0.47572  -0.47539  -0.47507  -0.47410  -0.46748
 Alpha  occ. eigenvalues --   -0.46524  -0.46285  -0.46167  -0.45885  -0.45721
 Alpha  occ. eigenvalues --   -0.45658  -0.45464  -0.45376  -0.45039  -0.44949
 Alpha  occ. eigenvalues --   -0.44714  -0.44536  -0.44430  -0.44228  -0.44071
 Alpha  occ. eigenvalues --   -0.44001  -0.43983  -0.43726  -0.43664  -0.43392
 Alpha  occ. eigenvalues --   -0.43256  -0.43059  -0.42798  -0.42742  -0.42546
 Alpha  occ. eigenvalues --   -0.42403  -0.42345  -0.42202  -0.41975  -0.41807
 Alpha  occ. eigenvalues --   -0.41739  -0.41694  -0.41487  -0.41473  -0.41154
 Alpha  occ. eigenvalues --   -0.41013  -0.40928  -0.40828  -0.40725  -0.40565
 Alpha  occ. eigenvalues --   -0.40239  -0.40219  -0.39998  -0.39341  -0.39180
 Alpha  occ. eigenvalues --   -0.38799  -0.38759  -0.37842  -0.37104  -0.36020
 Alpha  occ. eigenvalues --   -0.35847  -0.35714  -0.35510  -0.35331  -0.35054
 Alpha  occ. eigenvalues --   -0.34231  -0.33620  -0.33529  -0.33092  -0.33007
 Alpha  occ. eigenvalues --   -0.32467  -0.32126  -0.31971  -0.31788  -0.31570
 Alpha  occ. eigenvalues --   -0.31450  -0.30873  -0.30807  -0.30290  -0.30098
 Alpha  occ. eigenvalues --   -0.30015  -0.29400  -0.29112  -0.28619  -0.28299
 Alpha virt. eigenvalues --   -0.12432  -0.10687  -0.07718  -0.06028  -0.05343
 Alpha virt. eigenvalues --   -0.04718  -0.04619  -0.04084  -0.03756  -0.03555
 Alpha virt. eigenvalues --   -0.02651  -0.02182  -0.01980  -0.01969  -0.01220

 Mulliken charges:
               1
     1  N   -0.555048
     2  H    0.350557
     3  H    0.344959
     4  H    0.373005
     5  C   -0.099553
     6  H    0.171974
     7  C    0.637538
     8  C   -0.183134
     9  H    0.128174
    10  H    0.123573
    11  O   -0.545357
    12  C   -0.096179
    13  H    0.126035
    14  C   -0.317915
    15  H    0.113394
    16  H    0.086776
    17  H    0.149632
    18  C   -0.318213
    19  H    0.113578
    20  H    0.112723
    21  H    0.134943
    22  N   -0.509933
    23  H    0.309677
    24  C   -0.030915
    25  H    0.144125
    26  C    0.613886
    27  C   -0.053404
    28  H    0.110267
    29  O   -0.557847
    30  C   -0.337994
    31  H    0.113817
    32  H    0.131892
    33  H    0.124804
    34  C   -0.311126
    35  H    0.122207
    36  H    0.125279
    37  H    0.087670
    38  N   -0.510155
    39  H    0.294063
    40  C   -0.032114
    41  H    0.149065
    42  C    0.617416
    43  C   -0.057272
    44  H    0.112797
    45  O   -0.563210
    46  C   -0.314951
    47  H    0.094391
    48  H    0.119032
    49  H    0.112332
    50  C   -0.325349
    51  H    0.102327
    52  H    0.121621
    53  H    0.117773
    54  N   -0.519144
    55  H    0.295806
    56  C   -0.030888
    57  H    0.145636
    58  C    0.615613
    59  C    0.051314
    60  H    0.119285
    61  H    0.106639
    62  O   -0.534843
    63  O   -0.534100
    64  H    0.321119
    65  N   -0.546008
    66  H    0.290713
    67  C   -0.049737
    68  H    0.141935
    69  C    0.631822
    70  C    0.177434
    71  H    0.110515
    72  O   -0.558673
    73  C   -0.319264
    74  H    0.117335
    75  H    0.102046
    76  H    0.121708
    77  O   -0.537726
    78  H    0.303635
    79  N   -0.539376
    80  H    0.286772
    81  C   -0.003454
    82  H    0.174136
    83  C    0.580400
    84  C   -0.169042
    85  H    0.106921
    86  H    0.135588
    87  O   -0.579312
    88  C   -0.296192
    89  H    0.164597
    90  H    0.103703
    91  C    0.621834
    92  N   -0.614890
    93  H    0.270453
    94  H    0.330537
    95  O   -0.559378
    96  N   -0.535045
    97  H    0.331613
    98  C   -0.049809
    99  H    0.160314
   100  C    0.590716
   101  C    0.220703
   102  H    0.100173
   103  O   -0.553137
   104  C   -0.367868
   105  H    0.111127
   106  H    0.115096
   107  H    0.145312
   108  O   -0.575933
   109  H    0.335658
   110  N   -0.526399
   111  H    0.276081
   112  C   -0.024339
   113  H    0.140619
   114  C    0.604527
   115  C   -0.325522
   116  H    0.133120
   117  H    0.111366
   118  H    0.134066
   119  O   -0.524690
   120  N   -0.520170
   121  H    0.298120
   122  C   -0.049595
   123  H    0.130197
   124  C    0.647092
   125  C   -0.179895
   126  H    0.141419
   127  H    0.095388
   128  O   -0.559370
   129  C   -0.061409
   130  H    0.069907
   131  C   -0.322483
   132  H    0.096362
   133  H    0.122378
   134  H    0.100340
   135  C   -0.331871
   136  H    0.093046
   137  H    0.096839
   138  H    0.133863
   139  N   -0.522182
   140  H    0.275172
   141  C    0.016680
   142  H    0.162951
   143  C    0.598014
   144  C   -0.354432
   145  H    0.149558
   146  H    0.134352
   147  H    0.121791
   148  O   -0.462533
   149  O   -0.484374
   150  H    0.329993
 Sum of Mulliken charges =   1.00000

 Dipole moment (field-independent basis, Debye):
    X=            -25.0632    Y=            -26.3888    Z=            -26.3611  Tot=             44.9381
 Quadrupole moment (field-independent basis, Debye-Ang):
   XX=            -26.8645   YY=           -164.3066   ZZ=           -220.9649
   XY=            281.7719   XZ=            256.4339   YZ=            213.8014

 Normal termination of Gaussian 16 at Thu Sep  8 14:49:03 2022.
