 Gaussian 16, Revision C.01,
 Gaussian 16:  ES64L-G16RevC.01  3-Jul-2019

 ----------------------------------------------------------------------
 # B3LYP/6-31G** empiricaldispersion=gd3bj guess=read geom=check nosymm
  integral(ultrafinegrid)
 ----------------------------------------------------------------------

 ------------------------------------------------------
 Candidate Structure: Conf:817 Charge calc in gas phase
 ------------------------------------------------------
 Structure from the checkpoint file:  "conf-817.chk"
 Charge =  1 Multiplicity = 1

                          Input orientation:
 ---------------------------------------------------------------------
 Center     Atomic      Atomic             Coordinates (Angstroms)
 Number     Number       Type             X           Y           Z
 ---------------------------------------------------------------------
      1          7           0       -6.707878    1.398803  -10.146822
      2          1           0       -6.300234    2.187112  -10.652156
      3          1           0       -7.716092    1.386000  -10.311149
      4          1           0       -6.243083    0.480344  -10.463304
      5          6           0       -6.352742    1.377331   -8.674808
      6          1           0       -5.850263    2.314389   -8.428896
      7          6           0       -5.352323    0.193770   -8.616331
      8          6           0       -7.624112    1.194246   -7.831750
      9          1           0       -8.115567    0.264021   -8.144623
     10          1           0       -8.301119    2.023016   -8.079906
     11          8           0       -5.245544   -0.513789   -9.632557
     12          6           0       -7.432231    1.174385   -6.300069
     13          1           0       -6.865466    0.277062   -6.028700
     14          6           0       -6.680600    2.408266   -5.778920
     15          1           0       -7.178052    3.333773   -6.090814
     16          1           0       -5.634469    2.468268   -6.102738
     17          1           0       -6.658987    2.398835   -4.686590
     18          6           0       -8.812128    1.063112   -5.638055
     19          1           0       -9.421248    1.950305   -5.843826
     20          1           0       -9.359586    0.184857   -5.994008
     21          1           0       -8.707545    0.974990   -4.553871
     22          7           0       -4.679040    0.047279   -7.487880
     23          1           0       -4.902831    0.625767   -6.686222
     24          6           0       -3.706922   -1.002181   -7.198739
     25          1           0       -3.863541   -1.822108   -7.905841
     26          6           0       -4.014544   -1.429780   -5.755905
     27          6           0       -2.249855   -0.450700   -7.339836
     28          1           0       -2.132363    0.320954   -6.568164
     29          8           0       -4.665301   -0.668619   -5.017716
     30          6           0       -1.188601   -1.540329   -7.124953
     31          1           0       -1.377574   -2.411193   -7.766302
     32          1           0       -1.103203   -1.866488   -6.087168
     33          1           0       -0.208210   -1.148879   -7.407659
     34          6           0       -2.065218    0.199299   -8.717310
     35          1           0       -2.239141   -0.520617   -9.523780
     36          1           0       -1.042956    0.573574   -8.810954
     37          1           0       -2.736109    1.049338   -8.864295
     38          7           0       -3.503167   -2.594050   -5.326994
     39          1           0       -2.907832   -3.112516   -5.959656
     40          6           0       -3.305152   -2.864753   -3.886623
     41          1           0       -4.243315   -2.622868   -3.379440
     42          6           0       -2.186431   -1.895108   -3.466341
     43          6           0       -2.932483   -4.329503   -3.638873
     44          1           0       -2.010537   -4.523038   -4.202814
     45          8           0       -0.999296   -2.159130   -3.658330
     46          6           0       -2.624129   -4.546051   -2.150667
     47          1           0       -3.481135   -4.263429   -1.527522
     48          1           0       -1.748447   -3.979611   -1.825295
     49          1           0       -2.418500   -5.603047   -1.963093
     50          6           0       -4.041512   -5.268826   -4.124926
     51          1           0       -4.963840   -5.109196   -3.555128
     52          1           0       -4.275713   -5.125897   -5.184361
     53          1           0       -3.741909   -6.310821   -3.986687
     54          7           0       -2.602058   -0.699094   -2.990628
     55          1           0       -3.595936   -0.551791   -2.886064
     56          6           0       -1.718251    0.465717   -2.947522
     57          1           0       -0.943361    0.291512   -3.703741
     58          6           0       -1.004824    0.600364   -1.594983
     59          6           0       -2.500315    1.729588   -3.317714
     60          1           0       -1.817800    2.578684   -3.302880
     61          1           0       -3.272948    1.922857   -2.559214
     62          8           0       -0.882761    1.691832   -1.033325
     63          8           0       -3.060866    1.642727   -4.622976
     64          1           0       -3.703716    0.914525   -4.622782
     65          7           0       -0.524787   -0.560740   -1.105552
     66          1           0       -0.467922   -1.385144   -1.698830
     67          6           0        0.183458   -0.640198    0.162832
     68          1           0       -0.260452    0.090232    0.845600
     69          6           0        1.658074   -0.278381   -0.058848
     70          6           0        0.049615   -2.065500    0.724399
     71          1           0        0.704386   -2.124538    1.604268
     72          8           0        2.549699   -1.141839   -0.066095
     73          6           0       -1.380788   -2.401089    1.113977
     74          1           0       -1.727507   -1.749586    1.921435
     75          1           0       -2.050929   -2.279391    0.258078
     76          1           0       -1.436029   -3.438743    1.450522
     77          8           0        0.464710   -2.998495   -0.267767
     78          1           0        1.410816   -2.811410   -0.404244
     79          7           0        1.890057    1.027856   -0.273949
     80          1           0        1.090538    1.656269   -0.298533
     81          6           0        3.223752    1.548479   -0.579933
     82          1           0        3.754889    0.758351   -1.122984
     83          6           0        3.965636    1.797086    0.748681
     84          6           0        3.110777    2.803412   -1.435831
     85          1           0        2.623503    3.591883   -0.852957
     86          1           0        2.478345    2.590635   -2.301701
     87          8           0        4.244796    2.935071    1.142463
     88          6           0        4.463710    3.307765   -1.935866
     89          1           0        5.033515    2.478334   -2.377355
     90          1           0        5.054578    3.698384   -1.103720
     91          6           0        4.281496    4.351665   -3.035306
     92          7           0        5.246551    5.312144   -3.083074
     93          1           0        5.949803    5.402347   -2.368421
     94          1           0        5.169678    6.031399   -3.786009
     95          8           0        3.357318    4.306247   -3.837451
     96          7           0        4.247346    0.675269    1.442989
     97          1           0        3.885041   -0.205778    1.084202
     98          6           0        4.641396    0.729067    2.849151
     99          1           0        4.158279    1.608809    3.291664
    100          6           0        6.168898    0.907854    2.964834
    101          6           0        4.163939   -0.527749    3.578857
    102          1           0        4.749685   -1.380254    3.208375
    103          8           0        6.908622    0.029177    3.415758
    104          6           0        4.342371   -0.406329    5.087937
    105          1           0        5.397622   -0.293542    5.340932
    106          1           0        3.779782    0.451447    5.468484
    107          1           0        3.971478   -1.308266    5.587035
    108          8           0        2.779790   -0.683347    3.229988
    109          1           0        2.465074   -1.471568    3.690578
    110          7           0        6.607091    2.103323    2.519668
    111          1           0        5.916047    2.753051    2.147173
    112          6           0        8.028224    2.446285    2.464085
    113          1           0        8.571903    1.514515    2.275661
    114          6           0        8.460741    2.996511    3.840876
    115          6           0        8.280574    3.458837    1.357029
    116          1           0        9.346929    3.681671    1.285933
    117          1           0        7.933874    3.064234    0.397690
    118          1           0        7.765961    4.397238    1.577793
    119          8           0        8.696941    4.188971    4.020489
    120          7           0        8.503065    2.049715    4.808729
    121          1           0        8.280494    1.086408    4.570383
    122          6           0        8.718394    2.367959    6.205666
    123          1           0        9.071669    3.400691    6.240781
    124          6           0        9.772520    1.408352    6.761202
    125          6           0        7.427991    2.206059    7.038549
    126          1           0        7.167154    1.140437    7.035951
    127          1           0        7.656346    2.470439    8.080183
    128          8           0        9.772276    0.216433    6.463730
    129          6           0        6.226351    3.031444    6.554086
    130          1           0        6.021878    2.740533    5.514682
    131          6           0        4.992278    2.686212    7.396768
    132          1           0        5.137848    2.987027    8.441045
    133          1           0        4.785676    1.610994    7.387213
    134          1           0        4.103588    3.206651    7.024454
    135          6           0        6.502183    4.539870    6.579814
    136          1           0        6.776639    4.864624    7.591355
    137          1           0        5.607043    5.098810    6.287083
    138          1           0        7.305607    4.816533    5.893265
    139          7           0       10.656966    1.953894    7.631889
    140          1           0       10.611467    2.930192    7.892753
    141          6           0       11.628264    1.139448    8.336057
    142          1           0       11.133234    0.230023    8.696351
    143          6           0       12.101727    1.937126    9.536956
    144          6           0       12.808403    0.723947    7.440387
    145          1           0       13.509035    0.096632    7.995597
    146          1           0       12.413138    0.161389    6.593543
    147          1           0       13.335052    1.607517    7.068861
    148          8           0       11.821361    3.098099    9.750413
    149          8           0       12.898976    1.208555   10.340175
    150          1           0       13.177111    1.795159   11.063981
 ---------------------------------------------------------------------

 SCF Done:  E(RB3LYP) =  -3455.96490767     A.U. after    3 cycles

 Alpha  occ. eigenvalues --  -19.28270 -19.25304 -19.23894 -19.23045 -19.21539
 Alpha  occ. eigenvalues --  -19.19812 -19.19614 -19.19593 -19.19050 -19.18369
 Alpha  occ. eigenvalues --  -19.17447 -19.15779 -19.15219 -19.13912 -19.13685
 Alpha  occ. eigenvalues --  -14.60310 -14.50926 -14.48859 -14.46097 -14.43126
 Alpha  occ. eigenvalues --  -14.42496 -14.40626 -14.39948 -14.39364 -14.38851
 Alpha  occ. eigenvalues --  -14.37486 -10.44791 -10.41976 -10.41436 -10.38501
 Alpha  occ. eigenvalues --  -10.36553 -10.36206 -10.36202 -10.35501 -10.34295
 Alpha  occ. eigenvalues --  -10.33942 -10.33628 -10.33065 -10.32642 -10.31795
 Alpha  occ. eigenvalues --  -10.31754 -10.31690 -10.31049 -10.30722 -10.30409
 Alpha  occ. eigenvalues --  -10.29950 -10.29629 -10.29173 -10.28983 -10.28556
 Alpha  occ. eigenvalues --  -10.28289 -10.28289 -10.27648 -10.27436 -10.27340
 Alpha  occ. eigenvalues --  -10.27084 -10.26361 -10.25835 -10.25307 -10.24787
 Alpha  occ. eigenvalues --  -10.23954 -10.23812 -10.23624 -10.21539 -10.21383
 Alpha  occ. eigenvalues --  -10.21270 -10.21138 -10.21105 -10.19898 -10.18745
 Alpha  occ. eigenvalues --   -1.20752  -1.17135  -1.14957  -1.14331  -1.13670
 Alpha  occ. eigenvalues --   -1.11581  -1.10643  -1.10216  -1.09084  -1.08015
 Alpha  occ. eigenvalues --   -1.07544  -1.07329  -1.07083  -1.06776  -1.06332
 Alpha  occ. eigenvalues --   -1.05813  -1.05235  -1.05145  -1.02363  -0.99950
 Alpha  occ. eigenvalues --   -0.98920  -0.97321  -0.96022  -0.95819  -0.95539
 Alpha  occ. eigenvalues --   -0.94514  -0.94370  -0.92399  -0.89977  -0.89066
 Alpha  occ. eigenvalues --   -0.86341  -0.85170  -0.84341  -0.83682  -0.83204
 Alpha  occ. eigenvalues --   -0.82740  -0.81345  -0.81273  -0.80194  -0.79931
 Alpha  occ. eigenvalues --   -0.79322  -0.78960  -0.78272  -0.76721  -0.76611
 Alpha  occ. eigenvalues --   -0.76505  -0.74898  -0.74426  -0.74037  -0.73336
 Alpha  occ. eigenvalues --   -0.72436  -0.71152  -0.70587  -0.70284  -0.69514
 Alpha  occ. eigenvalues --   -0.69296  -0.68903  -0.68553  -0.68503  -0.67770
 Alpha  occ. eigenvalues --   -0.67526  -0.66841  -0.66259  -0.66066  -0.65111
 Alpha  occ. eigenvalues --   -0.64644  -0.64133  -0.63574  -0.63218  -0.62662
 Alpha  occ. eigenvalues --   -0.61981  -0.61769  -0.61588  -0.61161  -0.60933
 Alpha  occ. eigenvalues --   -0.60586  -0.60231  -0.60025  -0.59147  -0.58728
 Alpha  occ. eigenvalues --   -0.58641  -0.58419  -0.57983  -0.57784  -0.57628
 Alpha  occ. eigenvalues --   -0.57438  -0.57170  -0.56809  -0.56315  -0.56161
 Alpha  occ. eigenvalues --   -0.55837  -0.54928  -0.54839  -0.54548  -0.54180
 Alpha  occ. eigenvalues --   -0.53306  -0.53194  -0.52919  -0.52874  -0.52237
 Alpha  occ. eigenvalues --   -0.52127  -0.52021  -0.51773  -0.51592  -0.51278
 Alpha  occ. eigenvalues --   -0.51261  -0.51093  -0.51005  -0.50795  -0.50159
 Alpha  occ. eigenvalues --   -0.49945  -0.49827  -0.49710  -0.49527  -0.49392
 Alpha  occ. eigenvalues --   -0.49362  -0.49114  -0.48964  -0.48685  -0.48471
 Alpha  occ. eigenvalues --   -0.48240  -0.47999  -0.47985  -0.47826  -0.47723
 Alpha  occ. eigenvalues --   -0.46985  -0.46453  -0.46316  -0.46130  -0.45933
 Alpha  occ. eigenvalues --   -0.45783  -0.45641  -0.45592  -0.45336  -0.45226
 Alpha  occ. eigenvalues --   -0.45171  -0.45020  -0.44840  -0.44580  -0.44427
 Alpha  occ. eigenvalues --   -0.44215  -0.44094  -0.44000  -0.43897  -0.43773
 Alpha  occ. eigenvalues --   -0.43609  -0.43238  -0.43013  -0.42914  -0.42840
 Alpha  occ. eigenvalues --   -0.42653  -0.42443  -0.42388  -0.42210  -0.41990
 Alpha  occ. eigenvalues --   -0.41651  -0.41635  -0.41548  -0.41420  -0.41212
 Alpha  occ. eigenvalues --   -0.41161  -0.40772  -0.40650  -0.40459  -0.40329
 Alpha  occ. eigenvalues --   -0.40147  -0.39884  -0.39722  -0.39468  -0.39169
 Alpha  occ. eigenvalues --   -0.38984  -0.38904  -0.38844  -0.38631  -0.37793
 Alpha  occ. eigenvalues --   -0.37448  -0.36757  -0.36099  -0.36058  -0.35484
 Alpha  occ. eigenvalues --   -0.34894  -0.34731  -0.34675  -0.34432  -0.33845
 Alpha  occ. eigenvalues --   -0.33196  -0.32376  -0.32338  -0.31959  -0.31918
 Alpha  occ. eigenvalues --   -0.30982  -0.30911  -0.30746  -0.30155  -0.29122
 Alpha  occ. eigenvalues --   -0.28722  -0.28374  -0.28296  -0.26615  -0.26416
 Alpha virt. eigenvalues --   -0.13458  -0.11774  -0.11535  -0.08139  -0.06889
 Alpha virt. eigenvalues --   -0.06500  -0.05676  -0.04965  -0.03220  -0.03150
 Alpha virt. eigenvalues --   -0.03087  -0.02276  -0.02237  -0.01974  -0.01340

 Mulliken charges:
               1
     1  N   -0.559627
     2  H    0.353165
     3  H    0.346936
     4  H    0.375985
     5  C   -0.102176
     6  H    0.183089
     7  C    0.637770
     8  C   -0.185243
     9  H    0.129263
    10  H    0.127569
    11  O   -0.542618
    12  C   -0.101634
    13  H    0.129147
    14  C   -0.335601
    15  H    0.117711
    16  H    0.105230
    17  H    0.143529
    18  C   -0.318415
    19  H    0.118063
    20  H    0.115827
    21  H    0.131518
    22  N   -0.497845
    23  H    0.308745
    24  C   -0.048989
    25  H    0.154099
    26  C    0.632770
    27  C   -0.066373
    28  H    0.134877
    29  O   -0.577669
    30  C   -0.362696
    31  H    0.103406
    32  H    0.142586
    33  H    0.137721
    34  C   -0.311827
    35  H    0.122439
    36  H    0.134654
    37  H    0.083485
    38  N   -0.510442
    39  H    0.287437
    40  C    0.007461
    41  H    0.127490
    42  C    0.609189
    43  C   -0.085766
    44  H    0.118788
    45  O   -0.540059
    46  C   -0.343329
    47  H    0.101441
    48  H    0.155708
    49  H    0.124379
    50  C   -0.316614
    51  H    0.111957
    52  H    0.095541
    53  H    0.128495
    54  N   -0.512079
    55  H    0.276446
    56  C   -0.055081
    57  H    0.166121
    58  C    0.628558
    59  C    0.038630
    60  H    0.155916
    61  H    0.103589
    62  O   -0.548472
    63  O   -0.579495
    64  H    0.327634
    65  N   -0.524783
    66  H    0.303236
    67  C   -0.040878
    68  H    0.143389
    69  C    0.649626
    70  C    0.155586
    71  H    0.104228
    72  O   -0.578257
    73  C   -0.317458
    74  H    0.109585
    75  H    0.100830
    76  H    0.126633
    77  O   -0.559875
    78  H    0.331248
    79  N   -0.531546
    80  H    0.301365
    81  C   -0.034677
    82  H    0.139825
    83  C    0.629629
    84  C   -0.181266
    85  H    0.127275
    86  H    0.129376
    87  O   -0.554167
    88  C   -0.279543
    89  H    0.130091
    90  H    0.131022
    91  C    0.575972
    92  N   -0.607718
    93  H    0.275194
    94  H    0.279071
    95  O   -0.517667
    96  N   -0.528980
    97  H    0.311689
    98  C   -0.021446
    99  H    0.141115
   100  C    0.631745
   101  C    0.152536
   102  H    0.112255
   103  O   -0.549405
   104  C   -0.347828
   105  H    0.150884
   106  H    0.118560
   107  H    0.097012
   108  O   -0.565627
   109  H    0.310813
   110  N   -0.530840
   111  H    0.299634
   112  C   -0.024125
   113  H    0.136489
   114  C    0.611591
   115  C   -0.322703
   116  H    0.128154
   117  H    0.094632
   118  H    0.131634
   119  O   -0.532653
   120  N   -0.518985
   121  H    0.299544
   122  C   -0.037993
   123  H    0.130996
   124  C    0.613338
   125  C   -0.157009
   126  H    0.107749
   127  H    0.093666
   128  O   -0.539333
   129  C   -0.059495
   130  H    0.085638
   131  C   -0.313811
   132  H    0.101562
   133  H    0.097183
   134  H    0.095502
   135  C   -0.330833
   136  H    0.091274
   137  H    0.093476
   138  H    0.142897
   139  N   -0.538825
   140  H    0.282705
   141  C    0.018472
   142  H    0.155943
   143  C    0.577327
   144  C   -0.316659
   145  H    0.126351
   146  H    0.151884
   147  H    0.113680
   148  O   -0.472262
   149  O   -0.478428
   150  H    0.331659
 Sum of Mulliken charges =   1.00000

 Dipole moment (field-independent basis, Debye):
    X=            -27.8586    Y=              1.3322    Z=            -35.8954  Tot=             45.4572
 Quadrupole moment (field-independent basis, Debye-Ang):
   XX=           -186.7236   YY=           -403.2441   ZZ=            -30.8195
   XY=            -17.2280   XZ=            268.3268   YZ=            -48.3538

 Normal termination of Gaussian 16 at Thu Sep  8 14:49:25 2022.
