 Gaussian 16, Revision C.01,
 Gaussian 16:  ES64L-G16RevC.01  3-Jul-2019

 ----------------------------------------------------------------------
 # B3LYP/6-31G** empiricaldispersion=gd3bj guess=read geom=check nosymm
  integral(ultrafinegrid)
 ----------------------------------------------------------------------

 ------------------------------------------------------
 Candidate Structure: Conf:304 Charge calc in gas phase
 ------------------------------------------------------
 Structure from the checkpoint file:  "conf-304.chk"
 Charge =  1 Multiplicity = 1

                          Input orientation:
 ---------------------------------------------------------------------
 Center     Atomic      Atomic             Coordinates (Angstroms)
 Number     Number       Type             X           Y           Z
 ---------------------------------------------------------------------
      1          7           0       -9.987174   -5.323108   -8.836144
      2          1           0      -10.562955   -5.156480   -9.661900
      3          1           0      -10.374947   -6.114644   -8.320371
      4          1           0       -8.953993   -5.489103   -9.121298
      5          6           0       -9.801082   -4.098792   -7.970694
      6          1           0      -10.434489   -3.300172   -8.359643
      7          6           0       -8.301831   -3.777870   -8.195903
      8          6           0      -10.112997   -4.400335   -6.501650
      9          1           0       -9.846056   -3.510349   -5.920687
     10          1           0       -9.435062   -5.194271   -6.161379
     11          8           0       -7.640508   -4.609114   -8.845686
     12          6           0      -11.574658   -4.780209   -6.198779
     13          1           0      -11.830434   -5.691803   -6.765078
     14          6           0      -11.708964   -5.119730   -4.708899
     15          1           0      -11.483351   -4.243309   -4.092058
     16          1           0      -11.026508   -5.923274   -4.415540
     17          1           0      -12.727585   -5.439612   -4.475617
     18          6           0      -12.557048   -3.675394   -6.604938
     19          1           0      -12.322195   -2.738783   -6.087428
     20          1           0      -12.553015   -3.474674   -7.682137
     21          1           0      -13.578953   -3.954581   -6.336461
     22          7           0       -7.853212   -2.658719   -7.659392
     23          1           0       -8.432728   -2.098117   -7.030798
     24          6           0       -6.444740   -2.279340   -7.528723
     25          1           0       -5.830342   -3.175554   -7.655549
     26          6           0       -6.368591   -1.736429   -6.087903
     27          6           0       -6.039261   -1.211478   -8.579622
     28          1           0       -6.673174   -0.334185   -8.393386
     29          8           0       -7.386157   -1.249905   -5.579491
     30          6           0       -4.569160   -0.796208   -8.428628
     31          1           0       -3.903395   -1.663836   -8.508057
     32          1           0       -4.354310   -0.291433   -7.485487
     33          1           0       -4.299027   -0.108673   -9.234396
     34          6           0       -6.312443   -1.724885   -9.998222
     35          1           0       -5.729626   -2.627573  -10.208145
     36          1           0       -6.032638   -0.963709  -10.731367
     37          1           0       -7.368645   -1.960817  -10.152888
     38          7           0       -5.182491   -1.840292   -5.478375
     39          1           0       -4.359245   -2.137665   -5.994971
     40          6           0       -4.847670   -1.145703   -4.238263
     41          1           0       -5.631385   -0.406731   -4.047240
     42          6           0       -3.499757   -0.474151   -4.535450
     43          6           0       -4.752096   -2.120066   -3.037182
     44          1           0       -3.964599   -2.844310   -3.284673
     45          8           0       -2.690814   -1.036828   -5.274340
     46          6           0       -4.356328   -1.388567   -1.748380
     47          1           0       -5.069126   -0.585751   -1.519925
     48          1           0       -3.353881   -0.957876   -1.782939
     49          1           0       -4.373730   -2.082798   -0.904001
     50          6           0       -6.075355   -2.872186   -2.857950
     51          1           0       -6.892772   -2.176708   -2.640032
     52          1           0       -6.343784   -3.435548   -3.755617
     53          1           0       -5.997921   -3.577711   -2.025714
     54          7           0       -3.295569    0.724508   -3.955906
     55          1           0       -3.952976    1.083655   -3.275844
     56          6           0       -2.028411    1.431995   -4.038937
     57          1           0       -1.329089    0.772824   -4.557093
     58          6           0       -1.607422    1.723124   -2.598707
     59          6           0       -2.173465    2.738103   -4.822262
     60          1           0       -1.198141    3.248988   -4.829280
     61          1           0       -2.888830    3.384462   -4.293850
     62          8           0       -2.420744    2.252473   -1.828450
     63          8           0       -2.611032    2.405464   -6.127777
     64          1           0       -2.734722    3.227428   -6.618410
     65          7           0       -0.364700    1.363497   -2.250119
     66          1           0        0.263188    0.888719   -2.889586
     67          6           0        0.148869    1.522271   -0.901957
     68          1           0       -0.200020    2.483802   -0.509864
     69          6           0        1.674876    1.490496   -1.022180
     70          6           0       -0.352424    0.382250    0.042544
     71          1           0        0.170400   -0.537739   -0.246273
     72          8           0        2.206200    0.857284   -1.939675
     73          6           0       -0.078996    0.691537    1.513665
     74          1           0        0.987357    0.758279    1.742938
     75          1           0       -0.554052    1.636468    1.802875
     76          1           0       -0.511722   -0.102041    2.126541
     77          8           0       -1.730283    0.118735   -0.173179
     78          1           0       -2.187356    0.966764   -0.302839
     79          7           0        2.355908    2.153157   -0.071990
     80          1           0        1.879631    2.548796    0.734741
     81          6           0        3.777708    1.945025    0.148116
     82          1           0        3.994278    0.879466    0.016910
     83          6           0        4.022352    2.250591    1.634038
     84          6           0        4.681643    2.753417   -0.822178
     85          1           0        5.468758    3.263973   -0.261822
     86          1           0        4.065754    3.526391   -1.288613
     87          8           0        3.085483    2.584358    2.378254
     88          6           0        5.314421    1.884384   -1.910198
     89          1           0        5.793202    2.512706   -2.670380
     90          1           0        4.530786    1.304407   -2.411921
     91          6           0        6.350286    0.918489   -1.347915
     92          7           0        7.061032    0.215523   -2.261339
     93          1           0        6.910634    0.314332   -3.251937
     94          1           0        7.743636   -0.449661   -1.929281
     95          8           0        6.534176    0.762576   -0.138608
     96          7           0        5.290362    2.104106    2.031297
     97          1           0        5.974368    1.727466    1.368889
     98          6           0        5.679210    2.200213    3.420986
     99          1           0        5.062166    2.969353    3.900477
    100          6           0        7.152563    2.605844    3.450362
    101          6           0        5.426801    0.844611    4.151702
    102          1           0        6.082571    0.099385    3.688621
    103          8           0        7.884322    2.416859    2.477122
    104          6           0        5.707023    0.889356    5.654638
    105          1           0        6.772829    0.971146    5.885517
    106          1           0        5.168980    1.717280    6.134584
    107          1           0        5.338400   -0.038406    6.097339
    108          8           0        4.102860    0.402203    3.898625
    109          1           0        3.518008    1.174871    3.842640
    110          7           0        7.602038    3.151461    4.605935
    111          1           0        6.987101    3.175483    5.406829
    112          6           0        9.037636    3.313416    4.855976
    113          1           0        9.468606    3.736902    3.945218
    114          6           0        9.648718    1.919162    5.112673
    115          6           0        9.265678    4.237401    6.042721
    116          1           0       10.334749    4.415131    6.179196
    117          1           0        8.769204    5.197396    5.880956
    118          1           0        8.890935    3.773677    6.958681
    119          8           0        9.700454    1.445259    6.253483
    120          7           0       10.077281    1.273462    4.009482
    121          1           0        9.832949    1.682781    3.114907
    122          6           0       10.546812   -0.117035    4.024905
    123          1           0        9.969439   -0.641043    4.795410
    124          6           0       12.030535   -0.189575    4.454835
    125          6           0       10.348042   -0.767514    2.657609
    126          1           0       10.931544   -0.202389    1.920847
    127          1           0       10.817663   -1.755354    2.699845
    128          8           0       12.907365   -0.655808    3.736954
    129          6           0        8.890879   -0.903268    2.185326
    130          1           0        8.439608    0.093114    2.114754
    131          6           0        8.859963   -1.511692    0.777658
    132          1           0        9.272147   -2.527778    0.778087
    133          1           0        9.454645   -0.909855    0.080640
    134          1           0        7.833229   -1.550919    0.403675
    135          6           0        8.049331   -1.746338    3.151063
    136          1           0        8.482415   -2.745900    3.277360
    137          1           0        7.030073   -1.872218    2.771477
    138          1           0        7.977759   -1.290894    4.144234
    139          7           0       12.273115    0.298877    5.698578
    140          1           0       11.481321    0.571804    6.274612
    141          6           0       13.599786    0.218612    6.267597
    142          1           0       14.322318    0.582285    5.531659
    143          6           0       14.048887   -1.210574    6.576399
    144          6           0       13.686514    1.063112    7.543080
    145          1           0       14.693616    1.004351    7.959515
    146          1           0       13.454202    2.107081    7.317603
    147          1           0       12.977324    0.703918    8.295922
    148          8           0       15.206463   -1.522819    6.737807
    149          8           0       13.021967   -2.077958    6.715682
    150          1           0       13.430670   -2.935948    6.920120
 ---------------------------------------------------------------------

 SCF Done:  E(RB3LYP) =  -3455.95807336     A.U. after    1 cycles

 Alpha  occ. eigenvalues --  -19.27109 -19.21754 -19.21413 -19.21291 -19.18917
 Alpha  occ. eigenvalues --  -19.18907 -19.18705 -19.18308 -19.18007 -19.17768
 Alpha  occ. eigenvalues --  -19.17722 -19.17686 -19.16494 -19.15635 -19.13789
 Alpha  occ. eigenvalues --  -14.59018 -14.49243 -14.44912 -14.43449 -14.43083
 Alpha  occ. eigenvalues --  -14.42351 -14.41798 -14.41506 -14.40439 -14.40410
 Alpha  occ. eigenvalues --  -14.37512 -10.43441 -10.40275 -10.38355 -10.36047
 Alpha  occ. eigenvalues --  -10.35896 -10.35221 -10.35054 -10.34931 -10.34434
 Alpha  occ. eigenvalues --  -10.33828 -10.33746 -10.33288 -10.33220 -10.32095
 Alpha  occ. eigenvalues --  -10.30725 -10.30682 -10.30394 -10.30099 -10.29590
 Alpha  occ. eigenvalues --  -10.29572 -10.29008 -10.28909 -10.28895 -10.28737
 Alpha  occ. eigenvalues --  -10.28692 -10.28645 -10.28102 -10.26417 -10.26354
 Alpha  occ. eigenvalues --  -10.26179 -10.26047 -10.25355 -10.24866 -10.24706
 Alpha  occ. eigenvalues --  -10.24071 -10.23216 -10.23056 -10.22359 -10.22119
 Alpha  occ. eigenvalues --  -10.21663 -10.21554 -10.21162 -10.20408 -10.20221
 Alpha  occ. eigenvalues --   -1.19515  -1.13604  -1.12939  -1.12574  -1.11423
 Alpha  occ. eigenvalues --   -1.10746  -1.10340  -1.09972  -1.09345  -1.09134
 Alpha  occ. eigenvalues --   -1.08661  -1.08087  -1.06506  -1.06172  -1.05637
 Alpha  occ. eigenvalues --   -1.05461  -1.03389  -1.01654  -0.99894  -0.99405
 Alpha  occ. eigenvalues --   -0.98748  -0.98648  -0.97752  -0.96844  -0.96257
 Alpha  occ. eigenvalues --   -0.95086  -0.94639  -0.91046  -0.88503  -0.87653
 Alpha  occ. eigenvalues --   -0.86173  -0.84670  -0.84356  -0.83523  -0.82536
 Alpha  occ. eigenvalues --   -0.82279  -0.81238  -0.80440  -0.80271  -0.79243
 Alpha  occ. eigenvalues --   -0.78656  -0.77975  -0.77523  -0.76738  -0.76634
 Alpha  occ. eigenvalues --   -0.75012  -0.74692  -0.73519  -0.72554  -0.71432
 Alpha  occ. eigenvalues --   -0.71347  -0.70801  -0.70506  -0.70057  -0.69820
 Alpha  occ. eigenvalues --   -0.69222  -0.68049  -0.67759  -0.67242  -0.66973
 Alpha  occ. eigenvalues --   -0.66368  -0.66027  -0.65750  -0.65638  -0.65176
 Alpha  occ. eigenvalues --   -0.64581  -0.64133  -0.63490  -0.63141  -0.63007
 Alpha  occ. eigenvalues --   -0.62879  -0.62417  -0.62087  -0.60642  -0.60272
 Alpha  occ. eigenvalues --   -0.59650  -0.59452  -0.59290  -0.58815  -0.58408
 Alpha  occ. eigenvalues --   -0.57577  -0.57489  -0.56733  -0.56291  -0.56075
 Alpha  occ. eigenvalues --   -0.55816  -0.55532  -0.55318  -0.55178  -0.54983
 Alpha  occ. eigenvalues --   -0.54839  -0.54499  -0.54002  -0.53958  -0.53497
 Alpha  occ. eigenvalues --   -0.53200  -0.52968  -0.52651  -0.52505  -0.52245
 Alpha  occ. eigenvalues --   -0.52044  -0.51791  -0.51518  -0.51452  -0.51220
 Alpha  occ. eigenvalues --   -0.50955  -0.50441  -0.50077  -0.50030  -0.49702
 Alpha  occ. eigenvalues --   -0.49574  -0.49431  -0.49139  -0.48714  -0.48472
 Alpha  occ. eigenvalues --   -0.48410  -0.48323  -0.47917  -0.47766  -0.47562
 Alpha  occ. eigenvalues --   -0.47309  -0.47188  -0.47156  -0.46922  -0.46798
 Alpha  occ. eigenvalues --   -0.46606  -0.46427  -0.46285  -0.45998  -0.45878
 Alpha  occ. eigenvalues --   -0.45704  -0.45583  -0.45508  -0.45271  -0.45097
 Alpha  occ. eigenvalues --   -0.45022  -0.44866  -0.44857  -0.44596  -0.44517
 Alpha  occ. eigenvalues --   -0.44272  -0.44088  -0.43761  -0.43574  -0.43384
 Alpha  occ. eigenvalues --   -0.43198  -0.43156  -0.43084  -0.42591  -0.42467
 Alpha  occ. eigenvalues --   -0.42260  -0.42190  -0.42090  -0.41807  -0.41711
 Alpha  occ. eigenvalues --   -0.41611  -0.41499  -0.41464  -0.41173  -0.41102
 Alpha  occ. eigenvalues --   -0.40873  -0.40829  -0.40560  -0.40449  -0.40373
 Alpha  occ. eigenvalues --   -0.40152  -0.39907  -0.39747  -0.39744  -0.39033
 Alpha  occ. eigenvalues --   -0.38727  -0.38456  -0.38138  -0.37367  -0.35589
 Alpha  occ. eigenvalues --   -0.35503  -0.35449  -0.35154  -0.34802  -0.34216
 Alpha  occ. eigenvalues --   -0.33971  -0.33572  -0.33296  -0.33096  -0.32880
 Alpha  occ. eigenvalues --   -0.32739  -0.32474  -0.32326  -0.31973  -0.31686
 Alpha  occ. eigenvalues --   -0.31604  -0.31322  -0.31241  -0.30847  -0.30798
 Alpha  occ. eigenvalues --   -0.30739  -0.29883  -0.29162  -0.27007  -0.26567
 Alpha virt. eigenvalues --   -0.12066  -0.10916  -0.07377  -0.06343  -0.05933
 Alpha virt. eigenvalues --   -0.04671  -0.04628  -0.03888  -0.03707  -0.03397
 Alpha virt. eigenvalues --   -0.03083  -0.02687  -0.01889  -0.01009  -0.01000

 Mulliken charges:
               1
     1  N   -0.558782
     2  H    0.348723
     3  H    0.342704
     4  H    0.376659
     5  C   -0.097009
     6  H    0.176124
     7  C    0.639455
     8  C   -0.195872
     9  H    0.156898
    10  H    0.128401
    11  O   -0.547325
    12  C   -0.083787
    13  H    0.075481
    14  C   -0.314578
    15  H    0.127951
    16  H    0.116603
    17  H    0.131329
    18  C   -0.318394
    19  H    0.129540
    20  H    0.087262
    21  H    0.140760
    22  N   -0.504627
    23  H    0.300675
    24  C   -0.036191
    25  H    0.142719
    26  C    0.614045
    27  C   -0.049674
    28  H    0.107761
    29  O   -0.559388
    30  C   -0.338292
    31  H    0.113419
    32  H    0.141294
    33  H    0.122543
    34  C   -0.310104
    35  H    0.122486
    36  H    0.123487
    37  H    0.087140
    38  N   -0.515861
    39  H    0.291919
    40  C   -0.022099
    41  H    0.131879
    42  C    0.623563
    43  C   -0.047145
    44  H    0.105939
    45  O   -0.548106
    46  C   -0.339717
    47  H    0.096369
    48  H    0.141052
    49  H    0.119873
    50  C   -0.308615
    51  H    0.113617
    52  H    0.088880
    53  H    0.111970
    54  N   -0.503844
    55  H    0.281819
    56  C   -0.038799
    57  H    0.151559
    58  C    0.627811
    59  C    0.077207
    60  H    0.098538
    61  H    0.106224
    62  O   -0.577266
    63  O   -0.537468
    64  H    0.315870
    65  N   -0.517501
    66  H    0.288845
    67  C   -0.052778
    68  H    0.132196
    69  C    0.596974
    70  C    0.207509
    71  H    0.107382
    72  O   -0.548020
    73  C   -0.339242
    74  H    0.120598
    75  H    0.104839
    76  H    0.130162
    77  O   -0.554900
    78  H    0.321535
    79  N   -0.535388
    80  H    0.291465
    81  C    0.009232
    82  H    0.160765
    83  C    0.594164
    84  C   -0.184680
    85  H    0.132234
    86  H    0.116176
    87  O   -0.586132
    88  C   -0.294891
    89  H    0.121430
    90  H    0.171817
    91  C    0.598441
    92  N   -0.606427
    93  H    0.280179
    94  H    0.294826
    95  O   -0.525769
    96  N   -0.522183
    97  H    0.342822
    98  C   -0.080179
    99  H    0.130280
   100  C    0.616124
   101  C    0.215319
   102  H    0.113228
   103  O   -0.536070
   104  C   -0.356572
   105  H    0.121436
   106  H    0.093889
   107  H    0.137392
   108  O   -0.557463
   109  H    0.319357
   110  N   -0.514074
   111  H    0.273270
   112  C   -0.014502
   113  H    0.135961
   114  C    0.619858
   115  C   -0.334083
   116  H    0.131047
   117  H    0.116081
   118  H    0.137718
   119  O   -0.564068
   120  N   -0.510911
   121  H    0.293632
   122  C   -0.045868
   123  H    0.138834
   124  C    0.625920
   125  C   -0.179388
   126  H    0.106636
   127  H    0.121201
   128  O   -0.527103
   129  C   -0.086891
   130  H    0.119123
   131  C   -0.312412
   132  H    0.097318
   133  H    0.088478
   134  H    0.105593
   135  C   -0.319805
   136  H    0.100004
   137  H    0.109835
   138  H    0.099789
   139  N   -0.545075
   140  H    0.295341
   141  C    0.016200
   142  H    0.154215
   143  C    0.602230
   144  C   -0.345229
   145  H    0.141427
   146  H    0.120669
   147  H    0.121530
   148  O   -0.470269
   149  O   -0.483210
   150  H    0.323953
 Sum of Mulliken charges =   1.00000

 Dipole moment (field-independent basis, Debye):
    X=            -37.5385    Y=            -10.5633    Z=            -33.5168  Tot=             51.4208
 Quadrupole moment (field-independent basis, Debye-Ang):
   XX=            -67.9394   YY=           -297.3064   ZZ=           -118.4039
   XY=            224.4412   XZ=            302.5890   YZ=            144.2778

 Normal termination of Gaussian 16 at Thu Sep  8 14:43:52 2022.
