 Gaussian 16, Revision C.01,
 Gaussian 16:  ES64L-G16RevC.01  3-Jul-2019

 ----------------------------------------------------------------------
 # B3LYP/6-31G** empiricaldispersion=gd3bj guess=read geom=check nosymm
  integral(ultrafinegrid)
 ----------------------------------------------------------------------

 ------------------------------------------------------
 Candidate Structure: Conf:315 Charge calc in gas phase
 ------------------------------------------------------
 Structure from the checkpoint file:  "conf-315.chk"
 Charge =  1 Multiplicity = 1

                          Input orientation:
 ---------------------------------------------------------------------
 Center     Atomic      Atomic             Coordinates (Angstroms)
 Number     Number       Type             X           Y           Z
 ---------------------------------------------------------------------
      1          7           0       -6.604460   -2.785577  -10.741994
      2          1           0       -6.138806   -2.903053  -11.642747
      3          1           0       -7.583544   -2.546735  -10.909530
      4          1           0       -6.504922   -3.681347  -10.151294
      5          6           0       -5.913298   -1.797796   -9.829756
      6          1           0       -5.104254   -1.323804  -10.387719
      7          6           0       -5.348762   -2.724293   -8.723712
      8          6           0       -6.898814   -0.760580   -9.282716
      9          1           0       -6.352908   -0.138805   -8.564248
     10          1           0       -7.669192   -1.285784   -8.703082
     11          8           0       -5.687271   -3.919832   -8.758035
     12          6           0       -7.553206    0.151620  -10.338126
     13          1           0       -8.131673   -0.473567  -11.039323
     14          6           0       -8.548551    1.090810   -9.645024
     15          1           0       -8.029212    1.756386   -8.947296
     16          1           0       -9.303811    0.533847   -9.082193
     17          1           0       -9.065721    1.714096  -10.378587
     18          6           0       -6.517113    0.941478  -11.146429
     19          1           0       -5.896427    1.556780  -10.485819
     20          1           0       -5.850287    0.298920  -11.732434
     21          1           0       -7.013654    1.612120  -11.851943
     22          7           0       -4.559545   -2.160358   -7.824218
     23          1           0       -4.413330   -1.152073   -7.796784
     24          6           0       -4.050011   -2.817845   -6.620661
     25          1           0       -4.685812   -3.681358   -6.404132
     26          6           0       -4.160551   -1.734145   -5.538374
     27          6           0       -2.575278   -3.281720   -6.800621
     28          1           0       -1.981804   -2.375027   -6.979099
     29          8           0       -4.084436   -0.544574   -5.872894
     30          6           0       -2.039906   -3.977448   -5.540906
     31          1           0       -2.667207   -4.836254   -5.270628
     32          1           0       -1.963483   -3.316872   -4.675138
     33          1           0       -1.037051   -4.365007   -5.736381
     34          6           0       -2.443151   -4.202499   -8.019102
     35          1           0       -3.057762   -5.100782   -7.903242
     36          1           0       -1.402516   -4.515595   -8.135371
     37          1           0       -2.741500   -3.703405   -8.944585
     38          7           0       -4.308374   -2.149328   -4.268551
     39          1           0       -4.241529   -3.139897   -4.075193
     40          6           0       -4.091449   -1.241244   -3.128602
     41          1           0       -4.555784   -0.287542   -3.394260
     42          6           0       -2.563769   -1.085450   -3.021638
     43          6           0       -4.713636   -1.790521   -1.841583
     44          1           0       -4.178796   -2.718440   -1.601266
     45          8           0       -1.879298   -1.888265   -2.382676
     46          6           0       -4.480952   -0.798382   -0.695128
     47          1           0       -4.987875    0.152600   -0.897255
     48          1           0       -3.419509   -0.594275   -0.536078
     49          1           0       -4.893961   -1.200812    0.234221
     50          6           0       -6.206130   -2.087001   -2.023433
     51          1           0       -6.757567   -1.172337   -2.269409
     52          1           0       -6.396265   -2.814728   -2.818172
     53          1           0       -6.625821   -2.488327   -1.097195
     54          7           0       -2.039033   -0.087491   -3.763014
     55          1           0       -2.673241    0.455713   -4.335188
     56          6           0       -0.609857    0.009075   -4.056249
     57          1           0       -0.205486   -1.007602   -4.121730
     58          6           0        0.157292    0.744344   -2.940572
     59          6           0       -0.426401    0.721726   -5.403692
     60          1           0       -0.891556    1.718818   -5.338338
     61          1           0       -0.961308    0.154240   -6.173759
     62          8           0        0.830570    1.757307   -3.188692
     63          8           0        0.924227    0.790804   -5.776803
     64          1           0        1.333559    1.354033   -5.096786
     65          7           0        0.042618    0.203805   -1.719804
     66          1           0       -0.523447   -0.634133   -1.611031
     67          6           0        0.594860    0.855256   -0.536165
     68          1           0        0.530347    1.935113   -0.704366
     69          6           0        2.076400    0.483629   -0.352437
     70          6           0       -0.211542    0.495258    0.712772
     71          1           0       -0.038126   -0.565538    0.939616
     72          8           0        2.451228   -0.267440    0.550107
     73          6           0        0.200567    1.345877    1.910266
     74          1           0        1.247918    1.185889    2.169895
     75          1           0        0.043082    2.406842    1.693181
     76          1           0       -0.404806    1.078525    2.783841
     77          8           0       -1.588088    0.712640    0.366318
     78          1           0       -2.098134    0.628792    1.182240
     79          7           0        2.926629    1.054167   -1.236615
     80          1           0        2.547326    1.745234   -1.874110
     81          6           0        4.338655    1.060273   -0.889524
     82          1           0        4.683921    0.030092   -0.822210
     83          6           0        4.463918    1.707417    0.506740
     84          6           0        5.181409    1.796972   -1.938370
     85          1           0        4.706948    2.762235   -2.153039
     86          1           0        5.173098    1.214522   -2.865840
     87          8           0        3.777829    2.661936    0.856235
     88          6           0        6.628507    2.086759   -1.505692
     89          1           0        6.631439    2.719915   -0.609832
     90          1           0        7.123575    2.662760   -2.294826
     91          6           0        7.492447    0.881517   -1.141001
     92          7           0        8.822018    1.062744   -1.273574
     93          1           0        9.177971    1.983507   -1.478086
     94          1           0        9.458356    0.421513   -0.798848
     95          8           0        7.014900   -0.181061   -0.717140
     96          7           0        5.365930    1.072899    1.285581
     97          1           0        5.980440    0.402482    0.828211
     98          6           0        5.634143    1.425006    2.654503
     99          1           0        4.974679    2.261099    2.912992
    100          6           0        7.100386    1.882475    2.741405
    101          6           0        5.198619    0.191624    3.510505
    102          1           0        5.797209   -0.666605    3.160302
    103          8           0        7.790912    1.990094    1.723212
    104          6           0        5.365190    0.316295    5.021161
    105          1           0        6.405715    0.189452    5.331545
    106          1           0        4.971826    1.270437    5.390766
    107          1           0        4.783479   -0.479165    5.491730
    108          8           0        3.820656   -0.037319    3.283161
    109          1           0        3.663592   -0.152917    2.329949
    110          7           0        7.597120    2.166435    3.970650
    111          1           0        7.030382    1.964366    4.780218
    112          6           0        9.043566    2.298844    4.197194
    113          1           0        9.436030    2.934817    3.400113
    114          6           0        9.629466    0.873669    4.078285
    115          6           0        9.311227    2.903098    5.565942
    116          1           0       10.382936    3.067062    5.700483
    117          1           0        8.794153    3.860160    5.671453
    118          1           0        8.984189    2.215425    6.350100
    119          8           0        9.689558    0.117602    5.042268
    120          7           0        9.980961    0.526980    2.807565
    121          1           0        9.631417    1.133408    2.070433
    122          6           0       10.107020   -0.879030    2.442718
    123          1           0       10.510457   -1.395680    3.315429
    124          6           0       11.059493   -0.985737    1.257792
    125          6           0        8.728733   -1.456255    2.061860
    126          1           0        8.096502   -1.382634    2.956010
    127          1           0        8.295903   -0.807835    1.294563
    128          8           0       10.887009   -0.343049    0.215688
    129          6           0        8.716283   -2.901888    1.544432
    130          1           0        9.361631   -2.947475    0.655354
    131          6           0        9.244979   -3.904158    2.577175
    132          1           0        8.675059   -3.836466    3.511077
    133          1           0       10.300108   -3.741038    2.817698
    134          1           0        9.156257   -4.929782    2.205184
    135          6           0        7.293151   -3.258977    1.096920
    136          1           0        6.599083   -3.219525    1.945713
    137          1           0        7.251900   -4.272320    0.684073
    138          1           0        6.941769   -2.557888    0.334875
    139          7           0       12.081947   -1.851607    1.403447
    140          1           0       12.181820   -2.404379    2.245090
    141          6           0       12.981593   -2.175083    0.312154
    142          1           0       12.394247   -2.270587   -0.608233
    143          6           0       13.598184   -3.525611    0.633080
    144          6           0       14.057766   -1.098508    0.095867
    145          1           0       14.704349   -1.367448   -0.741938
    146          1           0       13.560810   -0.152081   -0.122173
    147          1           0       14.668328   -0.981155    0.995386
    148          8           0       13.451294   -4.116611    1.682084
    149          8           0       14.350307   -3.986045   -0.381749
    150          1           0       14.725408   -4.835102   -0.091759
 ---------------------------------------------------------------------

 SCF Done:  E(RB3LYP) =  -3455.96725859     A.U. after    2 cycles

 Alpha  occ. eigenvalues --  -19.28343 -19.25107 -19.24059 -19.20553 -19.19814
 Alpha  occ. eigenvalues --  -19.19597 -19.19489 -19.18663 -19.16473 -19.16327
 Alpha  occ. eigenvalues --  -19.16007 -19.16000 -19.15010 -19.14740 -19.13832
 Alpha  occ. eigenvalues --  -14.60284 -14.50874 -14.47928 -14.44851 -14.41849
 Alpha  occ. eigenvalues --  -14.40835 -14.40578 -14.39254 -14.38539 -14.37838
 Alpha  occ. eigenvalues --  -14.37834 -10.44825 -10.41489 -10.40822 -10.37459
 Alpha  occ. eigenvalues --  -10.37446 -10.35760 -10.35275 -10.34423 -10.33266
 Alpha  occ. eigenvalues --  -10.33223 -10.33051 -10.32739 -10.32540 -10.32475
 Alpha  occ. eigenvalues --  -10.31627 -10.30789 -10.30605 -10.30454 -10.30224
 Alpha  occ. eigenvalues --  -10.29871 -10.28944 -10.28838 -10.28546 -10.27862
 Alpha  occ. eigenvalues --  -10.27472 -10.27434 -10.27391 -10.27188 -10.27161
 Alpha  occ. eigenvalues --  -10.26360 -10.26262 -10.25787 -10.25363 -10.24011
 Alpha  occ. eigenvalues --  -10.23574 -10.23282 -10.22606 -10.21767 -10.21611
 Alpha  occ. eigenvalues --  -10.21308 -10.21143 -10.20990 -10.20000 -10.19268
 Alpha  occ. eigenvalues --   -1.20789  -1.16188  -1.16020  -1.14349  -1.12534
 Alpha  occ. eigenvalues --   -1.10366  -1.08521  -1.08300  -1.08032  -1.07736
 Alpha  occ. eigenvalues --   -1.07248  -1.07166  -1.06945  -1.06465  -1.06327
 Alpha  occ. eigenvalues --   -1.05601  -1.04256  -1.03854  -1.01233  -0.98350
 Alpha  occ. eigenvalues --   -0.97508  -0.96960  -0.96208  -0.96013  -0.95541
 Alpha  occ. eigenvalues --   -0.95114  -0.93182  -0.92571  -0.89760  -0.89097
 Alpha  occ. eigenvalues --   -0.84855  -0.84397  -0.84003  -0.83533  -0.82569
 Alpha  occ. eigenvalues --   -0.82042  -0.81893  -0.81253  -0.80147  -0.79454
 Alpha  occ. eigenvalues --   -0.78902  -0.78211  -0.77185  -0.76772  -0.75864
 Alpha  occ. eigenvalues --   -0.75267  -0.74776  -0.73899  -0.73610  -0.72557
 Alpha  occ. eigenvalues --   -0.72011  -0.71068  -0.70801  -0.70300  -0.70112
 Alpha  occ. eigenvalues --   -0.69680  -0.68884  -0.68573  -0.67702  -0.67610
 Alpha  occ. eigenvalues --   -0.67376  -0.66208  -0.65229  -0.64616  -0.64087
 Alpha  occ. eigenvalues --   -0.63954  -0.63599  -0.63172  -0.62907  -0.62110
 Alpha  occ. eigenvalues --   -0.61726  -0.61201  -0.61050  -0.60737  -0.60384
 Alpha  occ. eigenvalues --   -0.60040  -0.59807  -0.59311  -0.59119  -0.58592
 Alpha  occ. eigenvalues --   -0.58345  -0.57794  -0.57712  -0.56738  -0.56495
 Alpha  occ. eigenvalues --   -0.56442  -0.56072  -0.55543  -0.55317  -0.54751
 Alpha  occ. eigenvalues --   -0.54709  -0.54429  -0.54327  -0.54094  -0.53724
 Alpha  occ. eigenvalues --   -0.53376  -0.52949  -0.52683  -0.52512  -0.52431
 Alpha  occ. eigenvalues --   -0.52379  -0.51905  -0.51451  -0.51190  -0.51129
 Alpha  occ. eigenvalues --   -0.50869  -0.50648  -0.50467  -0.50254  -0.50126
 Alpha  occ. eigenvalues --   -0.49951  -0.49635  -0.49360  -0.49317  -0.49191
 Alpha  occ. eigenvalues --   -0.49061  -0.48822  -0.48452  -0.47924  -0.47813
 Alpha  occ. eigenvalues --   -0.47760  -0.47502  -0.47205  -0.46932  -0.46839
 Alpha  occ. eigenvalues --   -0.46602  -0.46571  -0.45950  -0.45903  -0.45794
 Alpha  occ. eigenvalues --   -0.45770  -0.45659  -0.45586  -0.45525  -0.45473
 Alpha  occ. eigenvalues --   -0.45284  -0.44940  -0.44807  -0.44533  -0.44059
 Alpha  occ. eigenvalues --   -0.43976  -0.43824  -0.43765  -0.43152  -0.42945
 Alpha  occ. eigenvalues --   -0.42797  -0.42761  -0.42747  -0.42451  -0.42189
 Alpha  occ. eigenvalues --   -0.42125  -0.41998  -0.41863  -0.41713  -0.41476
 Alpha  occ. eigenvalues --   -0.41423  -0.41215  -0.40951  -0.40847  -0.40664
 Alpha  occ. eigenvalues --   -0.40597  -0.40481  -0.40274  -0.40207  -0.39808
 Alpha  occ. eigenvalues --   -0.39691  -0.39493  -0.39407  -0.39218  -0.38494
 Alpha  occ. eigenvalues --   -0.38272  -0.38081  -0.37850  -0.37750  -0.37476
 Alpha  occ. eigenvalues --   -0.37258  -0.36052  -0.35771  -0.35708  -0.35052
 Alpha  occ. eigenvalues --   -0.34903  -0.33800  -0.33212  -0.33158  -0.32726
 Alpha  occ. eigenvalues --   -0.32203  -0.31760  -0.31272  -0.31125  -0.30622
 Alpha  occ. eigenvalues --   -0.30561  -0.30189  -0.29873  -0.29260  -0.28860
 Alpha  occ. eigenvalues --   -0.28489  -0.28285  -0.27465  -0.27200  -0.27104
 Alpha virt. eigenvalues --   -0.13374  -0.11987  -0.10188  -0.07433  -0.06942
 Alpha virt. eigenvalues --   -0.05185  -0.04731  -0.04407  -0.03178  -0.03119
 Alpha virt. eigenvalues --   -0.02700  -0.02494  -0.02403  -0.02372  -0.01586

 Mulliken charges:
               1
     1  N   -0.555816
     2  H    0.352198
     3  H    0.345166
     4  H    0.376082
     5  C   -0.097708
     6  H    0.179556
     7  C    0.642563
     8  C   -0.194645
     9  H    0.151665
    10  H    0.130502
    11  O   -0.543983
    12  C   -0.086148
    13  H    0.077914
    14  C   -0.314796
    15  H    0.127275
    16  H    0.117782
    17  H    0.134590
    18  C   -0.318706
    19  H    0.129431
    20  H    0.087391
    21  H    0.144314
    22  N   -0.508117
    23  H    0.300853
    24  C   -0.031398
    25  H    0.144871
    26  C    0.619908
    27  C   -0.055149
    28  H    0.117258
    29  O   -0.563707
    30  C   -0.353143
    31  H    0.108368
    32  H    0.136696
    33  H    0.138478
    34  C   -0.311182
    35  H    0.125068
    36  H    0.132285
    37  H    0.087129
    38  N   -0.518716
    39  H    0.283833
    40  C    0.003561
    41  H    0.131540
    42  C    0.631212
    43  C   -0.084412
    44  H    0.118114
    45  O   -0.559057
    46  C   -0.345607
    47  H    0.103730
    48  H    0.149805
    49  H    0.113768
    50  C   -0.313284
    51  H    0.108181
    52  H    0.089297
    53  H    0.125089
    54  N   -0.511202
    55  H    0.288151
    56  C   -0.054797
    57  H    0.152883
    58  C    0.642224
    59  C    0.059394
    60  H    0.096364
    61  H    0.091179
    62  O   -0.571993
    63  O   -0.547718
    64  H    0.330780
    65  N   -0.523980
    66  H    0.308739
    67  C   -0.027102
    68  H    0.147603
    69  C    0.647596
    70  C    0.155745
    71  H    0.110268
    72  O   -0.550339
    73  C   -0.346920
    74  H    0.163881
    75  H    0.117226
    76  H    0.093991
    77  O   -0.558289
    78  H    0.311355
    79  N   -0.535263
    80  H    0.285854
    81  C    0.018263
    82  H    0.153683
    83  C    0.567641
    84  C   -0.196645
    85  H    0.109866
    86  H    0.118082
    87  O   -0.547677
    88  C   -0.302773
    89  H    0.170895
    90  H    0.107530
    91  C    0.618159
    92  N   -0.613246
    93  H    0.266584
    94  H    0.325325
    95  O   -0.554889
    96  N   -0.527090
    97  H    0.306672
    98  C   -0.052771
    99  H    0.160595
   100  C    0.615847
   101  C    0.198466
   102  H    0.084281
   103  O   -0.553160
   104  C   -0.363740
   105  H    0.119463
   106  H    0.110853
   107  H    0.136559
   108  O   -0.566437
   109  H    0.344142
   110  N   -0.517311
   111  H    0.272097
   112  C   -0.013773
   113  H    0.129252
   114  C    0.598125
   115  C   -0.333407
   116  H    0.127553
   117  H    0.113738
   118  H    0.136565
   119  O   -0.531543
   120  N   -0.522446
   121  H    0.292407
   122  C   -0.032092
   123  H    0.132318
   124  C    0.633192
   125  C   -0.184511
   126  H    0.103881
   127  H    0.133152
   128  O   -0.568751
   129  C   -0.068261
   130  H    0.089152
   131  C   -0.309020
   132  H    0.107855
   133  H    0.089056
   134  H    0.102912
   135  C   -0.329792
   136  H    0.097631
   137  H    0.091964
   138  H    0.136113
   139  N   -0.528946
   140  H    0.292729
   141  C    0.009490
   142  H    0.158483
   143  C    0.582778
   144  C   -0.315308
   145  H    0.131045
   146  H    0.146091
   147  H    0.119104
   148  O   -0.468810
   149  O   -0.477367
   150  H    0.334647
 Sum of Mulliken charges =   1.00000

 Dipole moment (field-independent basis, Debye):
    X=            -22.9927    Y=             -9.3069    Z=            -43.2118  Tot=             49.8251
 Quadrupole moment (field-independent basis, Debye-Ang):
   XX=            -99.2915   YY=           -379.4709   ZZ=             22.4917
   XY=             46.0360   XZ=            268.4946   YZ=             96.8930

 Normal termination of Gaussian 16 at Thu Sep  8 14:45:04 2022.
