 Gaussian 16, Revision C.01,
 Gaussian 16:  ES64L-G16RevC.01  3-Jul-2019

 ----------------------------------------------------------------------
 # B3LYP/6-31G** empiricaldispersion=gd3bj guess=read geom=check nosymm
  integral(ultrafinegrid)
 ----------------------------------------------------------------------

 ------------------------------------------------------
 Candidate Structure: Conf:242 Charge calc in gas phase
 ------------------------------------------------------
 Structure from the checkpoint file:  "conf-242.chk"
 Charge =  1 Multiplicity = 1

                          Input orientation:
 ---------------------------------------------------------------------
 Center     Atomic      Atomic             Coordinates (Angstroms)
 Number     Number       Type             X           Y           Z
 ---------------------------------------------------------------------
      1          7           0      -11.473820   -3.100287   -8.331473
      2          1           0      -11.992624   -2.385063   -8.844444
      3          1           0      -12.100873   -3.876948   -8.115327
      4          1           0      -10.627889   -3.413353   -8.914713
      5          6           0      -10.754906   -2.563566   -7.112061
      6          1           0      -11.205830   -1.613482   -6.823773
      7          6           0       -9.315127   -2.393239   -7.654084
      8          6           0      -10.837831   -3.604662   -5.981806
      9          1           0      -10.425408   -4.547874   -6.362765
     10          1           0      -11.900723   -3.774402   -5.760441
     11          8           0       -9.030356   -3.027636   -8.685491
     12          6           0      -10.117550   -3.229510   -4.671288
     13          1           0       -9.052842   -3.091490   -4.881400
     14          6           0      -10.656197   -1.931089   -4.059231
     15          1           0      -11.721715   -2.021215   -3.818726
     16          1           0      -10.535651   -1.060667   -4.714501
     17          1           0      -10.119006   -1.700231   -3.136880
     18          6           0      -10.240945   -4.393242   -3.680405
     19          1           0      -11.286756   -4.575276   -3.408701
     20          1           0       -9.830826   -5.319086   -4.095811
     21          1           0       -9.691447   -4.167627   -2.763099
     22          7           0       -8.501503   -1.609494   -6.965934
     23          1           0       -8.783495   -1.220750   -6.064961
     24          6           0       -7.043866   -1.582902   -7.114816
     25          1           0       -6.743950   -2.462964   -7.690969
     26          6           0       -6.547950   -1.666120   -5.656946
     27          6           0       -6.555610   -0.299167   -7.833479
     28          1           0       -6.818306    0.546818   -7.184432
     29          8           0       -7.267306   -1.217081   -4.755249
     30          6           0       -5.033675   -0.319812   -8.027635
     31          1           0       -4.729442   -1.177750   -8.638932
     32          1           0       -4.482700   -0.364951   -7.086277
     33          1           0       -4.715566    0.583499   -8.554463
     34          6           0       -7.269532   -0.129815   -9.179363
     35          1           0       -7.075786   -0.983840   -9.836460
     36          1           0       -6.912105    0.772582   -9.682402
     37          1           0       -8.351658   -0.034544   -9.056463
     38          7           0       -5.362776   -2.253082   -5.461199
     39          1           0       -4.754559   -2.492049   -6.239869
     40          6           0       -4.681601   -2.282943   -4.172557
     41          1           0       -5.113842   -1.499763   -3.542506
     42          6           0       -3.211481   -1.983675   -4.505437
     43          6           0       -4.845002   -3.659097   -3.465226
     44          1           0       -4.315724   -4.397008   -4.083036
     45          8           0       -2.764411   -2.263513   -5.622720
     46          6           0       -4.223969   -3.654076   -2.062126
     47          1           0       -4.694831   -2.890789   -1.430688
     48          1           0       -3.148687   -3.468240   -2.069577
     49          1           0       -4.386904   -4.621649   -1.579721
     50          6           0       -6.324430   -4.059797   -3.391554
     51          1           0       -6.904501   -3.311764   -2.841939
     52          1           0       -6.763400   -4.164511   -4.387273
     53          1           0       -6.426391   -5.020075   -2.877943
     54          7           0       -2.477508   -1.429255   -3.528393
     55          1           0       -2.846453   -1.288523   -2.594200
     56          6           0       -1.037747   -1.298776   -3.623755
     57          1           0       -0.650491   -2.128023   -4.226727
     58          6           0       -0.499628   -1.409668   -2.187998
     59          6           0       -0.619407    0.011179   -4.296051
     60          1           0       -1.094302    0.048773   -5.285622
     61          1           0        0.471383    0.007072   -4.446788
     62          8           0       -1.275695   -1.488125   -1.227801
     63          8           0       -1.035139    1.069885   -3.453795
     64          1           0       -0.795919    1.906693   -3.870675
     65          7           0        0.835021   -1.412250   -2.066007
     66          1           0        1.455782   -1.374487   -2.865677
     67          6           0        1.501310   -1.457984   -0.779089
     68          1           0        0.915323   -0.860848   -0.071805
     69          6           0        2.885073   -0.842440   -0.998121
     70          6           0        1.607347   -2.918171   -0.229132
     71          1           0        2.373688   -3.439027   -0.816637
     72          8           0        3.414495   -0.922784   -2.114571
     73          6           0        1.982848   -2.944970    1.252038
     74          1           0        2.969076   -2.518334    1.452463
     75          1           0        1.243542   -2.392976    1.844734
     76          1           0        1.980757   -3.980812    1.598014
     77          8           0        0.405373   -3.625135   -0.467904
     78          1           0       -0.338970   -3.041694   -0.247010
     79          7           0        3.442569   -0.254391    0.071674
     80          1           0        2.993424   -0.330412    0.979589
     81          6           0        4.830961    0.175767    0.159923
     82          1           0        5.412392   -0.382843   -0.580821
     83          6           0        5.301687   -0.190954    1.574267
     84          6           0        4.991898    1.690627   -0.089421
     85          1           0        5.991864    2.004620    0.223321
     86          1           0        4.268939    2.218010    0.541534
     87          8           0        4.476330   -0.486194    2.450918
     88          6           0        4.809742    2.068388   -1.565533
     89          1           0        4.800418    3.157685   -1.655212
     90          1           0        3.863994    1.682459   -1.954793
     91          6           0        6.009545    1.565662   -2.369846
     92          7           0        5.760798    0.502137   -3.183997
     93          1           0        4.919946   -0.049734   -3.052231
     94          1           0        6.559983    0.081582   -3.636102
     95          8           0        7.112726    2.082760   -2.247831
     96          7           0        6.626147   -0.123174    1.779682
     97          1           0        7.246312   -0.077444    0.978082
     98          6           0        7.269607   -0.561562    3.019259
     99          1           0        6.744631   -1.459334    3.373890
    100          6           0        7.174862    0.499481    4.139525
    101          6           0        8.751367   -0.886255    2.719824
    102          1           0        9.294481    0.060676    2.678515
    103          8           0        8.179180    1.001373    4.638843
    104          6           0        9.359216   -1.774708    3.795103
    105          1           0        9.287284   -1.293163    4.771466
    106          1           0        8.834848   -2.737711    3.846137
    107          1           0       10.411748   -1.963773    3.571100
    108          8           0        8.884064   -1.451991    1.413057
    109          1           0        8.596739   -2.375045    1.459558
    110          7           0        5.920140    0.807891    4.538177
    111          1           0        5.156699    0.250524    4.167532
    112          6           0        5.726995    1.555734    5.768623
    113          1           0        6.251957    2.512100    5.677496
    114          6           0        6.331366    0.748999    6.936619
    115          6           0        4.235066    1.783327    6.009413
    116          1           0        4.082782    2.375979    6.914794
    117          1           0        3.784173    2.313487    5.165943
    118          1           0        3.728304    0.822477    6.140425
    119          8           0        6.179864   -0.468315    7.002041
    120          7           0        6.993827    1.483921    7.855525
    121          1           0        7.035086    2.492715    7.790422
    122          6           0        7.606412    0.915042    9.037548
    123          1           0        7.121478   -0.046536    9.226499
    124          6           0        7.354444    1.888312   10.191725
    125          6           0        9.132024    0.723158    8.867534
    126          1           0        9.571332    1.717680    8.720386
    127          1           0        9.540984    0.337797    9.811707
    128          8           0        7.150501    3.084030    9.989966
    129          6           0        9.552477   -0.198062    7.711315
    130          1           0        9.083544    0.181898    6.796325
    131          6           0       11.072865   -0.125535    7.523413
    132          1           0       11.599566   -0.488290    8.414638
    133          1           0       11.404253    0.900148    7.331141
    134          1           0       11.390125   -0.743563    6.677189
    135          6           0        9.095675   -1.645175    7.930855
    136          1           0        9.495938   -2.043165    8.872295
    137          1           0        9.461698   -2.289026    7.123706
    138          1           0        8.006435   -1.722305    7.942486
    139          7           0        7.430006    1.350999   11.434045
    140          1           0        7.644247    0.371874   11.548810
    141          6           0        7.367633    2.190422   12.620497
    142          1           0        7.864404    3.136259   12.375421
    143          6           0        8.135103    1.586097   13.785668
    144          6           0        5.925463    2.507579   13.043093
    145          1           0        5.928554    3.139517   13.933104
    146          1           0        5.428289    3.031899   12.225420
    147          1           0        5.376382    1.587380   13.262874
    148          8           0        8.202260    2.093446   14.879679
    149          8           0        8.730024    0.404489   13.483741
    150          1           0        9.177700    0.109349   14.294870
 ---------------------------------------------------------------------

 SCF Done:  E(RB3LYP) =  -3455.94864386     A.U. after    1 cycles

 Alpha  occ. eigenvalues --  -19.27197 -19.24537 -19.21988 -19.21893 -19.20158
 Alpha  occ. eigenvalues --  -19.20019 -19.19833 -19.19613 -19.19418 -19.19032
 Alpha  occ. eigenvalues --  -19.18100 -19.15826 -19.15484 -19.14324 -19.14195
 Alpha  occ. eigenvalues --  -14.59799 -14.49569 -14.45601 -14.43645 -14.43575
 Alpha  occ. eigenvalues --  -14.43382 -14.42782 -14.40123 -14.39128 -14.38906
 Alpha  occ. eigenvalues --  -14.38503 -10.43694 -10.40654 -10.38976 -10.36900
 Alpha  occ. eigenvalues --  -10.36806 -10.36663 -10.36451 -10.35960 -10.34293
 Alpha  occ. eigenvalues --  -10.33459 -10.32718 -10.32444 -10.32111 -10.31588
 Alpha  occ. eigenvalues --  -10.31448 -10.31162 -10.31039 -10.30704 -10.30376
 Alpha  occ. eigenvalues --  -10.30343 -10.30052 -10.29435 -10.28664 -10.28365
 Alpha  occ. eigenvalues --  -10.28159 -10.28029 -10.27590 -10.27451 -10.27003
 Alpha  occ. eigenvalues --  -10.26508 -10.26441 -10.26200 -10.25200 -10.25198
 Alpha  occ. eigenvalues --  -10.24511 -10.23820 -10.22923 -10.22639 -10.21759
 Alpha  occ. eigenvalues --  -10.21615 -10.21559 -10.20656 -10.19360 -10.18826
 Alpha  occ. eigenvalues --   -1.19692  -1.15172  -1.14223  -1.13553  -1.12352
 Alpha  occ. eigenvalues --   -1.11862  -1.11224  -1.10822  -1.09313  -1.08034
 Alpha  occ. eigenvalues --   -1.07608  -1.07350  -1.06909  -1.06447  -1.06209
 Alpha  occ. eigenvalues --   -1.06013  -1.05952  -1.02313  -1.00467  -1.00365
 Alpha  occ. eigenvalues --   -0.99900  -0.99163  -0.96822  -0.96094  -0.95628
 Alpha  occ. eigenvalues --   -0.94932  -0.93464  -0.91191  -0.88689  -0.88176
 Alpha  occ. eigenvalues --   -0.86894  -0.85074  -0.84021  -0.83151  -0.82960
 Alpha  occ. eigenvalues --   -0.82598  -0.81691  -0.80786  -0.80324  -0.79024
 Alpha  occ. eigenvalues --   -0.78860  -0.78317  -0.77363  -0.77039  -0.76850
 Alpha  occ. eigenvalues --   -0.75833  -0.74710  -0.73913  -0.72993  -0.72645
 Alpha  occ. eigenvalues --   -0.71679  -0.71671  -0.70146  -0.69824  -0.69317
 Alpha  occ. eigenvalues --   -0.68675  -0.68282  -0.68176  -0.67712  -0.67333
 Alpha  occ. eigenvalues --   -0.66738  -0.66529  -0.66183  -0.66039  -0.65459
 Alpha  occ. eigenvalues --   -0.65207  -0.64655  -0.64126  -0.63299  -0.63168
 Alpha  occ. eigenvalues --   -0.63011  -0.61876  -0.61403  -0.61306  -0.60503
 Alpha  occ. eigenvalues --   -0.59831  -0.59741  -0.59148  -0.59090  -0.58679
 Alpha  occ. eigenvalues --   -0.57905  -0.57604  -0.57032  -0.56718  -0.56614
 Alpha  occ. eigenvalues --   -0.56460  -0.55978  -0.55615  -0.55262  -0.55079
 Alpha  occ. eigenvalues --   -0.54739  -0.54541  -0.54429  -0.54025  -0.53706
 Alpha  occ. eigenvalues --   -0.53312  -0.53169  -0.52715  -0.52355  -0.52316
 Alpha  occ. eigenvalues --   -0.52038  -0.51754  -0.51533  -0.51378  -0.51235
 Alpha  occ. eigenvalues --   -0.51156  -0.50670  -0.50589  -0.50413  -0.50194
 Alpha  occ. eigenvalues --   -0.50020  -0.49796  -0.49501  -0.49449  -0.48990
 Alpha  occ. eigenvalues --   -0.48955  -0.48665  -0.48399  -0.48331  -0.47921
 Alpha  occ. eigenvalues --   -0.47740  -0.47685  -0.47635  -0.47395  -0.47018
 Alpha  occ. eigenvalues --   -0.46931  -0.46687  -0.46626  -0.46553  -0.46303
 Alpha  occ. eigenvalues --   -0.46064  -0.45624  -0.45578  -0.45313  -0.45137
 Alpha  occ. eigenvalues --   -0.45095  -0.44836  -0.44735  -0.44539  -0.44339
 Alpha  occ. eigenvalues --   -0.44243  -0.44163  -0.44141  -0.43932  -0.43900
 Alpha  occ. eigenvalues --   -0.43387  -0.43160  -0.43136  -0.42822  -0.42747
 Alpha  occ. eigenvalues --   -0.42664  -0.42424  -0.42239  -0.42150  -0.41770
 Alpha  occ. eigenvalues --   -0.41653  -0.41328  -0.41295  -0.41273  -0.41242
 Alpha  occ. eigenvalues --   -0.41158  -0.41088  -0.40846  -0.40714  -0.40582
 Alpha  occ. eigenvalues --   -0.40224  -0.39960  -0.39899  -0.39467  -0.39085
 Alpha  occ. eigenvalues --   -0.39007  -0.38822  -0.37954  -0.37145  -0.36216
 Alpha  occ. eigenvalues --   -0.36202  -0.35414  -0.35067  -0.35007  -0.34707
 Alpha  occ. eigenvalues --   -0.34477  -0.34268  -0.34138  -0.33903  -0.33770
 Alpha  occ. eigenvalues --   -0.33363  -0.33283  -0.32856  -0.32711  -0.32438
 Alpha  occ. eigenvalues --   -0.32248  -0.31364  -0.30268  -0.30104  -0.29660
 Alpha  occ. eigenvalues --   -0.29437  -0.28847  -0.28053  -0.27783  -0.27645
 Alpha virt. eigenvalues --   -0.12688  -0.10905  -0.07974  -0.06259  -0.06202
 Alpha virt. eigenvalues --   -0.05835  -0.05175  -0.04861  -0.04635  -0.03380
 Alpha virt. eigenvalues --   -0.02759  -0.02288  -0.01267  -0.00948  -0.00875

 Mulliken charges:
               1
     1  N   -0.554129
     2  H    0.351045
     3  H    0.345499
     4  H    0.372622
     5  C   -0.099539
     6  H    0.172042
     7  C    0.637330
     8  C   -0.183405
     9  H    0.128499
    10  H    0.124028
    11  O   -0.544927
    12  C   -0.095968
    13  H    0.125227
    14  C   -0.317615
    15  H    0.113759
    16  H    0.086847
    17  H    0.149131
    18  C   -0.317468
    19  H    0.113930
    20  H    0.113418
    21  H    0.133251
    22  N   -0.510720
    23  H    0.309905
    24  C   -0.030312
    25  H    0.143776
    26  C    0.615942
    27  C   -0.052814
    28  H    0.110785
    29  O   -0.559641
    30  C   -0.336364
    31  H    0.115553
    32  H    0.125842
    33  H    0.125701
    34  C   -0.311298
    35  H    0.123002
    36  H    0.125363
    37  H    0.088707
    38  N   -0.516913
    39  H    0.292545
    40  C   -0.019420
    41  H    0.140096
    42  C    0.608525
    43  C   -0.050593
    44  H    0.106960
    45  O   -0.556498
    46  C   -0.335714
    47  H    0.108995
    48  H    0.129106
    49  H    0.118956
    50  C   -0.314871
    51  H    0.119056
    52  H    0.090845
    53  H    0.112704
    54  N   -0.508631
    55  H    0.296202
    56  C   -0.043515
    57  H    0.156803
    58  C    0.652259
    59  C    0.064918
    60  H    0.118105
    61  H    0.092352
    62  O   -0.572593
    63  O   -0.532054
    64  H    0.320582
    65  N   -0.520278
    66  H    0.285834
    67  C   -0.050400
    68  H    0.135311
    69  C    0.612156
    70  C    0.208471
    71  H    0.104027
    72  O   -0.565269
    73  C   -0.342603
    74  H    0.116436
    75  H    0.104987
    76  H    0.132476
    77  O   -0.552495
    78  H    0.318704
    79  N   -0.511496
    80  H    0.292662
    81  C   -0.039433
    82  H    0.140543
    83  C    0.615565
    84  C   -0.169575
    85  H    0.142994
    86  H    0.110183
    87  O   -0.564562
    88  C   -0.246550
    89  H    0.135474
    90  H    0.102320
    91  C    0.531643
    92  N   -0.614293
    93  H    0.302827
    94  H    0.269790
    95  O   -0.505693
    96  N   -0.520873
    97  H    0.296865
    98  C   -0.050296
    99  H    0.136068
   100  C    0.641850
   101  C    0.153363
   102  H    0.144228
   103  O   -0.528171
   104  C   -0.352051
   105  H    0.159726
   106  H    0.093437
   107  H    0.126860
   108  O   -0.554436
   109  H    0.305446
   110  N   -0.526845
   111  H    0.297889
   112  C    0.000028
   113  H    0.120014
   114  C    0.626410
   115  C   -0.340262
   116  H    0.126549
   117  H    0.116883
   118  H    0.131415
   119  O   -0.549174
   120  N   -0.510870
   121  H    0.277302
   122  C   -0.038881
   123  H    0.132387
   124  C    0.607412
   125  C   -0.148253
   126  H    0.102316
   127  H    0.088578
   128  O   -0.541082
   129  C   -0.076385
   130  H    0.135000
   131  C   -0.309846
   132  H    0.094637
   133  H    0.102280
   134  H    0.096530
   135  C   -0.329065
   136  H    0.082219
   137  H    0.091097
   138  H    0.136107
   139  N   -0.535135
   140  H    0.281127
   141  C   -0.003922
   142  H    0.171748
   143  C    0.587940
   144  C   -0.308953
   145  H    0.138829
   146  H    0.138115
   147  H    0.109449
   148  O   -0.453214
   149  O   -0.500372
   150  H    0.333011
 Sum of Mulliken charges =   1.00000

 Dipole moment (field-independent basis, Debye):
    X=            -41.1012    Y=            -13.4567    Z=            -27.5843  Tot=             51.2960
 Quadrupole moment (field-independent basis, Debye-Ang):
   XX=             67.2120   YY=           -387.9735   ZZ=           -155.5291
   XY=             82.6463   XZ=            355.6086   YZ=             50.1026

 Normal termination of Gaussian 16 at Thu Sep  8 14:46:59 2022.
