 Gaussian 16, Revision C.01,
 Gaussian 16:  ES64L-G16RevC.01  3-Jul-2019

 ----------------------------------------------------------------------
 # B3LYP/6-31G** empiricaldispersion=gd3bj guess=read geom=check nosymm
  integral(ultrafinegrid)
 ----------------------------------------------------------------------

 ------------------------------------------------------
 Candidate Structure: Conf:448 Charge calc in gas phase
 ------------------------------------------------------
 Structure from the checkpoint file:  "conf-448.chk"
 Charge =  1 Multiplicity = 1

                          Input orientation:
 ---------------------------------------------------------------------
 Center     Atomic      Atomic             Coordinates (Angstroms)
 Number     Number       Type             X           Y           Z
 ---------------------------------------------------------------------
      1          7           0       -3.704685   -3.210182   -6.973051
      2          1           0       -3.584425   -3.726482   -7.844199
      3          1           0       -3.097811   -3.631289   -6.199457
      4          1           0       -3.392285   -2.230955   -7.059534
      5          6           0       -5.142702   -3.148885   -6.523792
      6          1           0       -5.739283   -2.860408   -7.395458
      7          6           0       -5.118537   -1.991942   -5.500574
      8          6           0       -5.585250   -4.494249   -5.961691
      9          1           0       -6.657373   -4.481724   -5.749855
     10          1           0       -5.409749   -5.295218   -6.685540
     11          1           0       -5.047067   -4.710364   -5.036113
     12          8           0       -4.184656   -1.182640   -5.560997
     13          7           0       -6.072193   -1.961984   -4.563884
     14          1           0       -6.779291   -2.685894   -4.552877
     15          6           0       -5.780974   -1.303265   -3.290780
     16          1           0       -5.664232   -0.231135   -3.467592
     17          6           0       -4.467180   -1.927025   -2.777898
     18          6           0       -6.911338   -1.566957   -2.257113
     19          1           0       -6.715306   -2.533644   -1.780903
     20          1           0       -6.827061   -0.807891   -1.474842
     21          8           0       -4.240108   -3.125260   -2.981591
     22          6           0       -8.282264   -1.587950   -2.855796
     23          6           0       -9.166628   -0.549598   -3.019637
     24          1           0       -9.091198    0.478809   -2.696833
     25          6           0       -8.888018   -2.744086   -3.469890
     26          6           0      -10.141500   -2.331211   -4.000580
     27          6           0       -8.484527   -4.083737   -3.626766
     28          1           0       -7.549636   -4.434473   -3.195966
     29          7           0      -10.281163   -0.990525   -3.705737
     30          1           0      -11.092776   -0.430392   -3.910974
     31          6           0      -10.554881   -4.526045   -4.834769
     32          1           0      -11.188831   -5.234395   -5.357476
     33          6           0      -10.984968   -3.212663   -4.682021
     34          1           0      -11.941296   -2.887045   -5.078698
     35          6           0       -9.319741   -4.959668   -4.312140
     36          1           0       -9.029883   -5.999074   -4.428506
     37          7           0       -3.619328   -1.123911   -2.121895
     38          1           0       -3.834436   -0.161141   -1.878154
     39          6           0       -2.392967   -1.634655   -1.536795
     40          1           0       -2.567146   -2.665317   -1.217865
     41          6           0       -2.078354   -0.729941   -0.335515
     42          6           0       -1.202653   -1.595251   -2.525695
     43          1           0       -0.922975   -0.547828   -2.681284
     44          1           0       -0.345737   -2.088721   -2.058368
     45          8           0       -2.600975    0.381182   -0.241956
     46          6           0       -1.477622   -2.200452   -3.907084
     47          1           0       -2.288270   -1.671368   -4.412909
     48          1           0       -0.585453   -2.066422   -4.533790
     49          6           0       -1.797002   -3.670442   -3.968345
     50          8           0       -2.286384   -4.239065   -4.946278
     51          8           0       -1.409457   -4.360727   -2.901267
     52          7           0       -1.189608   -1.239283    0.535203
     53          1           0       -0.708365   -2.110698    0.336511
     54          6           0       -0.555000   -0.462613    1.591877
     55          1           0       -0.730671    0.596625    1.380707
     56          6           0        0.937029   -0.810576    1.491420
     57          6           0       -1.132382   -0.807355    2.992452
     58          1           0       -0.887372   -1.861386    3.181785
     59          8           0        1.281984   -1.924526    1.093409
     60          6           0       -0.500996    0.051274    4.095760
     61          1           0       -0.679215    1.117582    3.911548
     62          1           0       -0.954684   -0.190761    5.060777
     63          1           0        0.576608   -0.092077    4.194202
     64          6           0       -2.657080   -0.649748    2.994429
     65          1           0       -2.943598    0.378660    2.752385
     66          1           0       -3.132256   -1.310635    2.265857
     67          1           0       -3.058115   -0.892774    3.982668
     68          7           0        1.805966    0.165207    1.842872
     69          1           0        1.473343    0.955943    2.393080
     70          6           0        3.210512   -0.119495    2.100800
     71          1           0        3.326804   -1.193969    2.276854
     72          6           0        3.573914    0.681338    3.363704
     73          6           0        4.107182    0.304292    0.911845
     74          1           0        5.148906    0.108512    1.189250
     75          8           0        2.782162    1.500558    3.835894
     76          6           0        3.776055   -0.453964   -0.369769
     77          1           0        3.865151   -1.534252   -0.229275
     78          1           0        2.747959   -0.246277   -0.683066
     79          1           0        4.453287   -0.134757   -1.165723
     80          8           0        4.037258    1.711129    0.726827
     81          1           0        3.115217    1.921049    0.518951
     82          7           0        4.781678    0.407351    3.885604
     83          1           0        5.443883   -0.182321    3.391404
     84          6           0        5.406587    1.214000    4.923677
     85          1           0        4.875844    2.170326    4.969619
     86          6           0        6.856731    1.401960    4.453224
     87          6           0        5.338790    0.527096    6.314677
     88          1           0        5.929268   -0.395958    6.237885
     89          8           0        7.407963    0.524254    3.783624
     90          6           0        5.948964    1.410115    7.410183
     91          1           0        5.418993    2.368140    7.478963
     92          1           0        7.006805    1.620087    7.238435
     93          1           0        5.860285    0.918194    8.382846
     94          6           0        3.892750    0.156514    6.663039
     95          1           0        3.256238    1.046438    6.689673
     96          1           0        3.853776   -0.324147    7.645216
     97          1           0        3.468575   -0.535147    5.931674
     98          7           0        7.464534    2.542900    4.825885
     99          1           0        6.978872    3.258281    5.353086
    100          6           0        8.854313    2.830904    4.520490
    101          1           0        9.440592    1.915645    4.622325
    102          6           0        9.350499    3.867047    5.512175
    103          6           0        9.013212    3.380631    3.067178
    104          1           0        8.126649    3.987701    2.852067
    105          1           0        8.968162    2.513349    2.403754
    106          8           0       10.662895    3.815644    5.670305
    107          6           0       10.282225    4.215079    2.799599
    108          1           0       11.122855    3.784630    3.349634
    109          1           0       10.534298    4.132323    1.737472
    110          6           0       10.117811    5.718553    3.153131
    111          1           0        9.857209    6.262620    2.239231
    112          1           0        9.264839    5.858852    3.826233
    113          6           0       11.340756    6.407348    3.784812
    114          1           0       11.364602    7.462768    3.483132
    115          1           0       12.266167    5.949566    3.419978
    116          7           0       11.338835    6.292094    5.265932
    117          1           0       12.181289    6.708788    5.655412
    118          1           0       10.547615    6.808383    5.648023
    119          1           0       11.015637    4.782721    5.743924
    120          8           0        8.607785    4.709071    5.997601
    121          1           0       -1.657143   -5.291445   -3.040017
 ---------------------------------------------------------------------

 SCF Done:  E(RB3LYP) =  -2844.07138949     A.U. after    1 cycles

 Alpha  occ. eigenvalues --  -19.30770 -19.25865 -19.24647 -19.21277 -19.19992
 Alpha  occ. eigenvalues --  -19.19808 -19.19681 -19.18875 -19.17433 -19.17172
 Alpha  occ. eigenvalues --  -19.16252 -14.55776 -14.47315 -14.46362 -14.45473
 Alpha  occ. eigenvalues --  -14.43578 -14.42376 -14.41025 -14.40603 -14.39711
 Alpha  occ. eigenvalues --  -10.44001 -10.41449 -10.38349 -10.38329 -10.36891
 Alpha  occ. eigenvalues --  -10.35642 -10.34941 -10.34376 -10.33790 -10.33316
 Alpha  occ. eigenvalues --  -10.32196 -10.30528 -10.30520 -10.30295 -10.29959
 Alpha  occ. eigenvalues --  -10.29878 -10.29625 -10.29254 -10.28948 -10.28866
 Alpha  occ. eigenvalues --  -10.27775 -10.27325 -10.27200 -10.27142 -10.27020
 Alpha  occ. eigenvalues --  -10.26951 -10.26885 -10.26570 -10.26518 -10.25792
 Alpha  occ. eigenvalues --  -10.23931 -10.23039 -10.23006 -10.22970 -10.22960
 Alpha  occ. eigenvalues --  -10.22851 -10.22490 -10.21625 -10.21219  -1.22230
 Alpha  occ. eigenvalues --   -1.17088  -1.13418  -1.12890  -1.12452  -1.11815
 Alpha  occ. eigenvalues --   -1.10757  -1.10370  -1.09412  -1.08128  -1.07299
 Alpha  occ. eigenvalues --   -1.06258  -1.04394  -1.03933  -1.01969  -1.00395
 Alpha  occ. eigenvalues --   -0.98948  -0.97911  -0.97155  -0.95303  -0.92320
 Alpha  occ. eigenvalues --   -0.91318  -0.90065  -0.88945  -0.87203  -0.85596
 Alpha  occ. eigenvalues --   -0.85378  -0.84156  -0.82996  -0.82813  -0.81863
 Alpha  occ. eigenvalues --   -0.80347  -0.79834  -0.78617  -0.78446  -0.77171
 Alpha  occ. eigenvalues --   -0.76144  -0.75130  -0.74236  -0.73915  -0.73107
 Alpha  occ. eigenvalues --   -0.72374  -0.71485  -0.71286  -0.70654  -0.70152
 Alpha  occ. eigenvalues --   -0.68474  -0.68262  -0.67485  -0.67280  -0.67232
 Alpha  occ. eigenvalues --   -0.66332  -0.65566  -0.65279  -0.64523  -0.64224
 Alpha  occ. eigenvalues --   -0.63724  -0.63372  -0.63148  -0.62774  -0.62237
 Alpha  occ. eigenvalues --   -0.61884  -0.61400  -0.60906  -0.60250  -0.59413
 Alpha  occ. eigenvalues --   -0.59243  -0.58705  -0.57970  -0.57375  -0.56805
 Alpha  occ. eigenvalues --   -0.56226  -0.55997  -0.55859  -0.55520  -0.55340
 Alpha  occ. eigenvalues --   -0.55086  -0.54878  -0.54138  -0.53739  -0.53164
 Alpha  occ. eigenvalues --   -0.52813  -0.52521  -0.52373  -0.52154  -0.51829
 Alpha  occ. eigenvalues --   -0.51647  -0.51447  -0.51288  -0.50953  -0.50909
 Alpha  occ. eigenvalues --   -0.50834  -0.50811  -0.50508  -0.50042  -0.49995
 Alpha  occ. eigenvalues --   -0.49935  -0.49877  -0.49472  -0.49260  -0.49229
 Alpha  occ. eigenvalues --   -0.48778  -0.48295  -0.48010  -0.47930  -0.47580
 Alpha  occ. eigenvalues --   -0.47349  -0.47189  -0.46823  -0.46269  -0.46065
 Alpha  occ. eigenvalues --   -0.45902  -0.45806  -0.45589  -0.45526  -0.45107
 Alpha  occ. eigenvalues --   -0.44840  -0.44587  -0.44266  -0.43847  -0.43759
 Alpha  occ. eigenvalues --   -0.43638  -0.43504  -0.43358  -0.42903  -0.42785
 Alpha  occ. eigenvalues --   -0.42349  -0.42082  -0.41831  -0.41805  -0.41662
 Alpha  occ. eigenvalues --   -0.41521  -0.40837  -0.40332  -0.40213  -0.39805
 Alpha  occ. eigenvalues --   -0.39611  -0.39089  -0.38840  -0.38722  -0.38023
 Alpha  occ. eigenvalues --   -0.37979  -0.37936  -0.37876  -0.37580  -0.37298
 Alpha  occ. eigenvalues --   -0.37086  -0.35955  -0.35663  -0.35155  -0.34229
 Alpha  occ. eigenvalues --   -0.33786  -0.33564  -0.33200  -0.32489  -0.32019
 Alpha  occ. eigenvalues --   -0.31937  -0.31681  -0.31063  -0.30709  -0.30622
 Alpha  occ. eigenvalues --   -0.29716  -0.29240  -0.28797
 Alpha virt. eigenvalues --   -0.11572  -0.10243  -0.09810  -0.07344  -0.06466
 Alpha virt. eigenvalues --   -0.06136  -0.05858  -0.04705  -0.03424  -0.03106
 Alpha virt. eigenvalues --   -0.02574  -0.01961  -0.01666  -0.01633  -0.00348

 Mulliken charges:
               1
     1  N   -0.566964
     2  H    0.330091
     3  H    0.398922
     4  H    0.342177
     5  C   -0.093171
     6  H    0.178629
     7  C    0.650491
     8  C   -0.355368
     9  H    0.154107
    10  H    0.129872
    11  H    0.178994
    12  O   -0.543789
    13  N   -0.508769
    14  H    0.287877
    15  C    0.013208
    16  H    0.138934
    17  C    0.610217
    18  C   -0.288159
    19  H    0.140834
    20  H    0.137158
    21  O   -0.569640
    22  C    0.033671
    23  C    0.069237
    24  H    0.126646
    25  C    0.037317
    26  C    0.293901
    27  C   -0.193086
    28  H    0.100881
    29  N   -0.612948
    30  H    0.275049
    31  C   -0.108144
    32  H    0.102580
    33  C   -0.090241
    34  H    0.101967
    35  C   -0.098513
    36  H    0.094426
    37  N   -0.517668
    38  H    0.290436
    39  C   -0.024356
    40  H    0.151101
    41  C    0.599372
    42  C   -0.174885
    43  H    0.126084
    44  H    0.138929
    45  O   -0.541484
    46  C   -0.309593
    47  H    0.171750
    48  H    0.153139
    49  C    0.674075
    50  O   -0.550637
    51  O   -0.452855
    52  N   -0.521210
    53  H    0.284794
    54  C   -0.016655
    55  H    0.133979
    56  C    0.599243
    57  C   -0.049197
    58  H    0.100926
    59  O   -0.547468
    60  C   -0.334096
    61  H    0.110737
    62  H    0.115880
    63  H    0.123004
    64  C   -0.309354
    65  H    0.119837
    66  H    0.099296
    67  H    0.109670
    68  N   -0.538503
    69  H    0.293288
    70  C   -0.053901
    71  H    0.141881
    72  C    0.632150
    73  C    0.177094
    74  H    0.116092
    75  O   -0.553445
    76  C   -0.318239
    77  H    0.118771
    78  H    0.094960
    79  H    0.118638
    80  O   -0.538800
    81  H    0.303573
    82  N   -0.525090
    83  H    0.284090
    84  C   -0.010514
    85  H    0.129797
    86  C    0.608390
    87  C   -0.045447
    88  H    0.101179
    89  O   -0.554809
    90  C   -0.328984
    91  H    0.105099
    92  H    0.116161
    93  H    0.113392
    94  C   -0.309438
    95  H    0.119260
    96  H    0.103246
    97  H    0.102328
    98  N   -0.528684
    99  H    0.281266
   100  C    0.032720
   101  H    0.147838
   102  C    0.571172
   103  C   -0.189931
   104  H    0.107887
   105  H    0.130753
   106  O   -0.524357
   107  C   -0.202602
   108  H    0.126456
   109  H    0.101579
   110  C   -0.205444
   111  H    0.107035
   112  H    0.120535
   113  C   -0.064651
   114  H    0.105686
   115  H    0.123061
   116  N   -0.654622
   117  H    0.271323
   118  H    0.283040
   119  H    0.375654
   120  O   -0.511486
   121  H    0.342367
 Sum of Mulliken charges =   1.00000

 Dipole moment (field-independent basis, Debye):
    X=            -14.1455    Y=             -6.5982    Z=            -19.6906  Tot=             25.1267
 Quadrupole moment (field-independent basis, Debye-Ang):
   XX=            -85.6147   YY=           -259.0477   ZZ=           -179.7390
   XY=            114.9910   XZ=            148.7961   YZ=             93.9667

 Normal termination of Gaussian 16 at Sun Sep  4 01:08:38 2022.
