 Gaussian 16, Revision C.01,
 Gaussian 16:  ES64L-G16RevC.01  3-Jul-2019

 ----------------------------------------------------------------------
 # B3LYP/6-31G** empiricaldispersion=gd3bj guess=read geom=check nosymm
  integral(ultrafinegrid)
 ----------------------------------------------------------------------

 ------------------------------------------------------
 Candidate Structure: Conf:315 Charge calc in gas phase
 ------------------------------------------------------
 Structure from the checkpoint file:  "conf-315.chk"
 Charge =  1 Multiplicity = 1

                          Input orientation:
 ---------------------------------------------------------------------
 Center     Atomic      Atomic             Coordinates (Angstroms)
 Number     Number       Type             X           Y           Z
 ---------------------------------------------------------------------
      1          7           0       -5.596322   -0.726423   -8.543941
      2          1           0       -6.414726   -0.970892   -7.931943
      3          1           0       -5.778412   -0.981520   -9.515394
      4          1           0       -5.458601    0.300751   -8.433924
      5          6           0       -4.314767   -1.314842   -7.998854
      6          1           0       -4.533654   -2.329088   -7.660123
      7          6           0       -4.025880   -0.359748   -6.820844
      8          6           0       -3.219741   -1.285955   -9.058367
      9          1           0       -2.296846   -1.691041   -8.636841
     10          1           0       -3.485992   -1.895105   -9.927279
     11          1           0       -3.022760   -0.258951   -9.377953
     12          8           0       -4.323562    0.827227   -6.983439
     13          7           0       -3.528159   -0.887041   -5.701148
     14          1           0       -3.242475   -1.858873   -5.621946
     15          6           0       -3.640105   -0.204659   -4.423380
     16          1           0       -3.504822    0.865536   -4.586356
     17          6           0       -2.561696   -0.809688   -3.518233
     18          6           0       -5.043561   -0.493773   -3.780705
     19          1           0       -5.005211   -1.500198   -3.352114
     20          1           0       -5.188191    0.205585   -2.951638
     21          8           0       -2.196130   -1.973207   -3.720220
     22          6           0       -6.175259   -0.416270   -4.756977
     23          6           0       -6.709503   -1.472447   -5.433839
     24          1           0       -6.513226   -2.529973   -5.323603
     25          6           0       -6.820106    0.782501   -5.264588
     26          6           0       -7.737465    0.379367   -6.258855
     27          6           0       -6.682291    2.144704   -4.970792
     28          1           0       -5.973246    2.482811   -4.222337
     29          7           0       -7.608700   -1.021603   -6.432061
     30          1           0       -8.441456   -1.569334   -6.624306
     31          6           0       -8.396229    2.632212   -6.631554
     32          1           0       -9.009626    3.367278   -7.141490
     33          6           0       -8.534944    1.284092   -6.955882
     34          1           0       -9.246288    0.957537   -7.708465
     35          6           0       -7.477094    3.056607   -5.655452
     36          1           0       -7.390361    4.115067   -5.435142
     37          7           0       -2.142086   -0.036242   -2.513539
     38          1           0       -2.456166    0.923384   -2.379415
     39          6           0       -1.239792   -0.492684   -1.470389
     40          1           0       -1.608926   -1.444176   -1.075010
     41          6           0       -1.316978    0.576908   -0.369332
     42          6           0        0.229197   -0.668446   -1.959734
     43          1           0        0.311128   -0.196025   -2.941610
     44          1           0        0.903738   -0.128226   -1.290253
     45          8           0       -1.816555    1.680982   -0.590041
     46          6           0        0.666220   -2.128205   -2.075714
     47          1           0       -0.068455   -2.701865   -2.653351
     48          1           0        1.616480   -2.211651   -2.612936
     49          6           0        0.841333   -2.808189   -0.740315
     50          8           0        0.491938   -2.366417    0.343631
     51          8           0        1.431233   -4.006152   -0.857811
     52          7           0       -0.784435    0.190753    0.805825
     53          1           0       -0.263494   -0.686207    0.792050
     54          6           0       -0.398123    1.164943    1.806582
     55          1           0       -1.232196    1.858300    1.959947
     56          6           0        0.812711    1.948475    1.266635
     57          6           0       -0.085998    0.423024    3.136393
     58          1           0        0.740193   -0.268703    2.924828
     59          8           0        1.531990    1.489795    0.378273
     60          6           0        0.349061    1.356618    4.274012
     61          1           0       -0.404449    2.134309    4.455196
     62          1           0        0.437221    0.783992    5.201157
     63          1           0        1.315117    1.837174    4.108442
     64          6           0       -1.307967   -0.397490    3.572425
     65          1           0       -2.157268    0.260928    3.787782
     66          1           0       -1.619439   -1.108927    2.805390
     67          1           0       -1.078317   -0.956611    4.483687
     68          7           0        1.054933    3.162390    1.836516
     69          1           0        0.565294    3.371006    2.698040
     70          6           0        2.378376    3.788474    1.687308
     71          1           0        2.663167    3.656997    0.641053
     72          6           0        3.349503    3.038528    2.616537
     73          6           0        2.278537    5.287668    1.979921
     74          1           0        1.926688    5.411522    3.016200
     75          8           0        3.518541    3.377004    3.785139
     76          6           0        3.622468    5.983006    1.832739
     77          1           0        4.329757    5.608738    2.575366
     78          1           0        4.022623    5.824560    0.825010
     79          1           0        3.495493    7.058106    1.976187
     80          8           0        1.383040    5.894130    1.056618
     81          1           0        0.578927    5.356476    1.031103
     82          7           0        3.918217    1.954106    2.033522
     83          1           0        3.571409    1.683115    1.121619
     84          6           0        4.707881    0.975537    2.769445
     85          1           0        5.020070    1.457542    3.696641
     86          6           0        5.946268    0.634421    1.955805
     87          6           0        3.864494   -0.281404    3.132361
     88          1           0        2.981032    0.121094    3.645282
     89          8           0        5.809714    0.678729    0.613337
     90          6           0        3.394882   -1.064353    1.899446
     91          1           0        4.245872   -1.476987    1.348407
     92          1           0        2.814326   -0.444527    1.211490
     93          1           0        2.755090   -1.898939    2.203724
     94          6           0        4.604546   -1.190304    4.118788
     95          1           0        5.487030   -1.644385    3.660663
     96          1           0        3.947066   -1.999129    4.452214
     97          1           0        4.932509   -0.636263    5.003896
     98          7           0        7.011415    0.286608    2.561342
     99          1           0        7.668806   -0.823123    3.894093
    100          6           0        8.197969   -0.092716    1.801044
    101          1           0        7.938735   -0.494098    0.814860
    102          6           0        8.913768   -1.217664    2.570654
    103          6           0        9.190692    1.074838    1.599936
    104          1           0       10.101851    0.623846    1.197373
    105          1           0        9.448532    1.498758    2.578224
    106          8           0        9.863568   -1.811134    2.116910
    107          6           0        8.688823    2.179926    0.653957
    108          1           0        9.549787    2.684294    0.199468
    109          1           0        8.147343    1.697651   -0.167310
    110          6           0        7.799324    3.234193    1.337407
    111          1           0        7.170939    2.764508    2.096191
    112          1           0        8.432534    3.947717    1.877914
    113          6           0        6.901325    4.023119    0.382994
    114          1           0        7.504188    4.652522   -0.284461
    115          1           0        6.261830    4.691731    0.965377
    116          7           0        6.009748    3.127698   -0.407752
    117          1           0        6.468081    2.869581   -1.279001
    118          1           0        5.768569    1.644810    0.273843
    119          1           0        5.165796    3.628330   -0.674364
    120          8           0        8.405828   -1.468095    3.788838
    121          1           0        1.505800   -4.381010    0.036954
 ---------------------------------------------------------------------

 SCF Done:  E(RB3LYP) =  -2844.02872473     A.U. after    1 cycles

 Alpha  occ. eigenvalues --  -19.27756 -19.25836 -19.22922 -19.21989 -19.20346
 Alpha  occ. eigenvalues --  -19.20210 -19.20037 -19.19994 -19.19957 -19.17437
 Alpha  occ. eigenvalues --  -19.14619 -14.58733 -14.50232 -14.49172 -14.45648
 Alpha  occ. eigenvalues --  -14.44434 -14.42591 -14.41525 -14.41344 -14.36952
 Alpha  occ. eigenvalues --  -10.42996 -10.40710 -10.40460 -10.39089 -10.36884
 Alpha  occ. eigenvalues --  -10.36599 -10.35138 -10.34648 -10.33718 -10.33275
 Alpha  occ. eigenvalues --  -10.33253 -10.32989 -10.32770 -10.31881 -10.31091
 Alpha  occ. eigenvalues --  -10.30807 -10.30738 -10.29927 -10.29764 -10.29718
 Alpha  occ. eigenvalues --  -10.29697 -10.29043 -10.28948 -10.28405 -10.27900
 Alpha  occ. eigenvalues --  -10.27760 -10.27701 -10.27172 -10.27026 -10.25916
 Alpha  occ. eigenvalues --  -10.24722 -10.24475 -10.24012 -10.23158 -10.23145
 Alpha  occ. eigenvalues --  -10.22950 -10.22685 -10.22242 -10.21900  -1.19095
 Alpha  occ. eigenvalues --   -1.18620  -1.14036  -1.12999  -1.12522  -1.11460
 Alpha  occ. eigenvalues --   -1.11242  -1.09912  -1.09876  -1.09124  -1.09098
 Alpha  occ. eigenvalues --   -1.07708  -1.06003  -1.03017  -1.02325  -1.00451
 Alpha  occ. eigenvalues --   -1.00362  -0.98274  -0.96818  -0.95399  -0.94827
 Alpha  occ. eigenvalues --   -0.93151  -0.91768  -0.89287  -0.87753  -0.86958
 Alpha  occ. eigenvalues --   -0.85938  -0.84256  -0.84221  -0.83872  -0.83400
 Alpha  occ. eigenvalues --   -0.82232  -0.80766  -0.80288  -0.79106  -0.77715
 Alpha  occ. eigenvalues --   -0.77027  -0.75605  -0.74889  -0.74109  -0.73292
 Alpha  occ. eigenvalues --   -0.73237  -0.73154  -0.72802  -0.71742  -0.71286
 Alpha  occ. eigenvalues --   -0.70130  -0.68872  -0.67851  -0.67645  -0.67078
 Alpha  occ. eigenvalues --   -0.66607  -0.66407  -0.66137  -0.65040  -0.64515
 Alpha  occ. eigenvalues --   -0.64402  -0.64014  -0.63655  -0.62778  -0.62644
 Alpha  occ. eigenvalues --   -0.61980  -0.61627  -0.60995  -0.60401  -0.59843
 Alpha  occ. eigenvalues --   -0.59059  -0.58853  -0.58372  -0.58266  -0.58021
 Alpha  occ. eigenvalues --   -0.57620  -0.57489  -0.56921  -0.56625  -0.56198
 Alpha  occ. eigenvalues --   -0.55969  -0.55943  -0.55737  -0.55538  -0.55153
 Alpha  occ. eigenvalues --   -0.55029  -0.54158  -0.53899  -0.53691  -0.53351
 Alpha  occ. eigenvalues --   -0.52897  -0.52720  -0.52427  -0.52227  -0.52084
 Alpha  occ. eigenvalues --   -0.51737  -0.51571  -0.51285  -0.50924  -0.50449
 Alpha  occ. eigenvalues --   -0.50307  -0.50182  -0.49356  -0.49128  -0.48732
 Alpha  occ. eigenvalues --   -0.48629  -0.48357  -0.48029  -0.47824  -0.47758
 Alpha  occ. eigenvalues --   -0.47588  -0.47245  -0.46991  -0.46760  -0.46173
 Alpha  occ. eigenvalues --   -0.46074  -0.45759  -0.45579  -0.45360  -0.45123
 Alpha  occ. eigenvalues --   -0.45098  -0.44762  -0.44682  -0.44648  -0.44619
 Alpha  occ. eigenvalues --   -0.44475  -0.43967  -0.43638  -0.43435  -0.43344
 Alpha  occ. eigenvalues --   -0.42961  -0.42813  -0.42623  -0.42035  -0.41263
 Alpha  occ. eigenvalues --   -0.41165  -0.40906  -0.40792  -0.40577  -0.40321
 Alpha  occ. eigenvalues --   -0.40024  -0.39790  -0.39513  -0.39010  -0.38804
 Alpha  occ. eigenvalues --   -0.38524  -0.38037  -0.37903  -0.37707  -0.37202
 Alpha  occ. eigenvalues --   -0.36548  -0.36202  -0.35529  -0.35392  -0.34604
 Alpha  occ. eigenvalues --   -0.34260  -0.34239  -0.33823  -0.33774  -0.33157
 Alpha  occ. eigenvalues --   -0.32819  -0.32802  -0.32410  -0.32187  -0.31516
 Alpha  occ. eigenvalues --   -0.30618  -0.29886  -0.27803
 Alpha virt. eigenvalues --   -0.12791  -0.12572  -0.09695  -0.08906  -0.08306
 Alpha virt. eigenvalues --   -0.07399  -0.07086  -0.05807  -0.05284  -0.04771
 Alpha virt. eigenvalues --   -0.04402  -0.03642  -0.03504  -0.01995  -0.01963

 Mulliken charges:
               1
     1  N   -0.552254
     2  H    0.367147
     3  H    0.334636
     4  H    0.358493
     5  C   -0.081080
     6  H    0.155997
     7  C    0.641721
     8  C   -0.331684
     9  H    0.169582
    10  H    0.142571
    11  H    0.159246
    12  O   -0.528421
    13  N   -0.513694
    14  H    0.288946
    15  C   -0.026697
    16  H    0.156521
    17  C    0.618787
    18  C   -0.244998
    19  H    0.133688
    20  H    0.143029
    21  O   -0.553554
    22  C    0.069456
    23  C   -0.019775
    24  H    0.124417
    25  C    0.131304
    26  C    0.188584
    27  C   -0.124660
    28  H    0.100348
    29  N   -0.653073
    30  H    0.292865
    31  C   -0.097267
    32  H    0.113967
    33  C   -0.123972
    34  H    0.099569
    35  C   -0.089010
    36  H    0.113103
    37  N   -0.542307
    38  H    0.289257
    39  C    0.005276
    40  H    0.143395
    41  C    0.583223
    42  C   -0.202498
    43  H    0.115380
    44  H    0.170263
    45  O   -0.547538
    46  C   -0.278744
    47  H    0.176699
    48  H    0.149537
    49  C    0.600215
    50  O   -0.494361
    51  O   -0.465054
    52  N   -0.539129
    53  H    0.326695
    54  C   -0.013053
    55  H    0.132709
    56  C    0.628532
    57  C   -0.090948
    58  H    0.120818
    59  O   -0.538510
    60  C   -0.354423
    61  H    0.100630
    62  H    0.127044
    63  H    0.134969
    64  C   -0.306469
    65  H    0.108407
    66  H    0.115319
    67  H    0.116212
    68  N   -0.547627
    69  H    0.276836
    70  C   -0.029870
    71  H    0.123542
    72  C    0.615904
    73  C    0.171815
    74  H    0.099600
    75  O   -0.543356
    76  C   -0.332001
    77  H    0.137604
    78  H    0.095502
    79  H    0.133417
    80  O   -0.545950
    81  H    0.309400
    82  N   -0.540846
    83  H    0.286967
    84  C    0.019905
    85  H    0.150569
    86  C    0.509553
    87  C   -0.064328
    88  H    0.096759
    89  O   -0.606198
    90  C   -0.343092
    91  H    0.116867
    92  H    0.112122
    93  H    0.099656
    94  C   -0.314019
    95  H    0.118935
    96  H    0.100618
    97  H    0.111189
    98  N   -0.496092
    99  H    0.341070
   100  C   -0.029480
   101  H    0.132130
   102  C    0.590808
   103  C   -0.176762
   104  H    0.134144
   105  H    0.106374
   106  O   -0.469964
   107  C   -0.191811
   108  H    0.101368
   109  H    0.089088
   110  C   -0.188397
   111  H    0.120072
   112  H    0.108886
   113  C   -0.080829
   114  H    0.110132
   115  H    0.122008
   116  N   -0.662333
   117  H    0.276265
   118  H    0.399681
   119  H    0.269310
   120  O   -0.496481
   121  H    0.335949
 Sum of Mulliken charges =   1.00000

 Dipole moment (field-independent basis, Debye):
    X=            -26.8648    Y=             -0.8346    Z=            -33.1799  Tot=             42.7004
 Quadrupole moment (field-independent basis, Debye-Ang):
   XX=           -246.5286   YY=           -326.9346   ZZ=            -79.7520
   XY=             70.2282   XZ=            151.6356   YZ=             40.1085

 Normal termination of Gaussian 16 at Sun Sep  4 01:08:59 2022.
