 Gaussian 16, Revision C.01,
 Gaussian 16:  ES64L-G16RevC.01  3-Jul-2019

 ----------------------------------------------------------------------
 # B3LYP/6-31G** empiricaldispersion=gd3bj guess=read geom=check nosymm
  integral(ultrafinegrid)
 ----------------------------------------------------------------------

 ------------------------------------------------------
 Candidate Structure: Conf:472 Charge calc in gas phase
 ------------------------------------------------------
 Structure from the checkpoint file:  "conf-472.chk"
 Charge =  1 Multiplicity = 1

                          Input orientation:
 ---------------------------------------------------------------------
 Center     Atomic      Atomic             Coordinates (Angstroms)
 Number     Number       Type             X           Y           Z
 ---------------------------------------------------------------------
      1          7           0       -5.141600   -0.344699   -6.938499
      2          1           0       -5.621925   -0.329561   -7.838916
      3          1           0       -4.110209   -0.414473   -7.075364
      4          1           0       -5.305239    0.526249   -6.395725
      5          6           0       -5.615529   -1.452144   -6.024557
      6          1           0       -6.707504   -1.467857   -6.102526
      7          6           0       -5.248528   -0.909228   -4.624312
      8          6           0       -5.024547   -2.797640   -6.419528
      9          1           0       -5.464704   -3.596331   -5.815560
     10          1           0       -5.248990   -3.030167   -7.464278
     11          1           0       -3.941913   -2.809483   -6.272849
     12          8           0       -5.141426    0.323063   -4.497597
     13          7           0       -5.073789   -1.799822   -3.656382
     14          1           0       -5.256490   -2.781148   -3.839187
     15          6           0       -4.746118   -1.423423   -2.269959
     16          1           0       -5.287829   -0.497059   -2.058928
     17          6           0       -3.221141   -1.177387   -2.218670
     18          6           0       -5.164325   -2.537879   -1.288802
     19          1           0       -4.364672   -3.283900   -1.275175
     20          1           0       -5.189329   -2.098766   -0.287693
     21          8           0       -2.440537   -2.060364   -1.867153
     22          6           0       -6.472800   -3.172640   -1.644547
     23          6           0       -7.734376   -2.830019   -1.221983
     24          1           0       -8.040262   -2.095677   -0.490620
     25          6           0       -6.640210   -4.225191   -2.617347
     26          6           0       -8.037798   -4.459408   -2.750632
     27          6           0       -5.742338   -4.981409   -3.396463
     28          1           0       -4.667245   -4.873477   -3.267695
     29          7           0       -8.674945   -3.595407   -1.884235
     30          1           0       -9.664558   -3.585524   -1.695113
     31          6           0       -7.641675   -6.125112   -4.411440
     32          1           0       -8.009516   -6.872206   -5.106611
     33          6           0       -8.549914   -5.407362   -3.640449
     34          1           0       -9.617598   -5.582019   -3.727153
     35          6           0       -6.252615   -5.919239   -4.290041
     36          1           0       -5.572316   -6.525438   -4.879588
     37          7           0       -2.826160    0.038027   -2.657360
     38          1           0       -3.533073    0.721638   -2.893735
     39          6           0       -1.409638    0.379977   -2.816828
     40          1           0       -0.899332   -0.547000   -3.090422
     41          6           0       -0.835955    0.877055   -1.473493
     42          6           0       -1.209691    1.432790   -3.906924
     43          1           0       -1.556466    2.401341   -3.537690
     44          1           0       -0.134864    1.537091   -4.072005
     45          8           0       -0.592326    2.067767   -1.275196
     46          6           0       -1.910020    1.110215   -5.230007
     47          1           0       -2.997348    1.083919   -5.118800
     48          1           0       -1.694854    1.897976   -5.963515
     49          6           0       -1.454827   -0.184551   -5.845682
     50          8           0       -0.464591   -0.814579   -5.593950
     51          8           0       -2.326252   -0.632687   -6.842832
     52          7           0       -0.657441   -0.095874   -0.556898
     53          1           0       -0.882375   -1.051471   -0.812827
     54          6           0       -0.192902    0.196948    0.800436
     55          1           0       -0.574493    1.192630    1.052367
     56          6           0        1.346649    0.254079    0.765384
     57          6           0       -0.716089   -0.829945    1.814190
     58          1           0       -0.234367   -1.787915    1.583807
     59          8           0        2.049070   -0.689565    1.137287
     60          6           0       -0.301126   -0.421912    3.233351
     61          1           0       -0.722413    0.554514    3.499864
     62          1           0       -0.667725   -1.152146    3.960039
     63          1           0        0.784315   -0.371116    3.328757
     64          6           0       -2.239199   -0.988310    1.715263
     65          1           0       -2.742834   -0.026659    1.870599
     66          1           0       -2.552264   -1.386229    0.746264
     67          1           0       -2.593551   -1.677686    2.486990
     68          7           0        1.854559    1.398196    0.257922
     69          1           0        1.234829    2.136119   -0.064515
     70          6           0        3.281281    1.554333   -0.001114
     71          1           0        3.682763    0.569384   -0.263889
     72          6           0        3.982557    2.035071    1.285092
     73          6           0        3.501704    2.549668   -1.152144
     74          1           0        4.590249    2.659821   -1.268272
     75          8           0        4.432168    3.188509    1.387192
     76          6           0        2.899612    2.072219   -2.466583
     77          1           0        3.293272    1.090240   -2.746065
     78          1           0        1.811271    2.012861   -2.383313
     79          1           0        3.141250    2.786831   -3.256920
     80          8           0        2.902128    3.795039   -0.830962
     81          1           0        3.374969    4.092434   -0.032845
     82          7           0        4.022075    1.113327    2.260113
     83          1           0        3.621308    0.196660    2.063695
     84          6           0        4.501335    1.367284    3.613821
     85          1           0        4.841888    2.403742    3.641151
     86          6           0        5.668067    0.400757    3.848297
     87          6           0        3.383089    1.156923    4.653406
     88          1           0        3.032794    0.123716    4.532466
     89          8           0        5.485531   -0.810036    3.835448
     90          6           0        3.940079    1.308910    6.073797
     91          1           0        4.383852    2.301252    6.218088
     92          1           0        4.701067    0.553440    6.290025
     93          1           0        3.143230    1.193085    6.813809
     94          6           0        2.220944    2.122100    4.402143
     95          1           0        2.540358    3.160945    4.543062
     96          1           0        1.400266    1.926400    5.098779
     97          1           0        1.829945    2.028085    3.385470
     98          7           0        6.880769    1.002822    4.048374
     99          1           0        7.288836    0.818028    6.009573
    100          6           0        8.105244    0.211528    3.917244
    101          1           0        7.825835   -0.756541    3.487744
    102          6           0        8.752310   -0.094210    5.276398
    103          6           0        9.111121    0.933176    3.003827
    104          1           0        9.991452    0.293977    2.915358
    105          1           0        9.448391    1.837463    3.521624
    106          8           0        9.799241   -0.687404    5.371236
    107          6           0        8.513011    1.285896    1.624664
    108          1           0        8.904740    0.602269    0.864218
    109          1           0        7.431724    1.117126    1.644854
    110          6           0        8.762664    2.730498    1.157193
    111          1           0        9.816980    2.864164    0.885857
    112          1           0        8.188074    2.896403    0.236563
    113          6           0        8.409301    3.827118    2.170690
    114          1           0        8.487729    4.800803    1.664109
    115          1           0        9.151499    3.841911    2.976297
    116          7           0        7.090330    3.618883    2.793767
    117          1           0        6.874758    4.408688    3.398113
    118          1           0        6.344817    3.592351    2.095456
    119          1           0        6.951667    1.993114    3.736571
    120          8           0        8.077536    0.355928    6.351529
    121          1           0       -1.883602   -1.402840   -7.242728
 ---------------------------------------------------------------------

 SCF Done:  E(RB3LYP) =  -2844.06204260     A.U. after    1 cycles

 Alpha  occ. eigenvalues --  -19.34450 -19.28470 -19.27636 -19.23532 -19.20986
 Alpha  occ. eigenvalues --  -19.20427 -19.18516 -19.18402 -19.18378 -19.15928
 Alpha  occ. eigenvalues --  -19.14892 -14.60706 -14.51642 -14.48163 -14.47784
 Alpha  occ. eigenvalues --  -14.44231 -14.42352 -14.41536 -14.39229 -14.36968
 Alpha  occ. eigenvalues --  -10.45466 -10.45310 -10.42403 -10.40481 -10.37336
 Alpha  occ. eigenvalues --  -10.36245 -10.35235 -10.34969 -10.34667 -10.33425
 Alpha  occ. eigenvalues --  -10.33376 -10.32709 -10.32445 -10.32283 -10.32241
 Alpha  occ. eigenvalues --  -10.30216 -10.30172 -10.29763 -10.29376 -10.29245
 Alpha  occ. eigenvalues --  -10.29121 -10.29024 -10.28960 -10.28725 -10.28583
 Alpha  occ. eigenvalues --  -10.28486 -10.27563 -10.26505 -10.25933 -10.25488
 Alpha  occ. eigenvalues --  -10.24333 -10.24105 -10.23161 -10.23089 -10.22662
 Alpha  occ. eigenvalues --  -10.22446 -10.22285 -10.22188 -10.22071  -1.24049
 Alpha  occ. eigenvalues --   -1.20740  -1.15699  -1.15392  -1.14845  -1.12269
 Alpha  occ. eigenvalues --   -1.11757  -1.10529  -1.09592  -1.08419  -1.07955
 Alpha  occ. eigenvalues --   -1.07775  -1.06309  -1.04137  -1.03449  -1.00841
 Alpha  occ. eigenvalues --   -0.99052  -0.97888  -0.96300  -0.94920  -0.94221
 Alpha  occ. eigenvalues --   -0.93137  -0.92121  -0.91314  -0.88121  -0.87351
 Alpha  occ. eigenvalues --   -0.85795  -0.84864  -0.83872  -0.83560  -0.83220
 Alpha  occ. eigenvalues --   -0.82997  -0.81832  -0.79432  -0.79105  -0.78195
 Alpha  occ. eigenvalues --   -0.77460  -0.76282  -0.75593  -0.74956  -0.74632
 Alpha  occ. eigenvalues --   -0.74244  -0.73077  -0.72658  -0.72406  -0.72309
 Alpha  occ. eigenvalues --   -0.70519  -0.70222  -0.69221  -0.68142  -0.67569
 Alpha  occ. eigenvalues --   -0.66977  -0.65957  -0.65621  -0.65445  -0.64861
 Alpha  occ. eigenvalues --   -0.64590  -0.64200  -0.63629  -0.63178  -0.63107
 Alpha  occ. eigenvalues --   -0.62531  -0.62170  -0.61934  -0.61658  -0.61540
 Alpha  occ. eigenvalues --   -0.61030  -0.60939  -0.59679  -0.59282  -0.58667
 Alpha  occ. eigenvalues --   -0.58531  -0.58075  -0.57616  -0.57171  -0.56676
 Alpha  occ. eigenvalues --   -0.56151  -0.55979  -0.55563  -0.55279  -0.55025
 Alpha  occ. eigenvalues --   -0.54818  -0.54342  -0.54110  -0.53899  -0.53681
 Alpha  occ. eigenvalues --   -0.53545  -0.53371  -0.53008  -0.52563  -0.52439
 Alpha  occ. eigenvalues --   -0.52303  -0.51835  -0.51365  -0.50915  -0.50834
 Alpha  occ. eigenvalues --   -0.50731  -0.50334  -0.50179  -0.49877  -0.49410
 Alpha  occ. eigenvalues --   -0.49210  -0.49153  -0.48831  -0.48084  -0.47908
 Alpha  occ. eigenvalues --   -0.47736  -0.47271  -0.47088  -0.46732  -0.46710
 Alpha  occ. eigenvalues --   -0.46542  -0.46146  -0.45719  -0.45614  -0.45452
 Alpha  occ. eigenvalues --   -0.45392  -0.45214  -0.45102  -0.44453  -0.44083
 Alpha  occ. eigenvalues --   -0.43843  -0.43790  -0.43762  -0.43586  -0.43491
 Alpha  occ. eigenvalues --   -0.43114  -0.42893  -0.42826  -0.42589  -0.42347
 Alpha  occ. eigenvalues --   -0.42232  -0.42057  -0.41151  -0.40913  -0.40837
 Alpha  occ. eigenvalues --   -0.40617  -0.40048  -0.39557  -0.39423  -0.38829
 Alpha  occ. eigenvalues --   -0.38592  -0.38347  -0.38217  -0.37896  -0.37698
 Alpha  occ. eigenvalues --   -0.37210  -0.36864  -0.36585  -0.36185  -0.35418
 Alpha  occ. eigenvalues --   -0.34202  -0.33543  -0.32983  -0.32689  -0.32230
 Alpha  occ. eigenvalues --   -0.32059  -0.31956  -0.31216  -0.30713  -0.30145
 Alpha  occ. eigenvalues --   -0.29923  -0.28831  -0.27562
 Alpha virt. eigenvalues --   -0.14867  -0.12564  -0.11921  -0.10614  -0.09846
 Alpha virt. eigenvalues --   -0.08312  -0.07096  -0.06906  -0.05409  -0.05152
 Alpha virt. eigenvalues --   -0.04426  -0.03878  -0.03593  -0.02113  -0.01985

 Mulliken charges:
               1
     1  N   -0.558671
     2  H    0.345507
     3  H    0.375359
     4  H    0.357406
     5  C   -0.095435
     6  H    0.199380
     7  C    0.649400
     8  C   -0.357284
     9  H    0.176535
    10  H    0.145076
    11  H    0.141909
    12  O   -0.559616
    13  N   -0.512164
    14  H    0.292693
    15  C   -0.020213
    16  H    0.146817
    17  C    0.629068
    18  C   -0.284107
    19  H    0.164093
    20  H    0.144208
    21  O   -0.529191
    22  C    0.021871
    23  C    0.066859
    24  H    0.130898
    25  C    0.038824
    26  C    0.290711
    27  C   -0.210964
    28  H    0.109583
    29  N   -0.611716
    30  H    0.278170
    31  C   -0.111402
    32  H    0.108137
    33  C   -0.092109
    34  H    0.107060
    35  C   -0.099867
    36  H    0.102216
    37  N   -0.526674
    38  H    0.288093
    39  C   -0.038952
    40  H    0.164468
    41  C    0.631035
    42  C   -0.201429
    43  H    0.149782
    44  H    0.158006
    45  O   -0.537051
    46  C   -0.300315
    47  H    0.124885
    48  H    0.169475
    49  C    0.604218
    50  O   -0.413046
    51  O   -0.551073
    52  N   -0.535215
    53  H    0.297784
    54  C    0.004937
    55  H    0.131386
    56  C    0.622988
    57  C   -0.079188
    58  H    0.122812
    59  O   -0.546352
    60  C   -0.330976
    61  H    0.101752
    62  H    0.112011
    63  H    0.139052
    64  C   -0.328506
    65  H    0.100296
    66  H    0.093648
    67  H    0.114726
    68  N   -0.523125
    69  H    0.303678
    70  C   -0.036127
    71  H    0.139617
    72  C    0.626447
    73  C    0.152202
    74  H    0.095435
    75  O   -0.574627
    76  C   -0.330464
    77  H    0.101441
    78  H    0.114505
    79  H    0.120563
    80  O   -0.559573
    81  H    0.327482
    82  N   -0.521833
    83  H    0.310636
    84  C   -0.008292
    85  H    0.119687
    86  C    0.592722
    87  C   -0.062065
    88  H    0.118795
    89  O   -0.517379
    90  C   -0.332927
    91  H    0.101840
    92  H    0.125896
    93  H    0.113163
    94  C   -0.316544
    95  H    0.106465
    96  H    0.107129
    97  H    0.098795
    98  N   -0.613728
    99  H    0.330522
   100  C   -0.029732
   101  H    0.163843
   102  C    0.604801
   103  C   -0.194722
   104  H    0.140933
   105  H    0.103021
   106  O   -0.458864
   107  C   -0.184895
   108  H    0.104546
   109  H    0.097064
   110  C   -0.194458
   111  H    0.107973
   112  H    0.094836
   113  C   -0.051241
   114  H    0.093759
   115  H    0.110913
   116  N   -0.666784
   117  H    0.252479
   118  H    0.290745
   119  H    0.329848
   120  O   -0.490972
   121  H    0.344947
 Sum of Mulliken charges =   1.00000

 Dipole moment (field-independent basis, Debye):
    X=            -33.1130    Y=             -2.5441    Z=            -31.6061  Tot=             45.8464
 Quadrupole moment (field-independent basis, Debye-Ang):
   XX=           -190.4793   YY=           -326.3852   ZZ=           -167.7956
   XY=             94.8484   XZ=            103.4051   YZ=             58.3393

 Normal termination of Gaussian 16 at Sun Sep  4 01:12:32 2022.
