 Gaussian 16, Revision C.01,
 Gaussian 16:  ES64L-G16RevC.01  3-Jul-2019

 ----------------------------------------------------------------------
 # B3LYP/6-31G** empiricaldispersion=gd3bj guess=read geom=check nosymm
  integral(ultrafinegrid)
 ----------------------------------------------------------------------

 -----------------------------------------------------
 Candidate Structure: Conf:60 Charge calc in gas phase
 -----------------------------------------------------
 Structure from the checkpoint file:  "conf-60.chk"
 Charge =  1 Multiplicity = 1

                          Input orientation:
 ---------------------------------------------------------------------
 Center     Atomic      Atomic             Coordinates (Angstroms)
 Number     Number       Type             X           Y           Z
 ---------------------------------------------------------------------
      1          7           0       -3.715163    2.003610   -9.835367
      2          1           0       -4.623156    2.026744   -9.306326
      3          1           0       -3.877970    2.054050  -10.841771
      4          1           0       -3.167998    2.821261   -9.491314
      5          6           0       -2.874443    0.817206   -9.421767
      6          1           0       -3.539316   -0.043209   -9.326973
      7          6           0       -2.342546    1.292265   -8.052479
      8          6           0       -1.758798    0.574377  -10.431141
      9          1           0       -1.148310   -0.269224  -10.100749
     10          1           0       -2.158344    0.331061  -11.420145
     11          1           0       -1.110666    1.452030  -10.504095
     12          8           0       -2.090756    2.495656   -7.943211
     13          7           0       -2.243679    0.388946   -7.075406
     14          1           0       -2.401048   -0.604393   -7.217585
     15          6           0       -2.202290    0.784911   -5.678446
     16          1           0       -1.614331    1.699899   -5.593342
     17          6           0       -1.582264   -0.387659   -4.912120
     18          6           0       -3.659730    1.012244   -5.139804
     19          1           0       -4.098516    0.026440   -4.955599
     20          1           0       -3.589369    1.520313   -4.173186
     21          8           0       -1.690318   -1.530945   -5.370043
     22          6           0       -4.533126    1.772558   -6.087752
     23          6           0       -5.383278    1.218555   -6.998299
     24          1           0       -5.668295    0.184261   -7.132588
     25          6           0       -4.545510    3.207645   -6.313960
     26          6           0       -5.426171    3.457713   -7.388313
     27          6           0       -3.877367    4.280277   -5.710691
     28          1           0       -3.183409    4.114274   -4.893325
     29          7           0       -5.885237    2.209199   -7.879071
     30          1           0       -6.844461    2.134723   -8.202928
     31          6           0       -5.018876    5.794363   -7.239622
     32          1           0       -5.199228    6.810076   -7.574906
     33          6           0       -5.678374    4.740439   -7.869192
     34          1           0       -6.369397    4.918750   -8.687563
     35          6           0       -4.125477    5.565652   -6.177934
     36          1           0       -3.623735    6.409712   -5.717322
     37          7           0       -1.018868   -0.075791   -3.742353
     38          1           0       -0.972002    0.877479   -3.386566
     39          6           0       -0.532746   -1.058739   -2.790918
     40          1           0       -1.302511   -1.825620   -2.653482
     41          6           0       -0.371203   -0.291304   -1.468169
     42          6           0        0.790456   -1.739373   -3.244686
     43          1           0        1.206205   -1.146073   -4.061128
     44          1           0        1.517397   -1.703143   -2.430092
     45          8           0       -0.551724    0.935483   -1.433377
     46          6           0        0.593637   -3.183625   -3.699237
     47          1           0       -0.200972   -3.240977   -4.451594
     48          1           0        1.499005   -3.579985   -4.171904
     49          6           0        0.234098   -4.105544   -2.559942
     50          8           0        0.051487   -3.768147   -1.400684
     51          8           0        0.123364   -5.381880   -2.953999
     52          7           0       -0.018487   -1.033618   -0.412214
     53          1           0        0.129856   -2.030988   -0.558741
     54          6           0        0.282394   -0.447027    0.899531
     55          1           0       -0.375118    0.422337    1.011091
     56          6           0        1.745434    0.050684    0.853495
     57          6           0        0.020546   -1.446692    2.033898
     58          1           0        0.783215   -2.231754    1.959023
     59          8           0        2.658405   -0.473735    1.495311
     60          6           0        0.182505   -0.754725    3.393158
     61          1           0       -0.534366    0.068115    3.499667
     62          1           0       -0.007175   -1.465083    4.202723
     63          1           0        1.190863   -0.359892    3.521283
     64          6           0       -1.371634   -2.078771    1.908858
     65          1           0       -2.152876   -1.309942    1.927298
     66          1           0       -1.488471   -2.655946    0.987744
     67          1           0       -1.551189   -2.754834    2.749493
     68          7           0        1.943361    1.071886   -0.010887
     69          1           0        1.150064    1.411364   -0.547587
     70          6           0        3.283795    1.446196   -0.438786
     71          1           0        3.915460    0.554881   -0.331145
     72          6           0        3.840611    2.536851    0.487952
     73          6           0        3.277383    1.883595   -1.911069
     74          1           0        2.665858    2.785667   -2.002415
     75          8           0        3.918207    3.716926    0.137269
     76          6           0        4.682598    2.165128   -2.431592
     77          1           0        5.141522    3.003971   -1.904526
     78          1           0        5.322872    1.281058   -2.305425
     79          1           0        4.636509    2.402940   -3.497588
     80          8           0        2.611445    0.889299   -2.706670
     81          1           0        3.212323    0.133427   -2.764235
     82          7           0        4.225536    2.083540    1.698258
     83          1           0        4.093856    1.097850    1.905218
     84          6           0        4.809920    2.971996    2.706099
     85          1           0        4.376208    3.962731    2.532379
     86          6           0        6.328554    3.032170    2.417002
     87          6           0        4.490907    2.503477    4.130494
     88          1           0        5.025527    1.558511    4.288990
     89          8           0        7.162825    2.463954    3.116681
     90          6           0        5.017866    3.521001    5.149691
     91          1           0        4.534775    4.495745    5.010765
     92          1           0        6.097529    3.646764    5.056444
     93          1           0        4.800360    3.185793    6.168157
     94          6           0        2.985724    2.275222    4.315701
     95          1           0        2.426490    3.201282    4.137533
     96          1           0        2.775583    1.950480    5.339141
     97          1           0        2.595694    1.514041    3.635484
     98          7           0        6.635503    3.711467    1.282807
     99          1           0        5.884523    4.067015    0.694559
    100          6           0        7.961438    3.662147    0.700033
    101          1           0        8.708627    3.972498    1.434313
    102          6           0        8.008840    4.558179   -0.517518
    103          6           0        8.306918    2.222914    0.199014
    104          1           0        7.485118    1.914359   -0.459080
    105          1           0        8.263516    1.586362    1.084562
    106          8           0        9.239359    5.000003   -0.769652
    107          6           0        9.670425    2.065052   -0.516691
    108          1           0       10.264821    2.972947   -0.394140
    109          1           0       10.235541    1.265930   -0.025626
    110          6           0        9.589349    1.690583   -2.010362
    111          1           0       10.608323    1.509519   -2.380666
    112          1           0        9.069681    0.727263   -2.097563
    113          6           0        8.883643    2.645032   -2.983024
    114          1           0        7.872355    2.873689   -2.638075
    115          1           0        8.786206    2.122811   -3.945977
    116          7           0        9.581176    3.943557   -3.158818
    117          1           0        9.145982    4.458126   -3.921109
    118          1           0        9.397355    4.875183   -1.767564
    119          1           0       10.550416    3.784181   -3.428672
    120          8           0        7.050946    4.710951   -1.259957
    121          1           0       -0.106319   -5.908359   -2.168493
 ---------------------------------------------------------------------

 SCF Done:  E(RB3LYP) =  -2844.05701983     A.U. after    1 cycles

 Alpha  occ. eigenvalues --  -19.28246 -19.25772 -19.23367 -19.22045 -19.21409
 Alpha  occ. eigenvalues --  -19.20662 -19.19489 -19.18214 -19.16557 -19.16448
 Alpha  occ. eigenvalues --  -19.14250 -14.58645 -14.50129 -14.49125 -14.45608
 Alpha  occ. eigenvalues --  -14.43677 -14.41602 -14.40358 -14.39415 -14.38017
 Alpha  occ. eigenvalues --  -10.42939 -10.41182 -10.40410 -10.39109 -10.37353
 Alpha  occ. eigenvalues --  -10.35050 -10.34853 -10.34245 -10.33621 -10.33399
 Alpha  occ. eigenvalues --  -10.33248 -10.33128 -10.32465 -10.31228 -10.31016
 Alpha  occ. eigenvalues --  -10.30646 -10.29879 -10.29711 -10.29630 -10.29589
 Alpha  occ. eigenvalues --  -10.28887 -10.28805 -10.28630 -10.28243 -10.28240
 Alpha  occ. eigenvalues --  -10.27921 -10.26421 -10.26314 -10.26240 -10.25071
 Alpha  occ. eigenvalues --  -10.23413 -10.23016 -10.22766 -10.22464 -10.22245
 Alpha  occ. eigenvalues --  -10.22161 -10.21972 -10.20791 -10.19873  -1.19572
 Alpha  occ. eigenvalues --   -1.18565  -1.14086  -1.12936  -1.12410  -1.11856
 Alpha  occ. eigenvalues --   -1.10419  -1.09973  -1.08984  -1.08595  -1.08155
 Alpha  occ. eigenvalues --   -1.06019  -1.05954  -1.03282  -1.02467  -1.00723
 Alpha  occ. eigenvalues --   -0.98344  -0.96911  -0.95011  -0.94899  -0.94694
 Alpha  occ. eigenvalues --   -0.93099  -0.91694  -0.89558  -0.87110  -0.86688
 Alpha  occ. eigenvalues --   -0.84531  -0.84119  -0.83661  -0.83330  -0.83015
 Alpha  occ. eigenvalues --   -0.82228  -0.80693  -0.79345  -0.78350  -0.77463
 Alpha  occ. eigenvalues --   -0.75911  -0.74674  -0.74017  -0.73627  -0.73220
 Alpha  occ. eigenvalues --   -0.72677  -0.72461  -0.71704  -0.71326  -0.71214
 Alpha  occ. eigenvalues --   -0.70005  -0.68897  -0.67866  -0.67624  -0.67420
 Alpha  occ. eigenvalues --   -0.66939  -0.66604  -0.65899  -0.64494  -0.64209
 Alpha  occ. eigenvalues --   -0.64043  -0.63613  -0.62523  -0.62403  -0.61566
 Alpha  occ. eigenvalues --   -0.61148  -0.60680  -0.59830  -0.59742  -0.59437
 Alpha  occ. eigenvalues --   -0.58821  -0.58728  -0.58260  -0.57848  -0.57560
 Alpha  occ. eigenvalues --   -0.57128  -0.56925  -0.56296  -0.56090  -0.55849
 Alpha  occ. eigenvalues --   -0.55668  -0.55437  -0.55337  -0.54801  -0.54058
 Alpha  occ. eigenvalues --   -0.53940  -0.53707  -0.53566  -0.53088  -0.52990
 Alpha  occ. eigenvalues --   -0.52462  -0.52316  -0.51695  -0.51567  -0.51322
 Alpha  occ. eigenvalues --   -0.50804  -0.50589  -0.50428  -0.50321  -0.50197
 Alpha  occ. eigenvalues --   -0.49764  -0.49604  -0.49532  -0.49166  -0.48783
 Alpha  occ. eigenvalues --   -0.48713  -0.48466  -0.48175  -0.47916  -0.47682
 Alpha  occ. eigenvalues --   -0.47424  -0.46948  -0.46651  -0.46357  -0.45781
 Alpha  occ. eigenvalues --   -0.45702  -0.45442  -0.45210  -0.45086  -0.44683
 Alpha  occ. eigenvalues --   -0.44528  -0.44295  -0.44188  -0.43903  -0.43710
 Alpha  occ. eigenvalues --   -0.43542  -0.43250  -0.43103  -0.42698  -0.42408
 Alpha  occ. eigenvalues --   -0.42281  -0.42023  -0.41667  -0.41264  -0.40837
 Alpha  occ. eigenvalues --   -0.40775  -0.40508  -0.39893  -0.39708  -0.39576
 Alpha  occ. eigenvalues --   -0.39251  -0.39130  -0.38740  -0.38511  -0.37832
 Alpha  occ. eigenvalues --   -0.37798  -0.37457  -0.37171  -0.36966  -0.36691
 Alpha  occ. eigenvalues --   -0.36429  -0.36256  -0.35983  -0.35558  -0.34934
 Alpha  occ. eigenvalues --   -0.34534  -0.33966  -0.33693  -0.33100  -0.32887
 Alpha  occ. eigenvalues --   -0.32294  -0.31474  -0.31287  -0.30903  -0.30090
 Alpha  occ. eigenvalues --   -0.29166  -0.27774  -0.26970
 Alpha virt. eigenvalues --   -0.12723  -0.12468  -0.09575  -0.08833  -0.08290
 Alpha virt. eigenvalues --   -0.07921  -0.06821  -0.05464  -0.04426  -0.04141
 Alpha virt. eigenvalues --   -0.03432  -0.03084  -0.02675  -0.01887  -0.01187

 Mulliken charges:
               1
     1  N   -0.552399
     2  H    0.367354
     3  H    0.334324
     4  H    0.358690
     5  C   -0.080931
     6  H    0.155502
     7  C    0.642064
     8  C   -0.331573
     9  H    0.168827
    10  H    0.142230
    11  H    0.159512
    12  O   -0.527183
    13  N   -0.513911
    14  H    0.288217
    15  C   -0.029033
    16  H    0.160733
    17  C    0.617326
    18  C   -0.245895
    19  H    0.132211
    20  H    0.145382
    21  O   -0.554980
    22  C    0.070294
    23  C   -0.020503
    24  H    0.123471
    25  C    0.131395
    26  C    0.188422
    27  C   -0.124817
    28  H    0.102150
    29  N   -0.653485
    30  H    0.292757
    31  C   -0.097127
    32  H    0.114142
    33  C   -0.124081
    34  H    0.099199
    35  C   -0.089010
    36  H    0.114641
    37  N   -0.536406
    38  H    0.296529
    39  C    0.017710
    40  H    0.146889
    41  C    0.600087
    42  C   -0.184864
    43  H    0.131000
    44  H    0.124394
    45  O   -0.575620
    46  C   -0.283433
    47  H    0.181431
    48  H    0.148365
    49  C    0.592998
    50  O   -0.488898
    51  O   -0.465110
    52  N   -0.543847
    53  H    0.319712
    54  C   -0.003989
    55  H    0.139766
    56  C    0.617809
    57  C   -0.077977
    58  H    0.115744
    59  O   -0.549263
    60  C   -0.330723
    61  H    0.100408
    62  H    0.111139
    63  H    0.142115
    64  C   -0.316944
    65  H    0.103040
    66  H    0.101586
    67  H    0.114547
    68  N   -0.523835
    69  H    0.302726
    70  C   -0.032066
    71  H    0.116781
    72  C    0.632409
    73  C    0.149925
    74  H    0.127705
    75  O   -0.548716
    76  C   -0.360707
    77  H    0.181480
    78  H    0.084747
    79  H    0.110355
    80  O   -0.559252
    81  H    0.298804
    82  N   -0.536314
    83  H    0.293630
    84  C    0.000018
    85  H    0.132613
    86  C    0.614996
    87  C   -0.072835
    88  H    0.111579
    89  O   -0.537297
    90  C   -0.323415
    91  H    0.096078
    92  H    0.136720
    93  H    0.102545
    94  C   -0.323200
    95  H    0.101138
    96  H    0.106031
    97  H    0.103190
    98  N   -0.558534
    99  H    0.305996
   100  C    0.042825
   101  H    0.140358
   102  C    0.572750
   103  C   -0.202680
   104  H    0.089310
   105  H    0.144755
   106  O   -0.520518
   107  C   -0.196165
   108  H    0.129378
   109  H    0.103225
   110  C   -0.190780
   111  H    0.092521
   112  H    0.098767
   113  C   -0.075929
   114  H    0.142963
   115  H    0.089194
   116  N   -0.644317
   117  H    0.271633
   118  H    0.364243
   119  H    0.262369
   120  O   -0.496534
   121  H    0.337225
 Sum of Mulliken charges =   1.00000

 Dipole moment (field-independent basis, Debye):
    X=            -15.0085    Y=              0.8492    Z=            -42.9920  Tot=             45.5443
 Quadrupole moment (field-independent basis, Debye-Ang):
   XX=           -230.1605   YY=           -322.5757   ZZ=             33.1761
   XY=            -41.0555   XZ=            105.5118   YZ=            -65.3419

 Normal termination of Gaussian 16 at Sun Sep  4 01:00:05 2022.
