 Gaussian 16, Revision C.01,
 Gaussian 16:  ES64L-G16RevC.01  3-Jul-2019

 ----------------------------------------------------------------------
 # B3LYP/6-31G** empiricaldispersion=gd3bj guess=read geom=check nosymm
  integral(ultrafinegrid)
 ----------------------------------------------------------------------

 ------------------------------------------------------
 Candidate Structure: Conf:121 Charge calc in gas phase
 ------------------------------------------------------
 Structure from the checkpoint file:  "conf-121.chk"
 Charge =  1 Multiplicity = 1

                          Input orientation:
 ---------------------------------------------------------------------
 Center     Atomic      Atomic             Coordinates (Angstroms)
 Number     Number       Type             X           Y           Z
 ---------------------------------------------------------------------
      1          7           0       -5.164203   -4.839201   -6.879263
      2          1           0       -6.171306   -4.841375   -7.063959
      3          1           0       -4.729879   -5.611456   -7.389717
      4          1           0       -4.798080   -3.912207   -7.193783
      5          6           0       -4.850302   -4.843746   -5.406922
      6          1           0       -5.560765   -5.488492   -4.884419
      7          6           0       -4.998915   -3.362515   -5.033304
      8          6           0       -3.410005   -5.293893   -5.160920
      9          1           0       -3.160664   -5.145469   -4.108134
     10          1           0       -3.268291   -6.346623   -5.420508
     11          1           0       -2.715527   -4.680534   -5.742695
     12          8           0       -4.802761   -2.547245   -5.938166
     13          7           0       -5.267705   -3.076182   -3.758246
     14          1           0       -5.209138   -3.839349   -3.095663
     15          6           0       -4.887673   -1.773974   -3.211558
     16          1           0       -5.387082   -0.996575   -3.793997
     17          6           0       -3.363115   -1.646772   -3.302110
     18          6           0       -5.330867   -1.681921   -1.734346
     19          1           0       -4.932683   -2.548752   -1.193345
     20          1           0       -4.846765   -0.798444   -1.302111
     21          8           0       -2.649218   -2.639639   -3.112462
     22          6           0       -6.814773   -1.595647   -1.593809
     23          6           0       -7.678378   -2.578951   -1.174628
     24          1           0       -7.469308   -3.580138   -0.823836
     25          6           0       -7.621428   -0.449883   -1.932532
     26          6           0       -8.975054   -0.810948   -1.701155
     27          6           0       -7.329636    0.839808   -2.407079
     28          1           0       -6.302215    1.151048   -2.578028
     29          7           0       -8.975700   -2.112873   -1.235190
     30          1           0       -9.795248   -2.638648   -0.978820
     31          6           0       -9.712513    1.338643   -2.410020
     32          1           0      -10.508341    2.050225   -2.602568
     33          6           0      -10.032355    0.072352   -1.936684
     34          1           0      -11.062752   -0.217370   -1.756163
     35          6           0       -8.375661    1.721209   -2.640245
     36          1           0       -8.166188    2.721713   -3.002997
     37          7           0       -2.886602   -0.412561   -3.543957
     38          1           0       -3.527937    0.367352   -3.597140
     39          6           0       -1.456203   -0.106908   -3.448307
     40          1           0       -0.925189   -0.962684   -3.875888
     41          6           0       -1.078710    0.029064   -1.961433
     42          6           0       -1.111356    1.167168   -4.210458
     43          1           0       -1.457685    1.075537   -5.243802
     44          1           0       -1.633910    2.013851   -3.757020
     45          8           0       -1.041677    1.127797   -1.408911
     46          6           0        0.394034    1.438294   -4.177235
     47          1           0        0.754103    1.491547   -3.147606
     48          1           0        0.963495    0.631358   -4.655188
     49          6           0        0.738489    2.731838   -4.869679
     50          8           0       -0.023692    3.406457   -5.522402
     51          8           0        2.040772    3.077091   -4.683245
     52          7           0       -0.797877   -1.134686   -1.338312
     53          1           0       -0.925490   -2.000949   -1.846931
     54          6           0       -0.325227   -1.165118    0.047851
     55          1           0       -0.854357   -0.371542    0.585345
     56          6           0        1.173256   -0.816915   -0.022854
     57          6           0       -0.599180   -2.517314    0.713895
     58          1           0       -0.012824   -3.271024    0.173218
     59          8           0        2.056868   -1.682712   -0.068264
     60          6           0       -0.121273   -2.488167    2.170101
     61          1           0       -0.656063   -1.718115    2.737922
     62          1           0       -0.311938   -3.450168    2.653697
     63          1           0        0.949543   -2.284813    2.231623
     64          6           0       -2.088348   -2.880451    0.635149
     65          1           0       -2.693235   -2.152967    1.188700
     66          1           0       -2.455315   -2.909901   -0.395030
     67          1           0       -2.258864   -3.863781    1.083334
     68          7           0        1.430197    0.500530   -0.130373
     69          1           0        0.676563    1.177880   -0.226713
     70          6           0        2.782772    1.001666   -0.198525
     71          1           0        3.426144    0.303423    0.349185
     72          6           0        2.785085    2.411287    0.401675
     73          6           0        3.253794    1.039344   -1.675174
     74          1           0        2.665011    1.802086   -2.198133
     75          8           0        1.798256    3.120270    0.221300
     76          6           0        4.739452    1.371276   -1.811027
     77          1           0        4.983333    2.358205   -1.399579
     78          1           0        5.359694    0.636025   -1.288891
     79          1           0        4.957775    1.296899   -2.886317
     80          8           0        2.984743   -0.193854   -2.324448
     81          1           0        2.992841   -0.899449   -1.651521
     82          7           0        3.906128    2.812834    1.038050
     83          1           0        4.733594    2.224580    1.040974
     84          6           0        4.235472    4.230304    1.182893
     85          1           0        3.538258    4.779908    0.544288
     86          6           0        5.674030    4.430636    0.661879
     87          6           0        4.101674    4.751302    2.630554
     88          1           0        4.344341    5.820701    2.574337
     89          8           0        6.425098    3.429447    0.505896
     90          6           0        2.660291    4.601300    3.126219
     91          1           0        2.412861    3.545364    3.278513
     92          1           0        1.943976    5.009770    2.408680
     93          1           0        2.528417    5.118381    4.081211
     94          6           0        5.097543    4.073534    3.578984
     95          1           0        4.820309    3.025731    3.742819
     96          1           0        5.102079    4.573382    4.551215
     97          1           0        6.117185    4.091164    3.183585
     98          7           0        5.941099    5.686179    0.369948
     99          1           0        5.342168    6.489744    0.690275
    100          6           0        7.201675    6.391851    0.097276
    101          1           0        8.006966    6.004613    0.733758
    102          6           0        6.882199    7.888894    0.478365
    103          6           0        7.642497    6.205869   -1.363172
    104          1           0        8.414184    6.930195   -1.633975
    105          1           0        6.769971    6.372530   -2.006053
    106          8           0        7.822570    8.675222    0.326525
    107          6           0        8.139736    4.770011   -1.457497
    108          1           0        9.034391    4.696957   -0.823375
    109          1           0        7.380170    4.182705   -0.937887
    110          6           0        8.425024    4.086744   -2.786519
    111          1           0        7.503962    4.029327   -3.384183
    112          1           0        9.173617    4.579409   -3.414989
    113          6           0        8.906709    2.689557   -2.416610
    114          1           0        9.775985    2.748777   -1.758434
    115          1           0        9.158326    2.047782   -3.264005
    116          7           0        7.829465    2.018664   -1.592944
    117          1           0        8.127494    1.121701   -1.203707
    118          1           0        7.551530    2.620000   -0.795480
    119          1           0        6.979674    1.855675   -2.138335
    120          8           0        5.692846    8.063082    0.880620
    121          1           0        2.151191    3.921818   -5.155208
 ---------------------------------------------------------------------

 SCF Done:  E(RB3LYP) =  -2843.95117774     A.U. after    1 cycles

 Alpha  occ. eigenvalues --  -19.28574 -19.25698 -19.23602 -19.20203 -19.20156
 Alpha  occ. eigenvalues --  -19.20044 -19.18618 -19.17700 -19.17221 -19.07125
 Alpha  occ. eigenvalues --  -19.05485 -14.62937 -14.55397 -14.51438 -14.47905
 Alpha  occ. eigenvalues --  -14.46473 -14.44382 -14.42051 -14.41299 -14.37660
 Alpha  occ. eigenvalues --  -10.45195 -10.42955 -10.40412 -10.38322 -10.36985
 Alpha  occ. eigenvalues --  -10.35825 -10.35517 -10.34843 -10.34813 -10.34513
 Alpha  occ. eigenvalues --  -10.33321 -10.32725 -10.31071 -10.31026 -10.30818
 Alpha  occ. eigenvalues --  -10.30391 -10.30008 -10.29704 -10.27622 -10.27392
 Alpha  occ. eigenvalues --  -10.27196 -10.27039 -10.26889 -10.26671 -10.26620
 Alpha  occ. eigenvalues --  -10.26615 -10.26600 -10.26368 -10.25977 -10.25707
 Alpha  occ. eigenvalues --  -10.25026 -10.24656 -10.23715 -10.23302 -10.22787
 Alpha  occ. eigenvalues --  -10.22658 -10.21279 -10.20668 -10.20061  -1.21542
 Alpha  occ. eigenvalues --   -1.16728  -1.16532  -1.15321  -1.12213  -1.10710
 Alpha  occ. eigenvalues --   -1.10595  -1.09321  -1.08347  -1.08035  -1.07731
 Alpha  occ. eigenvalues --   -1.07633  -1.06318  -1.04055  -1.00928  -1.00353
 Alpha  occ. eigenvalues --   -0.98777  -0.97824  -0.95486  -0.95131  -0.92140
 Alpha  occ. eigenvalues --   -0.91363  -0.91168  -0.89139  -0.88891  -0.87750
 Alpha  occ. eigenvalues --   -0.86223  -0.85494  -0.83709  -0.82969  -0.82250
 Alpha  occ. eigenvalues --   -0.81939  -0.81439  -0.80410  -0.79877  -0.77400
 Alpha  occ. eigenvalues --   -0.76882  -0.76482  -0.76148  -0.75438  -0.75400
 Alpha  occ. eigenvalues --   -0.74415  -0.74146  -0.72121  -0.71507  -0.70723
 Alpha  occ. eigenvalues --   -0.70318  -0.70226  -0.69219  -0.68591  -0.68408
 Alpha  occ. eigenvalues --   -0.67898  -0.67366  -0.66959  -0.65552  -0.65426
 Alpha  occ. eigenvalues --   -0.65176  -0.64757  -0.64573  -0.64345  -0.63272
 Alpha  occ. eigenvalues --   -0.62753  -0.62209  -0.61774  -0.61069  -0.60243
 Alpha  occ. eigenvalues --   -0.59896  -0.59751  -0.59247  -0.59116  -0.58508
 Alpha  occ. eigenvalues --   -0.57860  -0.57351  -0.56963  -0.56834  -0.56157
 Alpha  occ. eigenvalues --   -0.55656  -0.55463  -0.55053  -0.54896  -0.54599
 Alpha  occ. eigenvalues --   -0.54455  -0.53888  -0.53784  -0.53522  -0.53327
 Alpha  occ. eigenvalues --   -0.53114  -0.52003  -0.51920  -0.51821  -0.51645
 Alpha  occ. eigenvalues --   -0.51253  -0.50936  -0.50756  -0.50521  -0.50414
 Alpha  occ. eigenvalues --   -0.50158  -0.49694  -0.49646  -0.49476  -0.49193
 Alpha  occ. eigenvalues --   -0.48991  -0.48910  -0.48860  -0.48139  -0.47793
 Alpha  occ. eigenvalues --   -0.47362  -0.47200  -0.47124  -0.46593  -0.46405
 Alpha  occ. eigenvalues --   -0.46319  -0.45926  -0.45628  -0.45247  -0.45187
 Alpha  occ. eigenvalues --   -0.44925  -0.44739  -0.44374  -0.43920  -0.43765
 Alpha  occ. eigenvalues --   -0.43225  -0.43149  -0.42932  -0.42894  -0.42569
 Alpha  occ. eigenvalues --   -0.42391  -0.41762  -0.41536  -0.41439  -0.41321
 Alpha  occ. eigenvalues --   -0.41180  -0.41145  -0.40962  -0.40723  -0.39998
 Alpha  occ. eigenvalues --   -0.39652  -0.39433  -0.38360  -0.38216  -0.37972
 Alpha  occ. eigenvalues --   -0.37466  -0.37324  -0.37041  -0.36745  -0.36391
 Alpha  occ. eigenvalues --   -0.35976  -0.35531  -0.35183  -0.34141  -0.33903
 Alpha  occ. eigenvalues --   -0.33527  -0.33287  -0.32656  -0.31629  -0.31345
 Alpha  occ. eigenvalues --   -0.30676  -0.30353  -0.30309  -0.29396  -0.28780
 Alpha  occ. eigenvalues --   -0.22434  -0.21900  -0.19810
 Alpha virt. eigenvalues --   -0.14768  -0.12801  -0.10161  -0.09102  -0.07906
 Alpha virt. eigenvalues --   -0.07326  -0.06908  -0.06444  -0.05320  -0.05108
 Alpha virt. eigenvalues --   -0.04921  -0.04287  -0.03923  -0.03626  -0.02890

 Mulliken charges:
               1
     1  N   -0.527854
     2  H    0.361822
     3  H    0.354009
     4  H    0.367052
     5  C   -0.116635
     6  H    0.174526
     7  C    0.657381
     8  C   -0.329257
     9  H    0.190104
    10  H    0.147593
    11  H    0.160143
    12  O   -0.528647
    13  N   -0.490156
    14  H    0.281179
    15  C   -0.031609
    16  H    0.157773
    17  C    0.636316
    18  C   -0.290797
    19  H    0.122772
    20  H    0.147175
    21  O   -0.576641
    22  C    0.041663
    23  C    0.052575
    24  H    0.104931
    25  C    0.074783
    26  C    0.283175
    27  C   -0.148521
    28  H    0.064061
    29  N   -0.614122
    30  H    0.270308
    31  C   -0.104448
    32  H    0.102799
    33  C   -0.092805
    34  H    0.096404
    35  C   -0.092812
    36  H    0.098499
    37  N   -0.520874
    38  H    0.285638
    39  C   -0.021700
    40  H    0.133954
    41  C    0.621504
    42  C   -0.187543
    43  H    0.120907
    44  H    0.144311
    45  O   -0.533329
    46  C   -0.275335
    47  H    0.172182
    48  H    0.145182
    49  C    0.579706
    50  O   -0.458224
    51  O   -0.493009
    52  N   -0.530128
    53  H    0.287173
    54  C    0.013766
    55  H    0.134351
    56  C    0.619563
    57  C   -0.079611
    58  H    0.110815
    59  O   -0.574528
    60  C   -0.324950
    61  H    0.107870
    62  H    0.109427
    63  H    0.133865
    64  C   -0.331687
    65  H    0.109398
    66  H    0.093743
    67  H    0.108581
    68  N   -0.510733
    69  H    0.313344
    70  C   -0.061111
    71  H    0.120424
    72  C    0.600464
    73  C    0.200362
    74  H    0.120659
    75  O   -0.526130
    76  C   -0.376656
    77  H    0.125896
    78  H    0.086782
    79  H    0.122820
    80  O   -0.576744
    81  H    0.324485
    82  N   -0.513513
    83  H    0.263841
    84  C   -0.031032
    85  H    0.149571
    86  C    0.617965
    87  C   -0.059100
    88  H    0.136219
    89  O   -0.656258
    90  C   -0.312806
    91  H    0.098366
    92  H    0.121987
    93  H    0.107336
    94  C   -0.329275
    95  H    0.094655
    96  H    0.118620
    97  H    0.111807
    98  N   -0.510151
    99  H    0.321799
   100  C   -0.065861
   101  H    0.103939
   102  C    0.592541
   103  C   -0.153896
   104  H    0.134785
   105  H    0.091954
   106  O   -0.571340
   107  C   -0.216826
   108  H    0.099739
   109  H    0.103067
   110  C   -0.198182
   111  H    0.112326
   112  H    0.143575
   113  C   -0.113186
   114  H    0.171399
   115  H    0.150107
   116  N   -0.573577
   117  H    0.337236
   118  H    0.389539
   119  H    0.352093
   120  O   -0.617034
   121  H    0.329953
 Sum of Mulliken charges =   1.00000

 Dipole moment (field-independent basis, Debye):
    X=            -20.7141    Y=            -37.6373    Z=            -30.2222  Tot=             52.5264
 Quadrupole moment (field-independent basis, Debye-Ang):
   XX=            -88.6985   YY=           -413.0646   ZZ=           -179.5700
   XY=             29.4380   XZ=             70.5889   YZ=             98.8891

 Normal termination of Gaussian 16 at Sun Sep  4 01:08:58 2022.
