 Gaussian 16, Revision C.01,
 Gaussian 16:  ES64L-G16RevC.01  3-Jul-2019

 ----------------------------------------------------------------------
 # B3LYP/6-31G** empiricaldispersion=gd3bj guess=read geom=check nosymm
  integral(ultrafinegrid)
 ----------------------------------------------------------------------

 ------------------------------------------------------
 Candidate Structure: Conf:304 Charge calc in gas phase
 ------------------------------------------------------
 Structure from the checkpoint file:  "conf-304.chk"
 Charge =  1 Multiplicity = 1

                          Input orientation:
 ---------------------------------------------------------------------
 Center     Atomic      Atomic             Coordinates (Angstroms)
 Number     Number       Type             X           Y           Z
 ---------------------------------------------------------------------
      1          7           0       -6.764087   -6.682309   -2.294845
      2          1           0       -7.398919   -6.930109   -1.534673
      3          1           0       -6.602426   -7.510329   -2.871281
      4          1           0       -7.171047   -5.870280   -2.886657
      5          6           0       -5.481638   -6.029735   -1.827778
      6          1           0       -5.512283   -5.968185   -0.737401
      7          6           0       -5.608148   -4.609842   -2.445424
      8          6           0       -4.252653   -6.798472   -2.302835
      9          1           0       -3.344598   -6.286688   -1.977116
     10          1           0       -4.231110   -7.806868   -1.881413
     11          1           0       -4.226015   -6.859152   -3.395086
     12          8           0       -6.609362   -4.390886   -3.152445
     13          7           0       -4.642524   -3.747287   -2.188060
     14          1           0       -3.831030   -3.966515   -1.609140
     15          6           0       -4.605226   -2.380330   -2.699875
     16          1           0       -4.900681   -2.384923   -3.751427
     17          6           0       -3.139207   -1.950709   -2.552703
     18          6           0       -5.566651   -1.450058   -1.896946
     19          1           0       -6.584023   -1.811750   -2.081338
     20          1           0       -5.352758   -1.580923   -0.831365
     21          8           0       -2.415419   -2.534704   -1.732937
     22          6           0       -5.386460   -0.021003   -2.289284
     23          6           0       -4.790523    0.957907   -1.531533
     24          1           0       -4.460015    0.919863   -0.504088
     25          6           0       -5.549544    0.527066   -3.616146
     26          6           0       -5.015232    1.847959   -3.582693
     27          6           0       -6.046714    0.021394   -4.832479
     28          1           0       -6.488224   -0.970359   -4.882446
     29          7           0       -4.605687    2.094089   -2.287736
     30          1           0       -3.958903    2.823520   -2.027328
     31          6           0       -5.440119    2.120661   -5.911730
     32          1           0       -5.405990    2.719622   -6.815629
     33          6           0       -4.954448    2.653720   -4.723704
     34          1           0       -4.543930    3.657274   -4.681980
     35          6           0       -5.984467    0.821144   -5.966165
     36          1           0       -6.366412    0.446114   -6.909860
     37          7           0       -2.727273   -0.942488   -3.339795
     38          1           0       -3.431967   -0.419917   -3.852213
     39          6           0       -1.429010   -0.301805   -3.127408
     40          1           0       -0.715051   -1.105329   -2.924095
     41          6           0       -1.498761    0.629344   -1.896142
     42          6           0       -0.991880    0.499094   -4.351045
     43          1           0       -1.044066   -0.126572   -5.245200
     44          1           0       -1.679091    1.341376   -4.476450
     45          8           0       -1.732563    1.834231   -2.007256
     46          6           0        0.439371    1.021712   -4.138348
     47          1           0        0.529347    1.515822   -3.170900
     48          1           0        1.148736    0.185268   -4.167858
     49          6           0        0.882486    2.030450   -5.165861
     50          8           0        1.376135    3.114748   -4.906406
     51          8           0        0.693924    1.612092   -6.426785
     52          7           0       -1.274653    0.024298   -0.712331
     53          1           0       -1.073953   -0.967692   -0.700933
     54          6           0       -1.091654    0.803737    0.511669
     55          1           0       -1.768025    1.661019    0.450703
     56          6           0        0.369965    1.283497    0.483312
     57          6           0       -1.402180   -0.024217    1.763649
     58          1           0       -0.662023   -0.833175    1.801087
     59          8           0        1.281524    0.532869    0.839010
     60          6           0       -1.228276    0.840352    3.017832
     61          1           0       -1.931423    1.681342    3.013581
     62          1           0       -1.420536    0.250329    3.917879
     63          1           0       -0.214418    1.239677    3.095328
     64          6           0       -2.810861   -0.626223    1.694210
     65          1           0       -3.569919    0.165377    1.663122
     66          1           0       -2.944107   -1.262372    0.813790
     67          1           0       -3.008038   -1.231450    2.583701
     68          7           0        0.565766    2.527567   -0.014361
     69          1           0       -0.174395    2.928279   -0.585788
     70          6           0        1.914757    2.994698   -0.331817
     71          1           0        2.482295    2.151725   -0.746503
     72          6           0        2.650401    3.467573    0.945144
     73          6           0        1.843756    4.140574   -1.366145
     74          1           0        1.620345    5.054135   -0.804374
     75          8           0        2.784916    4.682355    1.214493
     76          6           0        3.183026    4.281865   -2.084283
     77          1           0        4.015606    4.295502   -1.374980
     78          1           0        3.345793    3.427824   -2.749551
     79          1           0        3.204886    5.188283   -2.697256
     80          8           0        0.761918    3.938690   -2.260259
     81          1           0        1.087453    3.704590   -3.149336
     82          7           0        3.103755    2.498347    1.725851
     83          1           0        2.910632    1.550238    1.419009
     84          6           0        4.025611    2.700999    2.841781
     85          1           0        3.613892    3.473707    3.499498
     86          6           0        5.375125    3.196237    2.249914
     87          6           0        4.154772    1.368913    3.623906
     88          1           0        4.645534    0.655646    2.945655
     89          8           0        5.668077    2.910144    1.079515
     90          6           0        5.010610    1.515672    4.886253
     91          1           0        4.532325    2.198630    5.597763
     92          1           0        6.013541    1.904997    4.711902
     93          1           0        5.102059    0.542298    5.377566
     94          6           0        2.771304    0.814405    4.006121
     95          1           0        2.221588    1.547416    4.608858
     96          1           0        2.892452   -0.086379    4.615187
     97          1           0        2.155722    0.548955    3.143363
     98          7           0        6.107474    3.969561    3.065579
     99          1           0        5.960652    3.938135    4.103266
    100          6           0        7.558783    4.161161    2.943383
    101          1           0        7.972505    3.368147    2.312467
    102          6           0        8.107268    3.981907    4.430846
    103          6           0        8.054530    5.522897    2.429421
    104          1           0        9.096631    5.542417    2.759297
    105          1           0        7.548084    6.325057    2.985440
    106          8           0        9.333698    4.069632    4.559646
    107          6           0        8.004335    5.806895    0.912467
    108          1           0        8.914435    6.336678    0.611732
    109          1           0        7.996361    4.859913    0.359680
    110          6           0        6.808768    6.661995    0.451657
    111          1           0        6.836150    7.637044    0.957383
    112          1           0        6.880219    6.851945   -0.628825
    113          6           0        5.526548    5.931466    0.773018
    114          1           0        5.398894    5.786852    1.844879
    115          1           0        5.515333    4.935940    0.327611
    116          7           0        4.264746    6.620109    0.306243
    117          1           0        3.477683    5.949539    0.558051
    118          1           0        4.129250    7.517017    0.775811
    119          1           0        4.275004    6.787393   -0.701022
    120          8           0        7.193497    3.795839    5.292082
    121          1           0        1.013213    2.317160   -7.016890
 ---------------------------------------------------------------------

 SCF Done:  E(RB3LYP) =  -2843.99626629     A.U. after    3 cycles

 Alpha  occ. eigenvalues --  -19.29581 -19.29344 -19.25028 -19.24110 -19.21929
 Alpha  occ. eigenvalues --  -19.21243 -19.20344 -19.19873 -19.13600 -19.05785
 Alpha  occ. eigenvalues --  -19.04511 -14.61371 -14.52062 -14.51773 -14.48306
 Alpha  occ. eigenvalues --  -14.46455 -14.46039 -14.44056 -14.41959 -14.35448
 Alpha  occ. eigenvalues --  -10.46036 -10.43265 -10.42092 -10.41623 -10.38773
 Alpha  occ. eigenvalues --  -10.37004 -10.36748 -10.36218 -10.35797 -10.34299
 Alpha  occ. eigenvalues --  -10.31877 -10.31657 -10.31171 -10.31159 -10.30959
 Alpha  occ. eigenvalues --  -10.30623 -10.30367 -10.29597 -10.29565 -10.28959
 Alpha  occ. eigenvalues --  -10.27937 -10.27867 -10.27805 -10.27735 -10.27662
 Alpha  occ. eigenvalues --  -10.27148 -10.26956 -10.26951 -10.26241 -10.26009
 Alpha  occ. eigenvalues --  -10.24780 -10.24637 -10.23397 -10.23202 -10.21489
 Alpha  occ. eigenvalues --  -10.21216 -10.20638 -10.18859 -10.18552  -1.22013
 Alpha  occ. eigenvalues --   -1.20485  -1.16835  -1.15381  -1.13930  -1.12203
 Alpha  occ. eigenvalues --   -1.11359  -1.10980  -1.08947  -1.08809  -1.06864
 Alpha  occ. eigenvalues --   -1.06435  -1.04980  -1.04980  -1.02548  -1.00410
 Alpha  occ. eigenvalues --   -0.98850  -0.98616  -0.95612  -0.93030  -0.92558
 Alpha  occ. eigenvalues --   -0.92141  -0.90657  -0.89794  -0.89234  -0.87124
 Alpha  occ. eigenvalues --   -0.85984  -0.85126  -0.84121  -0.83925  -0.83393
 Alpha  occ. eigenvalues --   -0.82376  -0.81380  -0.80643  -0.78443  -0.78071
 Alpha  occ. eigenvalues --   -0.77704  -0.76617  -0.75899  -0.75126  -0.74896
 Alpha  occ. eigenvalues --   -0.73926  -0.72887  -0.72465  -0.71389  -0.71074
 Alpha  occ. eigenvalues --   -0.71044  -0.69967  -0.69194  -0.68898  -0.68423
 Alpha  occ. eigenvalues --   -0.67892  -0.67669  -0.66683  -0.66277  -0.65965
 Alpha  occ. eigenvalues --   -0.65866  -0.65537  -0.65044  -0.63190  -0.62598
 Alpha  occ. eigenvalues --   -0.62473  -0.62031  -0.61431  -0.61011  -0.60704
 Alpha  occ. eigenvalues --   -0.60643  -0.59908  -0.59537  -0.59275  -0.58337
 Alpha  occ. eigenvalues --   -0.58277  -0.57966  -0.57300  -0.57196  -0.57071
 Alpha  occ. eigenvalues --   -0.56634  -0.56495  -0.56142  -0.56102  -0.55867
 Alpha  occ. eigenvalues --   -0.55270  -0.54949  -0.54225  -0.54119  -0.53859
 Alpha  occ. eigenvalues --   -0.53353  -0.53151  -0.52930  -0.52634  -0.52296
 Alpha  occ. eigenvalues --   -0.51954  -0.51805  -0.51709  -0.51368  -0.50956
 Alpha  occ. eigenvalues --   -0.50840  -0.50446  -0.50081  -0.49535  -0.49206
 Alpha  occ. eigenvalues --   -0.49168  -0.48744  -0.48653  -0.48174  -0.48039
 Alpha  occ. eigenvalues --   -0.47479  -0.47358  -0.47162  -0.46804  -0.46587
 Alpha  occ. eigenvalues --   -0.46368  -0.46248  -0.46041  -0.45862  -0.45549
 Alpha  occ. eigenvalues --   -0.45324  -0.44979  -0.44665  -0.44501  -0.44408
 Alpha  occ. eigenvalues --   -0.44150  -0.44106  -0.43109  -0.42721  -0.42531
 Alpha  occ. eigenvalues --   -0.42207  -0.42092  -0.41971  -0.41757  -0.41594
 Alpha  occ. eigenvalues --   -0.41478  -0.41165  -0.41064  -0.40509  -0.40020
 Alpha  occ. eigenvalues --   -0.39681  -0.39500  -0.39003  -0.38862  -0.37367
 Alpha  occ. eigenvalues --   -0.37241  -0.37019  -0.36879  -0.36436  -0.36259
 Alpha  occ. eigenvalues --   -0.36112  -0.35865  -0.35360  -0.34953  -0.34635
 Alpha  occ. eigenvalues --   -0.34411  -0.33963  -0.33357  -0.32701  -0.32390
 Alpha  occ. eigenvalues --   -0.31999  -0.31373  -0.29554  -0.27757  -0.26968
 Alpha  occ. eigenvalues --   -0.20798  -0.20712  -0.18616
 Alpha virt. eigenvalues --   -0.14767  -0.12651  -0.11200  -0.10256  -0.09122
 Alpha virt. eigenvalues --   -0.08603  -0.07801  -0.06926  -0.06670  -0.06384
 Alpha virt. eigenvalues --   -0.05763  -0.04597  -0.03731  -0.03505  -0.02466

 Mulliken charges:
               1
     1  N   -0.559734
     2  H    0.354963
     3  H    0.350516
     4  H    0.381154
     5  C   -0.089910
     6  H    0.190601
     7  C    0.644725
     8  C   -0.343542
     9  H    0.174523
    10  H    0.160492
    11  H    0.154887
    12  O   -0.541848
    13  N   -0.524168
    14  H    0.303062
    15  C   -0.017024
    16  H    0.156714
    17  C    0.618645
    18  C   -0.231541
    19  H    0.140765
    20  H    0.118433
    21  O   -0.569057
    22  C    0.006574
    23  C    0.067534
    24  H    0.120747
    25  C    0.003739
    26  C    0.278039
    27  C   -0.162649
    28  H    0.087830
    29  N   -0.575841
    30  H    0.286957
    31  C   -0.107005
    32  H    0.103932
    33  C   -0.097785
    34  H    0.106202
    35  C   -0.092625
    36  H    0.097584
    37  N   -0.519222
    38  H    0.297902
    39  C   -0.017354
    40  H    0.137523
    41  C    0.626892
    42  C   -0.199763
    43  H    0.132536
    44  H    0.142998
    45  O   -0.557075
    46  C   -0.270293
    47  H    0.149095
    48  H    0.148704
    49  C    0.590382
    50  O   -0.484660
    51  O   -0.461307
    52  N   -0.520962
    53  H    0.292123
    54  C    0.015786
    55  H    0.116946
    56  C    0.612087
    57  C   -0.083917
    58  H    0.121828
    59  O   -0.542933
    60  C   -0.328641
    61  H    0.104108
    62  H    0.118849
    63  H    0.137946
    64  C   -0.330151
    65  H    0.103946
    66  H    0.096198
    67  H    0.116452
    68  N   -0.529366
    69  H    0.308477
    70  C   -0.032227
    71  H    0.131991
    72  C    0.650355
    73  C    0.177485
    74  H    0.097531
    75  O   -0.613953
    76  C   -0.376837
    77  H    0.125252
    78  H    0.130212
    79  H    0.114456
    80  O   -0.597521
    81  H    0.349954
    82  N   -0.495968
    83  H    0.305165
    84  C    0.017263
    85  H    0.121429
    86  C    0.584817
    87  C   -0.095827
    88  H    0.101534
    89  O   -0.582507
    90  C   -0.320932
    91  H    0.105879
    92  H    0.159534
    93  H    0.095633
    94  C   -0.330680
    95  H    0.100736
    96  H    0.107565
    97  H    0.111224
    98  N   -0.530876
    99  H    0.293346
   100  C   -0.040064
   101  H    0.110300
   102  C    0.581704
   103  C   -0.191368
   104  H    0.151034
   105  H    0.076262
   106  O   -0.568693
   107  C   -0.185920
   108  H    0.102620
   109  H    0.116990
   110  C   -0.197772
   111  H    0.102566
   112  H    0.086000
   113  C   -0.132474
   114  H    0.183383
   115  H    0.193495
   116  N   -0.582371
   117  H    0.396379
   118  H    0.327445
   119  H    0.319127
   120  O   -0.613781
   121  H    0.340083
 Sum of Mulliken charges =   1.00000

 Dipole moment (field-independent basis, Debye):
    X=            -38.6843    Y=            -19.4689    Z=            -25.8079  Tot=             50.4139
 Quadrupole moment (field-independent basis, Debye-Ang):
   XX=           -353.2678   YY=            -98.0087   ZZ=           -347.5345
   XY=            135.7174   XZ=            -64.3781   YZ=             -8.1868

 Normal termination of Gaussian 16 at Sun Sep  4 01:01:27 2022.
