 Gaussian 16, Revision C.01,
 Gaussian 16:  ES64L-G16RevC.01  3-Jul-2019

 ----------------------------------------------------------------------
 # B3LYP/6-31G** empiricaldispersion=gd3bj guess=read geom=check nosymm
  integral(ultrafinegrid)
 ----------------------------------------------------------------------

 -----------------------------------------------------
 Candidate Structure: Conf:34 Charge calc in gas phase
 -----------------------------------------------------
 Structure from the checkpoint file:  "conf-34.chk"
 Charge =  1 Multiplicity = 1

                          Input orientation:
 ---------------------------------------------------------------------
 Center     Atomic      Atomic             Coordinates (Angstroms)
 Number     Number       Type             X           Y           Z
 ---------------------------------------------------------------------
      1          7           0       -4.835094    1.007905   -8.421082
      2          1           0       -5.284278    1.643974   -7.734334
      3          1           0       -4.986468    1.322137   -9.379666
      4          1           0       -3.797635    1.056434   -8.200671
      5          6           0       -5.441710   -0.344300   -8.146169
      6          1           0       -6.376674   -0.392132   -8.713336
      7          6           0       -5.769007   -0.281289   -6.633066
      8          6           0       -4.496025   -1.471394   -8.551195
      9          1           0       -5.029161   -2.425089   -8.547687
     10          1           0       -4.122369   -1.321543   -9.567511
     11          1           0       -3.655584   -1.552829   -7.858295
     12          8           0       -5.749743    0.826377   -6.087697
     13          7           0       -6.025876   -1.437641   -5.994156
     14          1           0       -5.762324   -2.287230   -6.478366
     15          6           0       -5.751580   -1.497574   -4.547495
     16          1           0       -6.139994   -0.581390   -4.106000
     17          6           0       -4.218106   -1.539595   -4.431345
     18          6           0       -6.386663   -2.726475   -3.878678
     19          1           0       -7.476436   -2.649718   -3.966748
     20          1           0       -6.071750   -3.628888   -4.414794
     21          8           0       -3.569733   -2.228170   -5.228014
     22          6           0       -5.935127   -2.796537   -2.451363
     23          6           0       -5.104859   -3.740611   -1.898136
     24          1           0       -4.704342   -4.643853   -2.335373
     25          6           0       -6.144703   -1.784892   -1.442372
     26          6           0       -5.411956   -2.187486   -0.292262
     27          6           0       -6.861574   -0.575074   -1.400812
     28          1           0       -7.453798   -0.248622   -2.251139
     29          7           0       -4.790363   -3.381901   -0.602543
     30          1           0       -4.238664   -3.931121    0.035819
     31          6           0       -6.101769   -0.238363    0.888686
     32          1           0       -6.100615    0.376463    1.782450
     33          6           0       -5.390838   -1.431305    0.881916
     34          1           0       -4.838881   -1.761820    1.755482
     35          6           0       -6.828557    0.187063   -0.240656
     36          1           0       -7.378758    1.121082   -0.195942
     37          7           0       -3.664446   -0.727684   -3.515154
     38          1           0       -4.216153   -0.292837   -2.778743
     39          6           0       -2.225436   -0.612700   -3.363510
     40          1           0       -1.775797   -1.567688   -3.652166
     41          6           0       -1.967083   -0.304039   -1.883160
     42          6           0       -1.646210    0.517453   -4.256021
     43          1           0       -1.920377    1.487025   -3.827137
     44          1           0       -0.554441    0.455125   -4.250633
     45          8           0       -2.843817    0.215809   -1.197146
     46          6           0       -2.194936    0.407312   -5.681071
     47          1           0       -2.043793   -0.610219   -6.061294
     48          1           0       -3.276172    0.560706   -5.665571
     49          6           0       -1.667481    1.334984   -6.732525
     50          8           0       -2.235054    1.521426   -7.811102
     51          8           0       -0.512389    1.923877   -6.446998
     52          7           0       -0.734920   -0.620107   -1.435377
     53          1           0       -0.023202   -0.989225   -2.054307
     54          6           0       -0.267437   -0.276567   -0.100437
     55          1           0       -0.918025    0.516714    0.279982
     56          6           0        1.169250    0.216327   -0.272712
     57          6           0       -0.325803   -1.488562    0.870782
     58          1           0        0.368616   -2.241805    0.475106
     59          8           0        1.903014   -0.329593   -1.114130
     60          6           0        0.126672   -1.094351    2.282154
     61          1           0       -0.506887   -0.296741    2.687732
     62          1           0        0.047077   -1.951759    2.955921
     63          1           0        1.162115   -0.747420    2.307101
     64          6           0       -1.737467   -2.084810    0.900215
     65          1           0       -2.470195   -1.338792    1.220112
     66          1           0       -2.044976   -2.445927   -0.083901
     67          1           0       -1.770341   -2.926498    1.599747
     68          7           0        1.556793    1.208543    0.536009
     69          1           0        0.892365    1.699859    1.129597
     70          6           0        2.910076    1.737479    0.641787
     71          1           0        3.616379    0.915897    0.808367
     72          6           0        2.867539    2.664717    1.864104
     73          6           0        3.361486    2.457753   -0.673730
     74          1           0        2.455283    2.934106   -1.081930
     75          8           0        1.813861    3.213307    2.186739
     76          6           0        4.419327    3.537269   -0.474713
     77          1           0        4.050032    4.370879    0.126606
     78          1           0        5.307234    3.125684    0.013694
     79          1           0        4.706760    3.911972   -1.460934
     80          8           0        3.907810    1.518652   -1.576348
     81          1           0        3.295945    0.755586   -1.602330
     82          7           0        4.038189    2.809318    2.512485
     83          1           0        4.876905    2.384855    2.138217
     84          6           0        4.306072    3.875201    3.470337
     85          1           0        3.446687    4.549317    3.462020
     86          6           0        5.558056    4.611911    2.983185
     87          6           0        4.498529    3.315012    4.903979
     88          1           0        5.252239    2.518741    4.827970
     89          8           0        6.473482    3.894608    2.458216
     90          6           0        5.017549    4.384443    5.875160
     91          1           0        4.413636    5.296963    5.848741
     92          1           0        6.046613    4.675253    5.647983
     93          1           0        5.002245    3.995164    6.897144
     94          6           0        3.183556    2.702103    5.396701
     95          1           0        2.415420    3.474610    5.506775
     96          1           0        3.327073    2.227166    6.371690
     97          1           0        2.802884    1.947801    4.702656
     98          7           0        5.534842    5.910748    3.193394
     99          1           0        4.741828    6.387352    3.750397
    100          6           0        6.568945    6.950932    3.319367
    101          1           0        7.424760    6.538463    3.868401
    102          6           0        5.865387    8.054214    4.211274
    103          6           0        7.077360    7.524699    1.985076
    104          1           0        7.917272    8.185753    2.210542
    105          1           0        6.301569    8.127886    1.502281
    106          8           0        6.533080    9.067234    4.425414
    107          6           0        7.446087    6.307098    1.156611
    108          1           0        7.983649    5.660653    1.855012
    109          1           0        6.496793    5.802244    0.951501
    110          6           0        8.236012    6.279941   -0.146047
    111          1           0        7.857183    6.982623   -0.895416
    112          1           0        9.294814    6.515106    0.011234
    113          6           0        8.066396    4.860769   -0.713047
    114          1           0        8.818207    4.592295   -1.458448
    115          1           0        7.074740    4.741518   -1.153789
    116          7           0        8.130734    3.810298    0.389270
    117          1           0        7.976641    2.879473   -0.001907
    118          1           0        9.053248    3.805832    0.830742
    119          1           0        7.407778    3.956314    1.199682
    120          8           0        4.685223    7.726931    4.560813
    121          1           0       -0.254554    2.478210   -7.205269
 ---------------------------------------------------------------------

 SCF Done:  E(RB3LYP) =  -2843.99614735     A.U. after    2 cycles

 Alpha  occ. eigenvalues --  -19.32747 -19.27770 -19.26667 -19.21705 -19.21002
 Alpha  occ. eigenvalues --  -19.20551 -19.19567 -19.19031 -19.18873 -19.08853
 Alpha  occ. eigenvalues --  -19.07192 -14.57329 -14.53789 -14.49091 -14.45662
 Alpha  occ. eigenvalues --  -14.45351 -14.44906 -14.44576 -14.42703 -14.39201
 Alpha  occ. eigenvalues --  -10.45650 -10.43345 -10.40167 -10.38687 -10.37806
 Alpha  occ. eigenvalues --  -10.37665 -10.36007 -10.34667 -10.34531 -10.33825
 Alpha  occ. eigenvalues --  -10.33222 -10.32794 -10.31469 -10.31448 -10.31148
 Alpha  occ. eigenvalues --  -10.31018 -10.30064 -10.29634 -10.29041 -10.28987
 Alpha  occ. eigenvalues --  -10.28262 -10.27795 -10.27353 -10.26259 -10.26134
 Alpha  occ. eigenvalues --  -10.25707 -10.25656 -10.25619 -10.25548 -10.25044
 Alpha  occ. eigenvalues --  -10.24823 -10.24683 -10.24649 -10.24622 -10.24310
 Alpha  occ. eigenvalues --  -10.24108 -10.22426 -10.21480 -10.20648  -1.24082
 Alpha  occ. eigenvalues --   -1.18930  -1.14749  -1.13896  -1.13054  -1.12316
 Alpha  occ. eigenvalues --   -1.11965  -1.10896  -1.09301  -1.07945  -1.07638
 Alpha  occ. eigenvalues --   -1.05818  -1.05195  -1.02457  -1.01928  -1.01515
 Alpha  occ. eigenvalues --   -1.01068  -0.99420  -0.96412  -0.92965  -0.92772
 Alpha  occ. eigenvalues --   -0.91396  -0.90871  -0.89394  -0.88721  -0.88575
 Alpha  occ. eigenvalues --   -0.86181  -0.85215  -0.84189  -0.83771  -0.82559
 Alpha  occ. eigenvalues --   -0.80841  -0.80679  -0.80356  -0.79102  -0.78381
 Alpha  occ. eigenvalues --   -0.76987  -0.76320  -0.75779  -0.75014  -0.74642
 Alpha  occ. eigenvalues --   -0.72892  -0.72527  -0.72181  -0.71541  -0.70668
 Alpha  occ. eigenvalues --   -0.69564  -0.69241  -0.69131  -0.68403  -0.67986
 Alpha  occ. eigenvalues --   -0.67467  -0.67123  -0.66362  -0.66247  -0.66157
 Alpha  occ. eigenvalues --   -0.65343  -0.64911  -0.64648  -0.63535  -0.63333
 Alpha  occ. eigenvalues --   -0.63108  -0.61877  -0.61282  -0.61091  -0.60800
 Alpha  occ. eigenvalues --   -0.60408  -0.60186  -0.59538  -0.59108  -0.58800
 Alpha  occ. eigenvalues --   -0.58567  -0.57907  -0.57758  -0.57390  -0.56700
 Alpha  occ. eigenvalues --   -0.56574  -0.55917  -0.55584  -0.55438  -0.54776
 Alpha  occ. eigenvalues --   -0.54226  -0.53903  -0.53708  -0.53517  -0.53260
 Alpha  occ. eigenvalues --   -0.53163  -0.52665  -0.52610  -0.52300  -0.51861
 Alpha  occ. eigenvalues --   -0.51746  -0.51670  -0.51192  -0.50982  -0.50558
 Alpha  occ. eigenvalues --   -0.50417  -0.50097  -0.49970  -0.49746  -0.49682
 Alpha  occ. eigenvalues --   -0.49163  -0.49071  -0.48818  -0.48382  -0.48264
 Alpha  occ. eigenvalues --   -0.48107  -0.47595  -0.47286  -0.47133  -0.46841
 Alpha  occ. eigenvalues --   -0.46793  -0.46639  -0.46144  -0.46057  -0.45967
 Alpha  occ. eigenvalues --   -0.45781  -0.45368  -0.45281  -0.45143  -0.44909
 Alpha  occ. eigenvalues --   -0.44500  -0.44390  -0.44022  -0.43607  -0.43412
 Alpha  occ. eigenvalues --   -0.42948  -0.42270  -0.42192  -0.41955  -0.41700
 Alpha  occ. eigenvalues --   -0.41657  -0.41372  -0.40939  -0.40755  -0.40677
 Alpha  occ. eigenvalues --   -0.40396  -0.40132  -0.39767  -0.39488  -0.39178
 Alpha  occ. eigenvalues --   -0.38501  -0.38246  -0.37926  -0.37095  -0.37005
 Alpha  occ. eigenvalues --   -0.36345  -0.35743  -0.35615  -0.35331  -0.34624
 Alpha  occ. eigenvalues --   -0.34341  -0.34112  -0.33871  -0.33581  -0.33340
 Alpha  occ. eigenvalues --   -0.31837  -0.31489  -0.31108  -0.29267  -0.27701
 Alpha  occ. eigenvalues --   -0.24158  -0.23578  -0.21357
 Alpha virt. eigenvalues --   -0.13167  -0.12276  -0.08526  -0.08280  -0.07975
 Alpha virt. eigenvalues --   -0.07386  -0.06694  -0.06150  -0.04920  -0.04627
 Alpha virt. eigenvalues --   -0.03917  -0.03895  -0.03589  -0.02242  -0.01477

 Mulliken charges:
               1
     1  N   -0.568945
     2  H    0.350272
     3  H    0.336703
     4  H    0.387704
     5  C   -0.089066
     6  H    0.187070
     7  C    0.639930
     8  C   -0.352313
     9  H    0.154766
    10  H    0.144619
    11  H    0.172203
    12  O   -0.527507
    13  N   -0.502246
    14  H    0.285609
    15  C   -0.031610
    16  H    0.154792
    17  C    0.611713
    18  C   -0.242426
    19  H    0.134724
    20  H    0.112298
    21  O   -0.571732
    22  C    0.004657
    23  C    0.067700
    24  H    0.119598
    25  C    0.049329
    26  C    0.298128
    27  C   -0.167161
    28  H    0.081038
    29  N   -0.613950
    30  H    0.269800
    31  C   -0.099516
    32  H    0.098034
    33  C   -0.085237
    34  H    0.092905
    35  C   -0.087700
    36  H    0.092884
    37  N   -0.514773
    38  H    0.308443
    39  C   -0.028021
    40  H    0.143115
    41  C    0.608186
    42  C   -0.172445
    43  H    0.135223
    44  H    0.135063
    45  O   -0.527909
    46  C   -0.303290
    47  H    0.184899
    48  H    0.147850
    49  C    0.612251
    50  O   -0.530148
    51  O   -0.440689
    52  N   -0.532089
    53  H    0.281023
    54  C   -0.004451
    55  H    0.140875
    56  C    0.612185
    57  C   -0.051500
    58  H    0.104304
    59  O   -0.580427
    60  C   -0.327074
    61  H    0.114601
    62  H    0.118775
    63  H    0.113656
    64  C   -0.325530
    65  H    0.131732
    66  H    0.100803
    67  H    0.100901
    68  N   -0.530949
    69  H    0.297103
    70  C   -0.018142
    71  H    0.128578
    72  C    0.579314
    73  C    0.202719
    74  H    0.090107
    75  O   -0.537372
    76  C   -0.335544
    77  H    0.136025
    78  H    0.071316
    79  H    0.120591
    80  O   -0.577575
    81  H    0.335884
    82  N   -0.511362
    83  H    0.265330
    84  C   -0.018119
    85  H    0.153732
    86  C    0.608094
    87  C   -0.045222
    88  H    0.085894
    89  O   -0.666316
    90  C   -0.335383
    91  H    0.149838
    92  H    0.109902
    93  H    0.106282
    94  C   -0.311259
    95  H    0.122392
    96  H    0.106859
    97  H    0.096608
    98  N   -0.513255
    99  H    0.331694
   100  C   -0.068665
   101  H    0.114998
   102  C    0.600986
   103  C   -0.169597
   104  H    0.133563
   105  H    0.111390
   106  O   -0.560733
   107  C   -0.202390
   108  H    0.090928
   109  H    0.108094
   110  C   -0.197450
   111  H    0.137010
   112  H    0.122964
   113  C   -0.115751
   114  H    0.146787
   115  H    0.169432
   116  N   -0.593386
   117  H    0.330596
   118  H    0.334202
   119  H    0.416376
   120  O   -0.615949
   121  H    0.346225
 Sum of Mulliken charges =   1.00000

 Dipole moment (field-independent basis, Debye):
    X=             -7.3538    Y=            -10.3600    Z=            -37.3807  Tot=             39.4807
 Quadrupole moment (field-independent basis, Debye-Ang):
   XX=           -140.2668   YY=           -452.7877   ZZ=           -135.8254
   XY=             -3.8142   XZ=             85.1862   YZ=           -110.9357

 Normal termination of Gaussian 16 at Sun Sep  4 01:01:00 2022.
