 Gaussian 16, Revision C.01,
 Gaussian 16:  ES64L-G16RevC.01  3-Jul-2019

 ----------------------------------------------------------------------
 # B3LYP/6-31G** empiricaldispersion=gd3bj guess=read geom=check nosymm
  integral(ultrafinegrid)
 ----------------------------------------------------------------------

 ------------------------------------------------------
 Candidate Structure: Conf:578 Charge calc in gas phase
 ------------------------------------------------------
 Structure from the checkpoint file:  "conf-578.chk"
 Charge =  1 Multiplicity = 1

                          Input orientation:
 ---------------------------------------------------------------------
 Center     Atomic      Atomic             Coordinates (Angstroms)
 Number     Number       Type             X           Y           Z
 ---------------------------------------------------------------------
      1          7           0       -6.687509   -3.175258   -8.794849
      2          1           0       -7.353516   -3.948081   -8.803891
      3          1           0       -6.495190   -2.892868   -9.757209
      4          1           0       -7.063762   -2.334857   -8.201303
      5          6           0       -5.432751   -3.460920   -8.002062
      6          1           0       -5.514379   -4.468836   -7.588756
      7          6           0       -5.541422   -2.408436   -6.864317
      8          6           0       -4.176385   -3.313235   -8.853823
      9          1           0       -3.289058   -3.485797   -8.240990
     10          1           0       -4.163205   -4.042708   -9.667873
     11          1           0       -4.101040   -2.303219   -9.268292
     12          8           0       -6.523626   -1.637856   -6.913273
     13          7           0       -4.594464   -2.401613   -5.952251
     14          1           0       -3.774210   -3.017143   -5.968003
     15          6           0       -4.512136   -1.452434   -4.846640
     16          1           0       -4.723582   -0.446667   -5.218540
     17          6           0       -3.050871   -1.563424   -4.379648
     18          6           0       -5.524360   -1.797318   -3.716698
     19          1           0       -6.504095   -1.912050   -4.194080
     20          1           0       -5.250869   -2.765630   -3.285070
     21          8           0       -2.361897   -2.519329   -4.765196
     22          6           0       -5.561878   -0.730247   -2.673595
     23          6           0       -5.112000   -0.807226   -1.376366
     24          1           0       -4.702884   -1.650890   -0.839368
     25          6           0       -5.970553    0.636881   -2.888995
     26          6           0       -5.731532    1.335198   -1.673477
     27          6           0       -6.504521    1.333163   -3.987944
     28          1           0       -6.724622    0.815596   -4.918089
     29          7           0       -5.243249    0.418764   -0.763490
     30          1           0       -4.813429    0.656143    0.116123
     31          6           0       -6.502718    3.367305   -2.646224
     32          1           0       -6.712177    4.429672   -2.576662
     33          6           0       -5.990474    2.701454   -1.539700
     34          1           0       -5.796652    3.223624   -0.608413
     35          6           0       -6.762365    2.690920   -3.855816
     36          1           0       -7.174698    3.244398   -4.693338
     37          7           0       -2.622730   -0.605943   -3.554159
     38          1           0       -3.244585    0.124455   -3.215485
     39          6           0       -1.322885   -0.651178   -2.903404
     40          1           0       -1.085559   -1.694757   -2.671014
     41          6           0       -1.475986    0.176210   -1.619097
     42          6           0       -0.225302   -0.075208   -3.825390
     43          1           0       -0.353676   -0.551765   -4.801995
     44          1           0       -0.394310    0.998161   -3.951698
     45          8           0       -2.325275    1.065641   -1.547551
     46          6           0        1.205161   -0.338449   -3.325595
     47          1           0        1.386493    0.143543   -2.360335
     48          1           0        1.383072   -1.410890   -3.214282
     49          6           0        2.229540    0.181524   -4.307927
     50          8           0        2.989872   -0.491631   -4.964399
     51          8           0        2.188588    1.535485   -4.390413
     52          7           0       -0.626100   -0.140576   -0.623445
     53          1           0        0.131741   -0.797020   -0.781266
     54          6           0       -0.411038    0.702785    0.544483
     55          1           0       -0.903395    1.662924    0.360168
     56          6           0        1.109406    0.868391    0.647307
     57          6           0       -1.006049    0.054634    1.824254
     58          1           0       -0.539903   -0.935360    1.913539
     59          8           0        1.857706   -0.017715    0.221086
     60          6           0       -0.683607    0.852974    3.093076
     61          1           0       -1.041204    1.887510    3.006257
     62          1           0       -1.196018    0.405900    3.950030
     63          1           0        0.386828    0.864603    3.307885
     64          6           0       -2.519358   -0.129094    1.658692
     65          1           0       -3.011539    0.848689    1.584690
     66          1           0       -2.756650   -0.704230    0.759879
     67          1           0       -2.936664   -0.652798    2.523437
     68          7           0        1.555652    1.990796    1.233317
     69          1           0        0.929442    2.744840    1.477513
     70          6           0        2.955452    2.176905    1.559362
     71          1           0        3.536851    2.313796    0.639100
     72          6           0        3.464084    0.952720    2.346984
     73          6           0        3.096238    3.419689    2.455887
     74          1           0        2.711436    3.143230    3.448083
     75          8           0        2.795307    0.468204    3.255809
     76          6           0        4.544837    3.882874    2.560437
     77          1           0        5.200204    3.085798    2.922114
     78          1           0        4.904226    4.208143    1.579588
     79          1           0        4.627908    4.726429    3.253051
     80          8           0        2.260302    4.425958    1.874215
     81          1           0        2.263158    5.190726    2.464073
     82          7           0        4.689423    0.522632    1.988402
     83          1           0        5.257010    1.062637    1.346214
     84          6           0        5.417759   -0.491433    2.723154
     85          1           0        4.996858   -0.539887    3.732629
     86          6           0        6.876460   -0.018690    2.784824
     87          6           0        5.302934   -1.895778    2.067617
     88          1           0        5.907611   -2.577654    2.680933
     89          8           0        7.274667    0.924378    2.094264
     90          6           0        3.852406   -2.389496    2.087508
     91          1           0        3.216476   -1.755779    1.463436
     92          1           0        3.440304   -2.380987    3.100258
     93          1           0        3.801582   -3.412644    1.701154
     94          6           0        5.869273   -1.897010    0.643686
     95          1           0        5.282054   -1.234010    0.000151
     96          1           0        5.822652   -2.902863    0.216987
     97          1           0        6.912185   -1.566784    0.612666
     98          7           0        7.676786   -0.710281    3.622293
     99          1           0        7.375009   -1.600312    4.005745
    100          6           0        9.121274   -0.545241    3.593517
    101          1           0        9.451402   -0.597113    2.545112
    102          6           0        9.704324   -1.788611    4.294185
    103          6           0        9.596821    0.804224    4.165088
    104          1           0        9.826538    0.694891    5.229539
    105          1           0        8.769977    1.512559    4.094637
    106          8           0       10.960130   -1.748468    4.714393
    107          6           0       10.800732    1.362385    3.382361
    108          1           0       11.403029    0.535091    2.985110
    109          1           0       10.410093    1.891408    2.507450
    110          6           0       11.721641    2.276750    4.205623
    111          1           0       12.157338    3.057407    3.572828
    112          1           0       11.141962    2.801153    4.977239
    113          6           0       12.877758    1.508480    4.848924
    114          1           0       13.492885    2.186444    5.456882
    115          1           0       13.522298    1.110091    4.057692
    116          7           0       12.391375    0.349429    5.626697
    117          1           0       13.179806   -0.200276    5.962916
    118          1           0       11.901739    0.672508    6.459837
    119          1           0       11.385449   -0.846300    4.865950
    120          8           0        9.028469   -2.794605    4.404880
    121          1           0        2.864920    1.788506   -5.041389
 ---------------------------------------------------------------------

 SCF Done:  E(RB3LYP) =  -2844.04291613     A.U. after    1 cycles

 Alpha  occ. eigenvalues --  -19.27583 -19.24920 -19.21416 -19.21356 -19.20727
 Alpha  occ. eigenvalues --  -19.19253 -19.19165 -19.18282 -19.16727 -19.16579
 Alpha  occ. eigenvalues --  -19.16247 -14.59147 -14.49502 -14.44553 -14.44142
 Alpha  occ. eigenvalues --  -14.43132 -14.42289 -14.40481 -14.40243 -14.39999
 Alpha  occ. eigenvalues --  -10.43799 -10.41188 -10.38189 -10.37422 -10.36304
 Alpha  occ. eigenvalues --  -10.35214 -10.35063 -10.33869 -10.33864 -10.33578
 Alpha  occ. eigenvalues --  -10.33363 -10.31371 -10.30531 -10.29696 -10.29090
 Alpha  occ. eigenvalues --  -10.28845 -10.28636 -10.28111 -10.28004 -10.27385
 Alpha  occ. eigenvalues --  -10.27149 -10.26739 -10.26033 -10.25758 -10.25359
 Alpha  occ. eigenvalues --  -10.24945 -10.24898 -10.24892 -10.24403 -10.24213
 Alpha  occ. eigenvalues --  -10.24025 -10.23711 -10.23604 -10.23502 -10.23319
 Alpha  occ. eigenvalues --  -10.23163 -10.22382 -10.21072 -10.20261  -1.19927
 Alpha  occ. eigenvalues --   -1.15752  -1.13581  -1.12986  -1.12343  -1.11366
 Alpha  occ. eigenvalues --   -1.10336  -1.08837  -1.08665  -1.07786  -1.06726
 Alpha  occ. eigenvalues --   -1.06349  -1.04298  -1.04252  -1.01466  -0.99929
 Alpha  occ. eigenvalues --   -0.98787  -0.97428  -0.97035  -0.95814  -0.93443
 Alpha  occ. eigenvalues --   -0.90307  -0.89347  -0.87831  -0.86481  -0.85596
 Alpha  occ. eigenvalues --   -0.84674  -0.84529  -0.83424  -0.81602  -0.80846
 Alpha  occ. eigenvalues --   -0.80302  -0.79716  -0.78861  -0.78327  -0.76592
 Alpha  occ. eigenvalues --   -0.76092  -0.75045  -0.74201  -0.73822  -0.73195
 Alpha  occ. eigenvalues --   -0.72554  -0.71839  -0.71662  -0.69909  -0.68479
 Alpha  occ. eigenvalues --   -0.68228  -0.67690  -0.67312  -0.66446  -0.65832
 Alpha  occ. eigenvalues --   -0.65765  -0.65540  -0.65267  -0.64947  -0.63772
 Alpha  occ. eigenvalues --   -0.63616  -0.63481  -0.63321  -0.62857  -0.62207
 Alpha  occ. eigenvalues --   -0.61454  -0.60581  -0.60129  -0.59950  -0.59589
 Alpha  occ. eigenvalues --   -0.58783  -0.58068  -0.57353  -0.56278  -0.56152
 Alpha  occ. eigenvalues --   -0.56066  -0.55797  -0.54875  -0.54691  -0.54553
 Alpha  occ. eigenvalues --   -0.54143  -0.54080  -0.53901  -0.53526  -0.53328
 Alpha  occ. eigenvalues --   -0.53076  -0.52536  -0.52266  -0.52124  -0.51990
 Alpha  occ. eigenvalues --   -0.51897  -0.51618  -0.51463  -0.51120  -0.50733
 Alpha  occ. eigenvalues --   -0.50545  -0.50476  -0.49641  -0.49480  -0.49350
 Alpha  occ. eigenvalues --   -0.49140  -0.48943  -0.48710  -0.48465  -0.48208
 Alpha  occ. eigenvalues --   -0.47786  -0.47490  -0.47398  -0.47115  -0.46880
 Alpha  occ. eigenvalues --   -0.46784  -0.46654  -0.45985  -0.45924  -0.45444
 Alpha  occ. eigenvalues --   -0.45289  -0.44912  -0.44771  -0.44627  -0.44528
 Alpha  occ. eigenvalues --   -0.44488  -0.43930  -0.43878  -0.43439  -0.43400
 Alpha  occ. eigenvalues --   -0.43218  -0.42449  -0.42388  -0.42345  -0.42168
 Alpha  occ. eigenvalues --   -0.41812  -0.41557  -0.41543  -0.41093  -0.40832
 Alpha  occ. eigenvalues --   -0.40498  -0.40078  -0.39985  -0.39589  -0.39550
 Alpha  occ. eigenvalues --   -0.39167  -0.39062  -0.38928  -0.38532  -0.38360
 Alpha  occ. eigenvalues --   -0.38039  -0.37713  -0.37130  -0.37101  -0.36893
 Alpha  occ. eigenvalues --   -0.35863  -0.34906  -0.33898  -0.33870  -0.33761
 Alpha  occ. eigenvalues --   -0.33569  -0.32901  -0.32614  -0.32499  -0.32216
 Alpha  occ. eigenvalues --   -0.31627  -0.31225  -0.30371  -0.30162  -0.29788
 Alpha  occ. eigenvalues --   -0.29486  -0.28547  -0.26874
 Alpha virt. eigenvalues --   -0.12606  -0.10762  -0.07726  -0.07175  -0.05922
 Alpha virt. eigenvalues --   -0.05337  -0.04384  -0.04276  -0.04105  -0.03658
 Alpha virt. eigenvalues --   -0.03047  -0.02585  -0.01989  -0.01148  -0.01007

 Mulliken charges:
               1
     1  N   -0.565083
     2  H    0.350028
     3  H    0.345846
     4  H    0.382930
     5  C   -0.088291
     6  H    0.188186
     7  C    0.643670
     8  C   -0.343558
     9  H    0.178440
    10  H    0.154793
    11  H    0.151980
    12  O   -0.547896
    13  N   -0.522067
    14  H    0.304665
    15  C   -0.023749
    16  H    0.159294
    17  C    0.610206
    18  C   -0.232905
    19  H    0.133668
    20  H    0.113877
    21  O   -0.562779
    22  C   -0.004702
    23  C    0.065049
    24  H    0.114860
    25  C    0.051964
    26  C    0.294531
    27  C   -0.161732
    28  H    0.083242
    29  N   -0.593778
    30  H    0.274525
    31  C   -0.105672
    32  H    0.094083
    33  C   -0.086123
    34  H    0.093225
    35  C   -0.094891
    36  H    0.085554
    37  N   -0.530365
    38  H    0.311198
    39  C   -0.012973
    40  H    0.135429
    41  C    0.598584
    42  C   -0.181009
    43  H    0.131815
    44  H    0.137478
    45  O   -0.545464
    46  C   -0.259162
    47  H    0.152050
    48  H    0.136411
    49  C    0.547732
    50  O   -0.450865
    51  O   -0.478086
    52  N   -0.521066
    53  H    0.286123
    54  C   -0.029367
    55  H    0.130431
    56  C    0.636070
    57  C   -0.040778
    58  H    0.110448
    59  O   -0.555973
    60  C   -0.350529
    61  H    0.085964
    62  H    0.109905
    63  H    0.163898
    64  C   -0.322897
    65  H    0.100422
    66  H    0.101352
    67  H    0.115435
    68  N   -0.524009
    69  H    0.282777
    70  C    0.027306
    71  H    0.117621
    72  C    0.626180
    73  C    0.141146
    74  H    0.114701
    75  O   -0.540661
    76  C   -0.340675
    77  H    0.131957
    78  H    0.125245
    79  H    0.106981
    80  O   -0.560902
    81  H    0.317987
    82  N   -0.508884
    83  H    0.279554
    84  C   -0.026519
    85  H    0.140275
    86  C    0.610672
    87  C   -0.053762
    88  H    0.098553
    89  O   -0.562580
    90  C   -0.327407
    91  H    0.141654
    92  H    0.109379
    93  H    0.093363
    94  C   -0.327873
    95  H    0.115484
    96  H    0.109535
    97  H    0.109074
    98  N   -0.543531
    99  H    0.290045
   100  C   -0.002610
   101  H    0.147633
   102  C    0.579814
   103  C   -0.186021
   104  H    0.089430
   105  H    0.132380
   106  O   -0.526652
   107  C   -0.193536
   108  H    0.099080
   109  H    0.123959
   110  C   -0.192336
   111  H    0.110660
   112  H    0.100279
   113  C   -0.062981
   114  H    0.102608
   115  H    0.123155
   116  N   -0.648118
   117  H    0.276602
   118  H    0.266161
   119  H    0.385279
   120  O   -0.477777
   121  H    0.326698
 Sum of Mulliken charges =   1.00000

 Dipole moment (field-independent basis, Debye):
    X=            -13.3131    Y=             -4.3356    Z=            -23.7076  Tot=             27.5334
 Quadrupole moment (field-independent basis, Debye-Ang):
   XX=            -84.2592   YY=           -288.4476   ZZ=            -41.3704
   XY=            132.2001   XZ=            249.8667   YZ=            134.2759

 Normal termination of Gaussian 16 at Sun Sep  4 01:04:42 2022.
