 Gaussian 16, Revision C.01,
 Gaussian 16:  ES64L-G16RevC.01  3-Jul-2019

 ----------------------------------------------------------------------
 # B3LYP/6-31G** empiricaldispersion=gd3bj guess=read geom=check nosymm
  integral(ultrafinegrid)
 ----------------------------------------------------------------------

 ------------------------------------------------------
 Candidate Structure: Conf:231 Charge calc in gas phase
 ------------------------------------------------------
 Structure from the checkpoint file:  "conf-231.chk"
 Charge =  1 Multiplicity = 1

                          Input orientation:
 ---------------------------------------------------------------------
 Center     Atomic      Atomic             Coordinates (Angstroms)
 Number     Number       Type             X           Y           Z
 ---------------------------------------------------------------------
      1          7           0       -6.730176   -4.339557   -3.519834
      2          1           0       -7.193704   -4.520336   -2.628575
      3          1           0       -6.966552   -5.088939   -4.172576
      4          1           0       -7.018763   -3.369420   -3.916075
      5          6           0       -5.239875   -4.113780   -3.394799
      6          1           0       -4.971036   -4.204673   -2.339870
      7          6           0       -5.107183   -2.634866   -3.851352
      8          6           0       -4.446606   -5.093390   -4.253622
      9          1           0       -3.378385   -4.883442   -4.167194
     10          1           0       -4.607220   -6.124046   -3.926595
     11          1           0       -4.719040   -4.998930   -5.309237
     12          8           0       -6.153212   -2.070246   -4.228218
     13          7           0       -3.905581   -2.095986   -3.809654
     14          1           0       -3.063788   -2.611469   -3.540808
     15          6           0       -3.598066   -0.729649   -4.218193
     16          1           0       -4.039734   -0.536105   -5.199972
     17          6           0       -2.064947   -0.690234   -4.282483
     18          6           0       -4.142370    0.324486   -3.204021
     19          1           0       -5.161899    0.018991   -2.947552
     20          1           0       -3.543625    0.276193   -2.288818
     21          8           0       -1.405065   -1.660252   -3.879870
     22          6           0       -4.153468    1.704991   -3.778952
     23          6           0       -3.347396    2.771622   -3.437036
     24          1           0       -2.554959    2.835818   -2.705056
     25          6           0       -4.999816    2.150524   -4.860097
     26          6           0       -4.651114    3.502104   -5.128833
     27          6           0       -6.010588    1.536899   -5.620217
     28          1           0       -6.308033    0.511251   -5.419562
     29          7           0       -3.645210    3.846755   -4.244554
     30          1           0       -3.185172    4.742245   -4.200137
     31          6           0       -6.266992    3.611995   -6.873232
     32          1           0       -6.773082    4.160258   -7.660877
     33          6           0       -5.276661    4.245922   -6.132932
     34          1           0       -5.001174    5.277292   -6.327881
     35          6           0       -6.631798    2.274001   -6.619525
     36          1           0       -7.416122    1.818499   -7.215409
     37          7           0       -1.530263    0.455206   -4.732170
     38          1           0       -2.167232    1.236031   -4.866384
     39          6           0       -0.124698    0.799855   -4.479131
     40          1           0        0.465315   -0.103879   -4.651098
     41          6           0       -0.039555    1.214964   -2.993637
     42          6           0        0.310014    1.933836   -5.397794
     43          1           0        0.027485    1.684451   -6.425043
     44          1           0       -0.231881    2.841088   -5.118493
     45          8           0       -0.234180    2.387717   -2.640732
     46          6           0        1.810976    2.214266   -5.310635
     47          1           0        2.179496    2.166787   -4.279187
     48          1           0        2.399465    1.494436   -5.887787
     49          6           0        2.139811    3.615147   -5.777302
     50          8           0        1.333323    4.502372   -5.953837
     51          8           0        3.465126    3.774709   -5.966828
     52          7           0        0.156954    0.206067   -2.128572
     53          1           0        0.297255   -0.724948   -2.497953
     54          6           0        0.233661    0.406811   -0.676732
     55          1           0       -0.507124    1.173051   -0.423199
     56          6           0        1.655924    0.938576   -0.397143
     57          6           0       -0.081405   -0.881427    0.089129
     58          1           0        0.710545   -1.600640   -0.155276
     59          8           0        2.613327    0.186507   -0.243537
     60          6           0       -0.031629   -0.609880    1.596954
     61          1           0       -0.781400    0.136064    1.885740
     62          1           0       -0.240819   -1.526057    2.156269
     63          1           0        0.948562   -0.248397    1.908324
     64          6           0       -1.445369   -1.456853   -0.316022
     65          1           0       -2.245563   -0.739276   -0.093327
     66          1           0       -1.497182   -1.703891   -1.380030
     67          1           0       -1.651810   -2.366769    0.256001
     68          7           0        1.736329    2.286250   -0.449518
     69          1           0        0.883554    2.802452   -0.610135
     70          6           0        3.000169    3.015000   -0.501504
     71          1           0        3.746349    2.322935   -0.903121
     72          6           0        3.351099    3.429722    0.939020
     73          6           0        2.854455    4.224623   -1.438264
     74          1           0        2.157116    4.927837   -0.963253
     75          8           0        2.975870    4.508592    1.397400
     76          6           0        4.187925    4.919884   -1.654419
     77          1           0        4.584378    5.280315   -0.703093
     78          1           0        4.905928    4.230215   -2.110219
     79          1           0        4.054994    5.770507   -2.326945
     80          8           0        2.366770    3.820127   -2.718539
     81          1           0        1.428620    3.585011   -2.647690
     82          7           0        3.998151    2.473555    1.631957
     83          1           0        4.350744    1.649146    1.161518
     84          6           0        4.255133    2.541864    3.056580
     85          1           0        4.250950    3.596927    3.343629
     86          6           0        5.630247    1.913690    3.326168
     87          6           0        3.169349    1.790696    3.884266
     88          1           0        3.424061    1.936319    4.940669
     89          8           0        6.208387    1.253088    2.450865
     90          6           0        1.778194    2.379044    3.630546
     91          1           0        1.459172    2.203413    2.597502
     92          1           0        1.759739    3.458817    3.799959
     93          1           0        1.043253    1.910090    4.293070
     94          6           0        3.200028    0.282630    3.606670
     95          1           0        3.066610    0.071265    2.539758
     96          1           0        2.399382   -0.219919    4.158435
     97          1           0        4.146953   -0.163971    3.920560
     98          7           0        6.073544    2.096263    4.580178
     99          1           0        5.416931    2.431453    5.309516
    100          6           0        6.940835    1.155390    5.277983
    101          1           0        6.844132    0.163213    4.818113
    102          6           0        6.391870    1.074272    6.766564
    103          6           0        8.408531    1.558825    5.281021
    104          1           0        8.907741    0.909529    6.007814
    105          1           0        8.488803    2.589688    5.652028
    106          8           0        7.091825    0.403201    7.542475
    107          6           0        9.060578    1.455374    3.902797
    108          1           0        9.016116    0.416671    3.552198
    109          1           0        8.492307    2.041734    3.173287
    110          6           0       10.521606    1.924259    3.938462
    111          1           0       10.560437    2.968181    4.279620
    112          1           0       11.084116    1.321287    4.664846
    113          6           0       11.156314    1.808474    2.568829
    114          1           0       10.659490    2.431664    1.822585
    115          1           0       11.193951    0.778594    2.208188
    116          7           0       12.615928    2.290441    2.619021
    117          1           0       13.089561    2.229419    1.712407
    118          1           0       12.652196    3.264487    2.936403
    119          1           0       13.145254    1.733047    3.297278
    120          8           0        5.320379    1.717161    6.954551
    121          1           0        3.596562    4.709494   -6.198430
 ---------------------------------------------------------------------

 SCF Done:  E(RB3LYP) =  -2843.95196106     A.U. after    3 cycles

 Alpha  occ. eigenvalues --  -19.28444 -19.24147 -19.23530 -19.20811 -19.18578
 Alpha  occ. eigenvalues --  -19.18537 -19.16899 -19.13533 -19.11842 -19.04513
 Alpha  occ. eigenvalues --  -19.03477 -14.61092 -14.60134 -14.50546 -14.46441
 Alpha  occ. eigenvalues --  -14.45466 -14.44956 -14.41394 -14.37482 -14.33435
 Alpha  occ. eigenvalues --  -10.44726 -10.42015 -10.40028 -10.37586 -10.37291
 Alpha  occ. eigenvalues --  -10.36892 -10.35187 -10.34639 -10.34034 -10.32284
 Alpha  occ. eigenvalues --  -10.30860 -10.30065 -10.29685 -10.29678 -10.29132
 Alpha  occ. eigenvalues --  -10.28671 -10.28338 -10.27820 -10.26649 -10.26525
 Alpha  occ. eigenvalues --  -10.26142 -10.26043 -10.25861 -10.25753 -10.25670
 Alpha  occ. eigenvalues --  -10.25643 -10.25207 -10.25003 -10.24926 -10.23616
 Alpha  occ. eigenvalues --  -10.23097 -10.22696 -10.22404 -10.21149 -10.20134
 Alpha  occ. eigenvalues --  -10.19731 -10.19253 -10.18546 -10.18186  -1.20784
 Alpha  occ. eigenvalues --   -1.15373  -1.15180  -1.14954  -1.14116  -1.12443
 Alpha  occ. eigenvalues --   -1.08853  -1.07403  -1.06152  -1.06077  -1.05397
 Alpha  occ. eigenvalues --   -1.05298  -1.03373  -1.03104  -1.01130  -0.97645
 Alpha  occ. eigenvalues --   -0.97513  -0.94336  -0.94165  -0.91236  -0.91172
 Alpha  occ. eigenvalues --   -0.90297  -0.90292  -0.88638  -0.88151  -0.87155
 Alpha  occ. eigenvalues --   -0.85488  -0.82766  -0.82268  -0.81605  -0.81068
 Alpha  occ. eigenvalues --   -0.80685  -0.80525  -0.79662  -0.78188  -0.77153
 Alpha  occ. eigenvalues --   -0.75818  -0.74928  -0.74844  -0.74664  -0.73479
 Alpha  occ. eigenvalues --   -0.73226  -0.73201  -0.71984  -0.71510  -0.70894
 Alpha  occ. eigenvalues --   -0.69460  -0.69378  -0.69258  -0.67529  -0.67097
 Alpha  occ. eigenvalues --   -0.66880  -0.66579  -0.64889  -0.64737  -0.64305
 Alpha  occ. eigenvalues --   -0.63855  -0.63536  -0.63304  -0.63103  -0.61585
 Alpha  occ. eigenvalues --   -0.61047  -0.60839  -0.60589  -0.60486  -0.59143
 Alpha  occ. eigenvalues --   -0.59001  -0.58187  -0.57950  -0.57822  -0.57215
 Alpha  occ. eigenvalues --   -0.57029  -0.56620  -0.56089  -0.55623  -0.55453
 Alpha  occ. eigenvalues --   -0.55140  -0.54872  -0.54437  -0.54250  -0.53906
 Alpha  occ. eigenvalues --   -0.53590  -0.52839  -0.52713  -0.52503  -0.52232
 Alpha  occ. eigenvalues --   -0.51799  -0.51312  -0.50989  -0.50954  -0.50557
 Alpha  occ. eigenvalues --   -0.50206  -0.50023  -0.49979  -0.49133  -0.48819
 Alpha  occ. eigenvalues --   -0.48746  -0.48226  -0.48068  -0.47842  -0.47691
 Alpha  occ. eigenvalues --   -0.47272  -0.46755  -0.46517  -0.46258  -0.46032
 Alpha  occ. eigenvalues --   -0.45728  -0.45436  -0.45201  -0.45055  -0.44722
 Alpha  occ. eigenvalues --   -0.44482  -0.44044  -0.43878  -0.43593  -0.43120
 Alpha  occ. eigenvalues --   -0.42984  -0.42547  -0.42411  -0.42352  -0.42164
 Alpha  occ. eigenvalues --   -0.41839  -0.41218  -0.41047  -0.40862  -0.40767
 Alpha  occ. eigenvalues --   -0.40661  -0.40455  -0.40323  -0.40224  -0.40071
 Alpha  occ. eigenvalues --   -0.39880  -0.39439  -0.39239  -0.39090  -0.38347
 Alpha  occ. eigenvalues --   -0.38091  -0.37511  -0.36813  -0.36627  -0.36393
 Alpha  occ. eigenvalues --   -0.36077  -0.35281  -0.35191  -0.34748  -0.34744
 Alpha  occ. eigenvalues --   -0.34303  -0.33829  -0.33790  -0.33658  -0.32389
 Alpha  occ. eigenvalues --   -0.31790  -0.31536  -0.31494  -0.30222  -0.29500
 Alpha  occ. eigenvalues --   -0.27940  -0.27317  -0.26615  -0.25758  -0.25162
 Alpha  occ. eigenvalues --   -0.19660  -0.19365  -0.17745
 Alpha virt. eigenvalues --   -0.13499  -0.11810  -0.11533  -0.09707  -0.08479
 Alpha virt. eigenvalues --   -0.07074  -0.06649  -0.05302  -0.05120  -0.04879
 Alpha virt. eigenvalues --   -0.04551  -0.03484  -0.03111  -0.02266  -0.02056

 Mulliken charges:
               1
     1  N   -0.561346
     2  H    0.353549
     3  H    0.348551
     4  H    0.381426
     5  C   -0.090542
     6  H    0.191199
     7  C    0.646861
     8  C   -0.344275
     9  H    0.176588
    10  H    0.157643
    11  H    0.154075
    12  O   -0.543013
    13  N   -0.526167
    14  H    0.307379
    15  C   -0.019956
    16  H    0.168491
    17  C    0.612690
    18  C   -0.248576
    19  H    0.140437
    20  H    0.126283
    21  O   -0.562940
    22  C   -0.040433
    23  C    0.048360
    24  H    0.149866
    25  C    0.079579
    26  C    0.280078
    27  C   -0.160829
    28  H    0.087774
    29  N   -0.605493
    30  H    0.280488
    31  C   -0.103820
    32  H    0.099392
    33  C   -0.091048
    34  H    0.100977
    35  C   -0.095189
    36  H    0.088197
    37  N   -0.517477
    38  H    0.296146
    39  C   -0.024131
    40  H    0.136181
    41  C    0.623603
    42  C   -0.191517
    43  H    0.116640
    44  H    0.147435
    45  O   -0.574022
    46  C   -0.287346
    47  H    0.167864
    48  H    0.132486
    49  C    0.604763
    50  O   -0.474429
    51  O   -0.484127
    52  N   -0.509555
    53  H    0.291494
    54  C    0.007551
    55  H    0.114115
    56  C    0.619823
    57  C   -0.084002
    58  H    0.121726
    59  O   -0.533676
    60  C   -0.331324
    61  H    0.102355
    62  H    0.109276
    63  H    0.155675
    64  C   -0.338394
    65  H    0.099485
    66  H    0.094238
    67  H    0.105596
    68  N   -0.520749
    69  H    0.271070
    70  C   -0.012230
    71  H    0.124268
    72  C    0.624134
    73  C    0.146235
    74  H    0.107891
    75  O   -0.550826
    76  C   -0.324260
    77  H    0.132185
    78  H    0.105576
    79  H    0.113132
    80  O   -0.572460
    81  H    0.328024
    82  N   -0.510843
    83  H    0.284283
    84  C   -0.025334
    85  H    0.135210
    86  C    0.577603
    87  C   -0.060637
    88  H    0.140823
    89  O   -0.590029
    90  C   -0.316327
    91  H    0.083061
    92  H    0.118787
    93  H    0.093097
    94  C   -0.340437
    95  H    0.109805
    96  H    0.094894
    97  H    0.126781
    98  N   -0.513081
    99  H    0.287851
   100  C   -0.050762
   101  H    0.095931
   102  C    0.577111
   103  C   -0.161328
   104  H    0.122772
   105  H    0.084477
   106  O   -0.589382
   107  C   -0.179501
   108  H    0.107589
   109  H    0.131340
   110  C   -0.211365
   111  H    0.118602
   112  H    0.120824
   113  C   -0.131120
   114  H    0.186210
   115  H    0.183523
   116  N   -0.544694
   117  H    0.357137
   118  H    0.361125
   119  H    0.361401
   120  O   -0.616575
   121  H    0.326473
 Sum of Mulliken charges =   1.00000

 Dipole moment (field-independent basis, Debye):
    X=              3.0675    Y=            -10.9081    Z=            -28.3251  Tot=             30.5075
 Quadrupole moment (field-independent basis, Debye-Ang):
   XX=            286.6806   YY=           -244.5989   ZZ=           -416.4919
   XY=            193.1039   XZ=             70.2330   YZ=             46.7454

 Normal termination of Gaussian 16 at Sun Sep  4 01:01:06 2022.
