 Gaussian 16, Revision C.01,
 Gaussian 16:  ES64L-G16RevC.01  3-Jul-2019

 ----------------------------------------------------------------------
 # B3LYP/6-31G** empiricaldispersion=gd3bj guess=read geom=check nosymm
  integral(ultrafinegrid)
 ----------------------------------------------------------------------

 ------------------------------------------------------
 Candidate Structure: Conf:883 Charge calc in gas phase
 ------------------------------------------------------
 Structure from the checkpoint file:  "conf-883.chk"
 Charge =  1 Multiplicity = 1

                          Input orientation:
 ---------------------------------------------------------------------
 Center     Atomic      Atomic             Coordinates (Angstroms)
 Number     Number       Type             X           Y           Z
 ---------------------------------------------------------------------
      1          7           0       -1.676046    3.111619   -7.287754
      2          1           0       -1.588104    3.567707   -8.196507
      3          1           0       -1.247065    2.165739   -7.328938
      4          1           0       -1.149269    3.617876   -6.538118
      5          6           0       -3.096911    3.088550   -6.768459
      6          1           0       -3.583797    3.989593   -7.153181
      7          6           0       -2.895238    3.218110   -5.238026
      8          6           0       -3.833991    1.825869   -7.203866
      9          1           0       -4.900212    1.925164   -6.987176
     10          1           0       -3.745156    1.671900   -8.282425
     11          1           0       -3.463852    0.947079   -6.669625
     12          8           0       -1.764600    3.519630   -4.837768
     13          7           0       -3.934358    2.954468   -4.430467
     14          1           0       -4.734913    2.493205   -4.844388
     15          6           0       -3.625112    2.503063   -3.063762
     16          1           0       -2.856004    3.169685   -2.677461
     17          6           0       -3.057702    1.080464   -3.221606
     18          6           0       -4.854166    2.522597   -2.140544
     19          1           0       -5.154509    3.565931   -1.989841
     20          1           0       -5.684266    2.008796   -2.638653
     21          8           0       -3.563165    0.287335   -4.018932
     22          6           0       -4.546969    1.825554   -0.846600
     23          6           0       -5.183580    0.705936   -0.368264
     24          1           0       -6.038467    0.180190   -0.768621
     25          6           0       -3.457833    2.103670    0.063032
     26          6           0       -3.496991    1.101329    1.072512
     27          6           0       -2.432023    3.067985    0.110560
     28          1           0       -2.383586    3.870078   -0.619959
     29          7           0       -4.559933    0.266917    0.781693
     30          1           0       -4.890744   -0.480640    1.369814
     31          6           0       -1.551607    2.004455    2.115408
     32          1           0       -0.794831    1.988917    2.891510
     33          6           0       -2.563704    1.051469    2.113183
     34          1           0       -2.630907    0.299302    2.893812
     35          6           0       -1.482020    2.999533    1.121021
     36          1           0       -0.667537    3.713548    1.153196
     37          7           0       -1.947674    0.833955   -2.505373
     38          1           0       -1.622984    1.501327   -1.811441
     39          6           0       -1.267760   -0.452800   -2.497349
     40          1           0       -2.016142   -1.237245   -2.642173
     41          6           0       -0.624715   -0.506397   -1.106197
     42          6           0       -0.178075   -0.543826   -3.594752
     43          1           0        0.701905    0.011321   -3.265055
     44          1           0        0.134223   -1.585794   -3.709742
     45          8           0       -0.119633    0.530170   -0.654779
     46          6           0       -0.645700    0.028853   -4.933013
     47          1           0       -1.458409   -0.560562   -5.368314
     48          1           0       -1.046314    1.035276   -4.782727
     49          6           0        0.463355    0.162386   -5.934437
     50          8           0        1.616523   -0.154687   -5.808317
     51          8           0        0.015577    0.752498   -7.110036
     52          7           0       -0.661266   -1.647305   -0.406550
     53          1           0       -1.083770   -2.472440   -0.806246
     54          6           0       -0.271814   -1.661046    1.011168
     55          1           0       -0.772781   -0.806199    1.476150
     56          6           0        1.254026   -1.480203    1.145379
     57          6           0       -0.743685   -2.954746    1.692289
     58          1           0       -0.256031   -3.790330    1.174283
     59          8           0        2.028389   -2.408933    0.878583
     60          6           0       -0.290179   -2.970831    3.157452
     61          1           0       -0.688006   -2.106058    3.700891
     62          1           0       -0.653837   -3.873150    3.655567
     63          1           0        0.798708   -2.960851    3.239166
     64          6           0       -2.268698   -3.103848    1.601342
     65          1           0       -2.764873   -2.272241    2.114759
     66          1           0       -2.642320   -3.123877    0.572368
     67          1           0       -2.587745   -4.032382    2.081708
     68          7           0        1.604678   -0.259993    1.578855
     69          1           0        0.914223    0.487202    1.490486
     70          6           0        2.927401    0.272121    1.857834
     71          1           0        3.260932   -0.076904    2.843369
     72          6           0        2.709394    1.799835    1.929829
     73          6           0        4.065257   -0.095224    0.815774
     74          1           0        4.575758    0.834133    0.548537
     75          8           0        1.629555    2.290003    1.588658
     76          6           0        5.057533   -1.084943    1.416672
     77          1           0        5.529183   -0.672660    2.315219
     78          1           0        4.547859   -2.013737    1.689294
     79          1           0        5.841937   -1.310609    0.690701
     80          8           0        3.540762   -0.585862   -0.412759
     81          1           0        3.140409   -1.455290   -0.206400
     82          7           0        3.748339    2.553160    2.346787
     83          1           0        4.642702    2.094082    2.452447
     84          6           0        3.798152    3.972624    1.968058
     85          1           0        3.013141    4.506790    2.511493
     86          6           0        3.512357    4.048443    0.457825
     87          6           0        5.178021    4.569098    2.326348
     88          1           0        5.917181    4.047782    1.700462
     89          8           0        3.938363    3.104989   -0.265699
     90          6           0        5.234581    6.069057    2.007717
     91          1           0        4.532467    6.622017    2.642016
     92          1           0        4.988913    6.316158    0.973226
     93          1           0        6.237042    6.451122    2.219107
     94          6           0        5.518096    4.333756    3.805211
     95          1           0        4.774443    4.814070    4.450317
     96          1           0        6.492774    4.771667    4.037029
     97          1           0        5.559128    3.275157    4.079537
     98          7           0        2.822431    5.076544    0.002984
     99          1           0        2.811653    5.986141    0.519040
    100          6           0        2.725552    5.453158   -1.406121
    101          1           0        3.440444    4.872949   -1.991989
    102          6           0        3.126454    6.990767   -1.452213
    103          6           0        1.297617    5.349886   -1.954533
    104          1           0        1.327715    5.809364   -2.948009
    105          1           0        0.675359    6.007147   -1.334167
    106          8           0        3.215671    7.471007   -2.588289
    107          6           0        0.610255    3.980245   -2.013150
    108          1           0        0.686215    3.479539   -1.040032
    109          1           0       -0.462070    4.161721   -2.160764
    110          6           0        1.033282    3.032489   -3.151566
    111          1           0        0.226185    2.308063   -3.303753
    112          1           0        1.112522    3.602241   -4.084531
    113          6           0        2.335432    2.252015   -2.967241
    114          1           0        3.210964    2.900676   -3.017867
    115          1           0        2.435311    1.483934   -3.739028
    116          7           0        2.374063    1.598861   -1.623794
    117          1           0        2.899631    0.711487   -1.564364
    118          1           0        2.906571    2.263221   -0.969691
    119          1           0        1.439061    1.397596   -1.244762
    120          8           0        3.243945    7.508088   -0.302584
    121          1           0        0.783845    0.752204   -7.709227
 ---------------------------------------------------------------------

 SCF Done:  E(RB3LYP) =  -2844.03757564     A.U. after    3 cycles

 Alpha  occ. eigenvalues --  -19.33941 -19.28794 -19.27457 -19.24112 -19.23411
 Alpha  occ. eigenvalues --  -19.23211 -19.21111 -19.20970 -19.18449 -19.08798
 Alpha  occ. eigenvalues --  -19.07644 -14.60297 -14.51093 -14.48567 -14.47595
 Alpha  occ. eigenvalues --  -14.47588 -14.46995 -14.44741 -14.44121 -14.40127
 Alpha  occ. eigenvalues --  -10.45344 -10.45309 -10.42280 -10.41151 -10.40380
 Alpha  occ. eigenvalues --  -10.38175 -10.37575 -10.35757 -10.35575 -10.34685
 Alpha  occ. eigenvalues --  -10.34556 -10.33042 -10.32597 -10.32488 -10.32309
 Alpha  occ. eigenvalues --  -10.31608 -10.31556 -10.31211 -10.30774 -10.30673
 Alpha  occ. eigenvalues --  -10.29767 -10.29115 -10.27802 -10.27528 -10.27470
 Alpha  occ. eigenvalues --  -10.27445 -10.27351 -10.27103 -10.26558 -10.26548
 Alpha  occ. eigenvalues --  -10.26041 -10.25952 -10.25643 -10.25278 -10.25050
 Alpha  occ. eigenvalues --  -10.24210 -10.23298 -10.22726 -10.21150  -1.23758
 Alpha  occ. eigenvalues --   -1.21163  -1.16591  -1.15402  -1.15148  -1.14499
 Alpha  occ. eigenvalues --   -1.13576  -1.12644  -1.10241  -1.09616  -1.07807
 Alpha  occ. eigenvalues --   -1.06849  -1.04736  -1.04456  -1.03839  -1.01953
 Alpha  occ. eigenvalues --   -1.01501  -1.00640  -0.96930  -0.94713  -0.93122
 Alpha  occ. eigenvalues --   -0.93015  -0.92409  -0.91001  -0.90696  -0.87549
 Alpha  occ. eigenvalues --   -0.87183  -0.87037  -0.85631  -0.85307  -0.82567
 Alpha  occ. eigenvalues --   -0.81979  -0.81669  -0.81448  -0.80830  -0.79376
 Alpha  occ. eigenvalues --   -0.78345  -0.77706  -0.77356  -0.76314  -0.75413
 Alpha  occ. eigenvalues --   -0.74901  -0.74048  -0.73250  -0.72152  -0.71707
 Alpha  occ. eigenvalues --   -0.70904  -0.70809  -0.70241  -0.69853  -0.69669
 Alpha  occ. eigenvalues --   -0.68416  -0.67945  -0.67613  -0.66698  -0.66024
 Alpha  occ. eigenvalues --   -0.65695  -0.65199  -0.65016  -0.64460  -0.63562
 Alpha  occ. eigenvalues --   -0.63337  -0.62925  -0.62628  -0.62261  -0.61897
 Alpha  occ. eigenvalues --   -0.61657  -0.61608  -0.61336  -0.60589  -0.60323
 Alpha  occ. eigenvalues --   -0.59728  -0.59417  -0.58991  -0.58087  -0.57929
 Alpha  occ. eigenvalues --   -0.57165  -0.57055  -0.56713  -0.56603  -0.55957
 Alpha  occ. eigenvalues --   -0.55811  -0.55287  -0.55075  -0.54811  -0.54480
 Alpha  occ. eigenvalues --   -0.54267  -0.53910  -0.53579  -0.53558  -0.53160
 Alpha  occ. eigenvalues --   -0.52978  -0.52799  -0.52585  -0.52301  -0.51971
 Alpha  occ. eigenvalues --   -0.51627  -0.51555  -0.51285  -0.51079  -0.50804
 Alpha  occ. eigenvalues --   -0.50703  -0.50223  -0.49992  -0.49850  -0.49828
 Alpha  occ. eigenvalues --   -0.49408  -0.49038  -0.48743  -0.48469  -0.48164
 Alpha  occ. eigenvalues --   -0.48041  -0.47464  -0.47303  -0.47222  -0.46990
 Alpha  occ. eigenvalues --   -0.46783  -0.46622  -0.46419  -0.46087  -0.45747
 Alpha  occ. eigenvalues --   -0.45332  -0.44611  -0.44457  -0.44235  -0.43973
 Alpha  occ. eigenvalues --   -0.43490  -0.43439  -0.43135  -0.43071  -0.43026
 Alpha  occ. eigenvalues --   -0.42734  -0.42422  -0.42196  -0.42097  -0.41917
 Alpha  occ. eigenvalues --   -0.41792  -0.41327  -0.40858  -0.40038  -0.39605
 Alpha  occ. eigenvalues --   -0.39561  -0.39010  -0.38638  -0.38624  -0.38453
 Alpha  occ. eigenvalues --   -0.38322  -0.37639  -0.37365  -0.37024  -0.36818
 Alpha  occ. eigenvalues --   -0.36034  -0.35918  -0.35095  -0.34435  -0.34370
 Alpha  occ. eigenvalues --   -0.33595  -0.32849  -0.31616  -0.30784  -0.29401
 Alpha  occ. eigenvalues --   -0.23861  -0.23640  -0.21726
 Alpha virt. eigenvalues --   -0.15045  -0.12353  -0.11002  -0.10688  -0.10189
 Alpha virt. eigenvalues --   -0.09283  -0.08329  -0.07091  -0.06524  -0.06068
 Alpha virt. eigenvalues --   -0.05845  -0.04518  -0.04255  -0.03826  -0.03433

 Mulliken charges:
               1
     1  N   -0.564627
     2  H    0.347088
     3  H    0.368927
     4  H    0.363935
     5  C   -0.093495
     6  H    0.197896
     7  C    0.647906
     8  C   -0.354152
     9  H    0.160988
    10  H    0.149425
    11  H    0.176106
    12  O   -0.525694
    13  N   -0.499913
    14  H    0.288251
    15  C   -0.038749
    16  H    0.158572
    17  C    0.612511
    18  C   -0.240752
    19  H    0.144418
    20  H    0.112552
    21  O   -0.564696
    22  C    0.009820
    23  C    0.067548
    24  H    0.123206
    25  C    0.058907
    26  C    0.288499
    27  C   -0.195707
    28  H    0.091807
    29  N   -0.614852
    30  H    0.271628
    31  C   -0.107569
    32  H    0.104809
    33  C   -0.118944
    34  H    0.094819
    35  C   -0.068321
    36  H    0.123826
    37  N   -0.526074
    38  H    0.319642
    39  C   -0.000822
    40  H    0.138045
    41  C    0.613534
    42  C   -0.173466
    43  H    0.126859
    44  H    0.139225
    45  O   -0.556070
    46  C   -0.280498
    47  H    0.171386
    48  H    0.138115
    49  C    0.593614
    50  O   -0.422740
    51  O   -0.541083
    52  N   -0.529130
    53  H    0.278470
    54  C    0.023479
    55  H    0.132700
    56  C    0.606049
    57  C   -0.102726
    58  H    0.126093
    59  O   -0.573613
    60  C   -0.329355
    61  H    0.107367
    62  H    0.123640
    63  H    0.135505
    64  C   -0.319500
    65  H    0.101386
    66  H    0.085600
    67  H    0.132462
    68  N   -0.545200
    69  H    0.326940
    70  C    0.008103
    71  H    0.143866
    72  C    0.583239
    73  C    0.147502
    74  H    0.138028
    75  O   -0.547835
    76  C   -0.344842
    77  H    0.103447
    78  H    0.138875
    79  H    0.132074
    80  O   -0.585535
    81  H    0.341617
    82  N   -0.521169
    83  H    0.271366
    84  C    0.037399
    85  H    0.134584
    86  C    0.598157
    87  C   -0.104728
    88  H    0.102285
    89  O   -0.633401
    90  C   -0.330216
    91  H    0.112573
    92  H    0.155015
    93  H    0.111001
    94  C   -0.309366
    95  H    0.116463
    96  H    0.123049
    97  H    0.085727
    98  N   -0.474997
    99  H    0.297628
   100  C   -0.081957
   101  H    0.103976
   102  C    0.595969
   103  C   -0.162094
   104  H    0.120260
   105  H    0.102363
   106  O   -0.573653
   107  C   -0.217216
   108  H    0.115282
   109  H    0.086700
   110  C   -0.202592
   111  H    0.082681
   112  H    0.105146
   113  C   -0.096521
   114  H    0.165564
   115  H    0.130961
   116  N   -0.649528
   117  H    0.340396
   118  H    0.412862
   119  H    0.355190
   120  O   -0.605232
   121  H    0.345726
 Sum of Mulliken charges =   1.00000

 Dipole moment (field-independent basis, Debye):
    X=            -15.9480    Y=             -6.5553    Z=            -21.3116  Tot=             27.4134
 Quadrupole moment (field-independent basis, Debye-Ang):
   XX=           -289.2591   YY=           -442.9715   ZZ=           -116.9365
   XY=            -64.5809   XZ=             87.6919   YZ=            -49.7450

 Normal termination of Gaussian 16 at Sun Sep  4 01:08:34 2022.
