 Gaussian 16, Revision C.01,
 Gaussian 16:  ES64L-G16RevC.01  3-Jul-2019

 ----------------------------------------------------------------------
 # B3LYP/6-31G** empiricaldispersion=gd3bj guess=read geom=check nosymm
  integral(ultrafinegrid)
 ----------------------------------------------------------------------

 ------------------------------------------------------
 Candidate Structure: Conf:962 Charge calc in gas phase
 ------------------------------------------------------
 Structure from the checkpoint file:  "conf-962.chk"
 Charge =  1 Multiplicity = 1

                          Input orientation:
 ---------------------------------------------------------------------
 Center     Atomic      Atomic             Coordinates (Angstroms)
 Number     Number       Type             X           Y           Z
 ---------------------------------------------------------------------
      1          7           0       -2.694231    0.846687    0.946567
      2          1           0       -2.399044    1.601189    1.569829
      3          1           0       -2.015405    0.034406    0.986813
      4          1           0       -3.605715    0.457707    1.214866
      5          6           0       -2.809841    1.286584   -0.494337
      6          1           0       -3.587195    2.057013   -0.521463
      7          6           0       -3.364438    0.020929   -1.181735
      8          6           0       -1.480491    1.831174   -0.994565
      9          1           0       -1.568709    2.163146   -2.032100
     10          1           0       -1.189402    2.708754   -0.412283
     11          1           0       -0.679084    1.089877   -0.938142
     12          8           0       -4.197101   -0.658751   -0.566148
     13          7           0       -2.868836   -0.253470   -2.387537
     14          1           0       -2.129535    0.328508   -2.766516
     15          6           0       -3.047700   -1.541608   -3.064243
     16          1           0       -4.087249   -1.844163   -2.920264
     17          6           0       -2.094742   -2.506123   -2.312951
     18          6           0       -2.701404   -1.443812   -4.583892
     19          1           0       -1.894344   -2.155917   -4.774971
     20          1           0       -3.573024   -1.771600   -5.154864
     21          8           0       -0.933213   -2.652848   -2.666948
     22          6           0       -2.286837   -0.077603   -5.039152
     23          6           0       -3.021145    0.804086   -5.793345
     24          1           0       -3.985498    0.669229   -6.261946
     25          6           0       -1.073071    0.615542   -4.662727
     26          6           0       -1.151921    1.925957   -5.214026
     27          6           0        0.049813    0.261807   -3.887933
     28          1           0        0.127517   -0.736538   -3.469954
     29          7           0       -2.345962    2.005027   -5.903725
     30          1           0       -2.643966    2.787483   -6.463309
     31          6           0        0.942266    2.504868   -4.231218
     32          1           0        1.747648    3.207215   -4.050325
     33          6           0       -0.150042    2.879661   -5.006594
     34          1           0       -0.219705    3.874025   -5.437021
     35          6           0        1.041098    1.211658   -3.678644
     36          1           0        1.908470    0.967558   -3.078471
     37          7           0       -2.669060   -3.102161   -1.224347
     38          1           0       -3.563104   -2.700720   -0.959480
     39          6           0       -1.927658   -3.680171   -0.111931
     40          1           0       -2.634146   -4.319005    0.427486
     41          6           0       -1.510304   -2.565527    0.869370
     42          6           0       -0.743249   -4.562515   -0.581597
     43          1           0       -1.142925   -5.239789   -1.341313
     44          1           0        0.008744   -3.942739   -1.064884
     45          8           0       -1.388440   -1.382910    0.495021
     46          6           0       -0.035363   -5.387057    0.515652
     47          1           0        0.701483   -6.031042    0.033475
     48          1           0        0.497815   -4.727585    1.204719
     49          6           0       -0.983515   -6.223523    1.333903
     50          8           0       -1.708049   -5.775903    2.216959
     51          8           0       -1.000910   -7.511297    0.986752
     52          7           0       -1.267718   -2.959115    2.128164
     53          1           0       -1.445819   -3.942248    2.355751
     54          6           0       -0.888801   -2.042366    3.200925
     55          1           0       -1.655785   -1.262796    3.288084
     56          6           0        0.415225   -1.275543    2.932907
     57          6           0       -0.803680   -2.775465    4.559733
     58          1           0       -0.507912   -1.992142    5.265372
     59          8           0        0.698908   -0.307841    3.643438
     60          6           0       -2.169217   -3.328049    4.984991
     61          1           0       -2.502419   -4.142778    4.334107
     62          1           0       -2.110513   -3.729634    6.000137
     63          1           0       -2.937201   -2.547651    4.978098
     64          6           0        0.276787   -3.865402    4.569307
     65          1           0        0.011709   -4.702418    3.915551
     66          1           0        1.250416   -3.476765    4.257903
     67          1           0        0.386452   -4.269529    5.578970
     68          7           0        1.195821   -1.735374    1.936985
     69          1           0        0.816141   -2.405128    1.282313
     70          6           0        2.327285   -1.010361    1.379696
     71          1           0        3.054941   -0.803990    2.170692
     72          6           0        1.874132    0.323885    0.747346
     73          6           0        2.941727   -1.920175    0.291150
     74          1           0        3.650772   -1.317262   -0.287073
     75          8           0        1.659255    0.421193   -0.471593
     76          6           0        3.650662   -3.130985    0.874817
     77          1           0        4.509072   -2.822824    1.478181
     78          1           0        2.978183   -3.714789    1.510327
     79          1           0        4.004005   -3.773503    0.065498
     80          8           0        1.891985   -2.390532   -0.555333
     81          1           0        1.529265   -1.598487   -0.991420
     82          7           0        1.757122    1.348306    1.609621
     83          1           0        1.856298    1.136600    2.597161
     84          6           0        1.554796    2.739965    1.200117
     85          1           0        0.944300    2.729367    0.293298
     86          6           0        2.961924    3.286448    0.871292
     87          6           0        0.874399    3.554963    2.306877
     88          1           0        1.553067    3.539398    3.168054
     89          8           0        3.661429    3.826033    1.722856
     90          6           0        0.704946    5.013432    1.866027
     91          1           0        0.091152    5.081108    0.958820
     92          1           0        1.671860    5.477516    1.666882
     93          1           0        0.206823    5.593502    2.647854
     94          6           0       -0.473585    2.954124    2.727685
     95          1           0       -1.203091    3.096275    1.915418
     96          1           0       -0.868263    3.481215    3.600438
     97          1           0       -0.395167    1.891976    2.980243
     98          7           0        3.364426    3.031718   -0.393076
     99          1           0        2.770436    2.514857   -1.031877
    100          6           0        4.736604    3.238330   -0.818932
    101          1           0        5.057791    4.245445   -0.540260
    102          6           0        4.779533    3.040952   -2.321834
    103          6           0        5.707316    2.203897   -0.176210
    104          1           0        5.430242    2.146096    0.878698
    105          1           0        6.718625    2.617015   -0.211047
    106          8           0        5.969342    3.264672   -2.848603
    107          6           0        5.691211    0.804880   -0.844287
    108          1           0        5.704147    0.042080   -0.058779
    109          1           0        4.737190    0.662679   -1.367759
    110          6           0        6.888730    0.542346   -1.802779
    111          1           0        7.458296    1.464974   -1.942387
    112          1           0        7.572820   -0.165903   -1.322255
    113          6           0        6.569952   -0.023817   -3.193879
    114          1           0        5.935528   -0.917118   -3.104763
    115          1           0        7.511747   -0.350718   -3.644340
    116          7           0        5.967400    0.970964   -4.119188
    117          1           0        6.198591    0.740814   -5.081208
    118          1           0        4.950918    0.967815   -4.052507
    119          1           0        6.088021    2.557087   -3.584717
    120          8           0        3.832680    2.554465   -2.931474
    121          1           0       -1.654776   -7.963943    1.549209
 ---------------------------------------------------------------------

 SCF Done:  E(RB3LYP) =  -2844.09933017     A.U. after    1 cycles

 Alpha  occ. eigenvalues --  -19.30513 -19.25407 -19.24900 -19.23771 -19.23390
 Alpha  occ. eigenvalues --  -19.23307 -19.21948 -19.21770 -19.21428 -19.20655
 Alpha  occ. eigenvalues --  -19.18322 -14.55870 -14.47536 -14.47375 -14.45861
 Alpha  occ. eigenvalues --  -14.45654 -14.45464 -14.45462 -14.42480 -14.40731
 Alpha  occ. eigenvalues --  -10.43228 -10.41016 -10.40967 -10.38817 -10.38492
 Alpha  occ. eigenvalues --  -10.38439 -10.38293 -10.37876 -10.35508 -10.34458
 Alpha  occ. eigenvalues --  -10.33828 -10.33352 -10.33021 -10.32768 -10.31482
 Alpha  occ. eigenvalues --  -10.30163 -10.30054 -10.29905 -10.29565 -10.29325
 Alpha  occ. eigenvalues --  -10.29234 -10.29020 -10.28613 -10.27897 -10.27750
 Alpha  occ. eigenvalues --  -10.27378 -10.26198 -10.26175 -10.26145 -10.26044
 Alpha  occ. eigenvalues --  -10.25943 -10.25779 -10.25506 -10.25389 -10.25155
 Alpha  occ. eigenvalues --  -10.24961 -10.24946 -10.24896 -10.24399  -1.21762
 Alpha  occ. eigenvalues --   -1.16693  -1.16047  -1.15827  -1.14095  -1.13309
 Alpha  occ. eigenvalues --   -1.13060  -1.12524  -1.10711  -1.10573  -1.10269
 Alpha  occ. eigenvalues --   -1.07241  -1.05352  -1.04669  -1.04368  -1.02620
 Alpha  occ. eigenvalues --   -1.02408  -1.01787  -0.99303  -0.96456  -0.91615
 Alpha  occ. eigenvalues --   -0.90945  -0.90507  -0.89783  -0.89493  -0.87976
 Alpha  occ. eigenvalues --   -0.86905  -0.86677  -0.85184  -0.83407  -0.82747
 Alpha  occ. eigenvalues --   -0.81583  -0.80467  -0.80328  -0.79382  -0.78418
 Alpha  occ. eigenvalues --   -0.78114  -0.77288  -0.76881  -0.76217  -0.76112
 Alpha  occ. eigenvalues --   -0.74550  -0.71747  -0.71172  -0.70551  -0.70326
 Alpha  occ. eigenvalues --   -0.70148  -0.69686  -0.69214  -0.68977  -0.68511
 Alpha  occ. eigenvalues --   -0.68246  -0.67721  -0.66603  -0.66027  -0.65757
 Alpha  occ. eigenvalues --   -0.65665  -0.65354  -0.64388  -0.63283  -0.63019
 Alpha  occ. eigenvalues --   -0.62807  -0.62493  -0.61629  -0.61285  -0.60760
 Alpha  occ. eigenvalues --   -0.60443  -0.60073  -0.59738  -0.59255  -0.58824
 Alpha  occ. eigenvalues --   -0.58191  -0.58126  -0.57886  -0.57445  -0.56733
 Alpha  occ. eigenvalues --   -0.56660  -0.56199  -0.55637  -0.55521  -0.55124
 Alpha  occ. eigenvalues --   -0.54670  -0.54363  -0.53987  -0.53790  -0.53552
 Alpha  occ. eigenvalues --   -0.53481  -0.53194  -0.53129  -0.53079  -0.52911
 Alpha  occ. eigenvalues --   -0.52276  -0.51885  -0.51759  -0.51413  -0.51321
 Alpha  occ. eigenvalues --   -0.51071  -0.50940  -0.50783  -0.50464  -0.50167
 Alpha  occ. eigenvalues --   -0.49929  -0.49829  -0.49533  -0.49359  -0.49249
 Alpha  occ. eigenvalues --   -0.49080  -0.48786  -0.48447  -0.48046  -0.47733
 Alpha  occ. eigenvalues --   -0.47641  -0.47367  -0.47222  -0.47148  -0.46970
 Alpha  occ. eigenvalues --   -0.46869  -0.46692  -0.46571  -0.46389  -0.46260
 Alpha  occ. eigenvalues --   -0.45750  -0.45590  -0.45404  -0.45275  -0.45113
 Alpha  occ. eigenvalues --   -0.44355  -0.43970  -0.43647  -0.43125  -0.43078
 Alpha  occ. eigenvalues --   -0.42939  -0.42652  -0.42540  -0.42261  -0.42049
 Alpha  occ. eigenvalues --   -0.42039  -0.41730  -0.41222  -0.40359  -0.40273
 Alpha  occ. eigenvalues --   -0.40097  -0.39781  -0.39589  -0.39210  -0.39082
 Alpha  occ. eigenvalues --   -0.38565  -0.38494  -0.37900  -0.37801  -0.37209
 Alpha  occ. eigenvalues --   -0.36495  -0.36197  -0.35679  -0.34938  -0.34800
 Alpha  occ. eigenvalues --   -0.34396  -0.33814  -0.33622  -0.33503  -0.32089
 Alpha  occ. eigenvalues --   -0.31286  -0.29532  -0.27733
 Alpha virt. eigenvalues --   -0.11128  -0.10791  -0.10432  -0.09066  -0.08460
 Alpha virt. eigenvalues --   -0.07933  -0.07308  -0.06460  -0.06342  -0.04797
 Alpha virt. eigenvalues --   -0.04375  -0.03410  -0.02616  -0.01631  -0.01402

 Mulliken charges:
               1
     1  N   -0.563115
     2  H    0.331162
     3  H    0.386492
     4  H    0.340034
     5  C   -0.090692
     6  H    0.178072
     7  C    0.655458
     8  C   -0.375086
     9  H    0.166999
    10  H    0.128521
    11  H    0.189367
    12  O   -0.570692
    13  N   -0.516089
    14  H    0.303704
    15  C   -0.025188
    16  H    0.141266
    17  C    0.605450
    18  C   -0.261015
    19  H    0.156371
    20  H    0.120394
    21  O   -0.503624
    22  C    0.013541
    23  C    0.066757
    24  H    0.120279
    25  C   -0.018447
    26  C    0.296907
    27  C   -0.183048
    28  H    0.124328
    29  N   -0.611191
    30  H    0.270500
    31  C   -0.116475
    32  H    0.110511
    33  C   -0.108297
    34  H    0.091825
    35  C   -0.101240
    36  H    0.105610
    37  N   -0.515198
    38  H    0.290948
    39  C   -0.040137
    40  H    0.142880
    41  C    0.590250
    42  C   -0.203543
    43  H    0.141204
    44  H    0.195785
    45  O   -0.588805
    46  C   -0.279867
    47  H    0.160038
    48  H    0.135922
    49  C    0.600945
    50  O   -0.495939
    51  O   -0.449873
    52  N   -0.558363
    53  H    0.334721
    54  C    0.042683
    55  H    0.108188
    56  C    0.607912
    57  C   -0.101823
    58  H    0.138667
    59  O   -0.554078
    60  C   -0.326963
    61  H    0.123121
    62  H    0.129262
    63  H    0.102768
    64  C   -0.338681
    65  H    0.107954
    66  H    0.117299
    67  H    0.130758
    68  N   -0.521834
    69  H    0.297089
    70  C   -0.019179
    71  H    0.138269
    72  C    0.616532
    73  C    0.133708
    74  H    0.115005
    75  O   -0.567894
    76  C   -0.322137
    77  H    0.119488
    78  H    0.109538
    79  H    0.134094
    80  O   -0.564952
    81  H    0.338525
    82  N   -0.517885
    83  H    0.299745
    84  C   -0.002649
    85  H    0.112650
    86  C    0.619648
    87  C   -0.077291
    88  H    0.135338
    89  O   -0.531788
    90  C   -0.329225
    91  H    0.090538
    92  H    0.149147
    93  H    0.115835
    94  C   -0.353628
    95  H    0.062057
    96  H    0.134284
    97  H    0.124139
    98  N   -0.535934
    99  H    0.295879
   100  C    0.001222
   101  H    0.156507
   102  C    0.600840
   103  C   -0.181587
   104  H    0.129783
   105  H    0.126213
   106  O   -0.511435
   107  C   -0.226960
   108  H    0.095730
   109  H    0.109054
   110  C   -0.187986
   111  H    0.127714
   112  H    0.106477
   113  C   -0.069028
   114  H    0.101720
   115  H    0.120265
   116  N   -0.660794
   117  H    0.271076
   118  H    0.289434
   119  H    0.366438
   120  O   -0.510122
   121  H    0.340939
 Sum of Mulliken charges =   1.00000

 Dipole moment (field-independent basis, Debye):
    X=             -6.0553    Y=             -5.3658    Z=             -1.5983  Tot=              8.2470
 Quadrupole moment (field-independent basis, Debye-Ang):
   XX=           -280.0574   YY=           -280.3388   ZZ=           -292.6819
   XY=            -15.5469   XZ=             -5.5253   YZ=            -30.4083

 Normal termination of Gaussian 16 at Sun Sep  4 01:05:41 2022.
