 Gaussian 16, Revision C.01,
 Gaussian 16:  ES64L-G16RevC.01  3-Jul-2019

 ----------------------------------------------------------------------
 # B3LYP/6-31G** empiricaldispersion=gd3bj guess=read geom=check nosymm
  integral(ultrafinegrid)
 ----------------------------------------------------------------------

 ------------------------------------------------------
 Candidate Structure: Conf:474 Charge calc in gas phase
 ------------------------------------------------------
 Structure from the checkpoint file:  "conf-474.chk"
 Charge =  1 Multiplicity = 1

                          Input orientation:
 ---------------------------------------------------------------------
 Center     Atomic      Atomic             Coordinates (Angstroms)
 Number     Number       Type             X           Y           Z
 ---------------------------------------------------------------------
      1          7           0       -9.034715   -0.317724   -4.005356
      2          1           0       -8.891835    0.521073   -3.436679
      3          1           0       -9.870402   -0.798392   -3.674728
      4          1           0       -9.175735   -0.000213   -4.965711
      5          6           0       -7.830753   -1.166718   -3.929702
      6          1           0       -7.659449   -1.436637   -2.881975
      7          6           0       -6.641202   -0.340409   -4.420479
      8          6           0       -7.984371   -2.430059   -4.762880
      9          1           0       -7.097825   -3.060530   -4.681110
     10          1           0       -8.853549   -3.003077   -4.431454
     11          1           0       -8.124605   -2.166603   -5.813751
     12          8           0       -6.783691    0.583261   -5.212617
     13          7           0       -5.431366   -0.719440   -3.949240
     14          1           0       -5.302495   -1.487952   -3.309509
     15          6           0       -4.227787    0.004783   -4.273052
     16          1           0       -4.137214    0.089332   -5.359797
     17          6           0       -3.077424   -0.834409   -3.716166
     18          6           0       -4.205258    1.442191   -3.698523
     19          1           0       -3.198041    1.850995   -3.837203
     20          1           0       -4.898279    2.037058   -4.287014
     21          8           0       -3.261040   -1.785156   -2.979371
     22          6           0       -4.574775    1.510653   -2.246961
     23          6           0       -3.750249    1.271326   -1.182717
     24          1           0       -2.699588    1.038307   -1.199759
     25          6           0       -5.869129    1.814106   -1.680139
     26          6           0       -5.759966    1.701074   -0.284081
     27          6           0       -7.104348    2.183250   -2.235493
     28          1           0       -7.220344    2.287915   -3.307415
     29          7           0       -4.452958    1.371460   -0.007011
     30          1           0       -4.071792    1.196130    0.902733
     31          6           0       -8.049760    2.256002    0.001092
     32          1           0       -8.913889    2.425364    0.632173
     33          6           0       -6.838066    1.910385    0.579363
     34          1           0       -6.729923    1.808619    1.653415
     35          6           0       -8.178144    2.386985   -1.392059
     36          1           0       -9.138752    2.659021   -1.812147
     37          7           0       -1.834402   -0.429659   -4.114447
     38          1           0       -1.775075    0.504895   -4.481850
     39          6           0       -0.654556   -0.889642   -3.399658
     40          1           0       -0.858127   -1.910017   -3.080784
     41          6           0       -0.433035   -0.029203   -2.124818
     42          6           0        0.577273   -0.830081   -4.290859
     43          1           0        0.691734    0.196347   -4.638053
     44          1           0        1.463124   -1.055226   -3.692142
     45          8           0       -0.428519    1.225963   -2.182252
     46          6           0        0.505378   -1.805548   -5.466094
     47          1           0        0.402924   -2.833680   -5.112308
     48          1           0       -0.360138   -1.605891   -6.102204
     49          6           0        1.722931   -1.724213   -6.345074
     50          8           0        2.569098   -0.866046   -6.303072
     51          8           0        1.764139   -2.741162   -7.235871
     52          7           0       -0.270987   -0.765715   -0.982281
     53          1           0       -0.073105   -1.742346   -1.098981
     54          6           0        0.081878   -0.169896    0.307957
     55          1           0       -0.400788    0.810613    0.324193
     56          6           0        1.604777   -0.007381    0.308646
     57          6           0       -0.427759   -1.004666    1.482390
     58          1           0       -0.014064   -2.008528    1.359911
     59          8           0        2.382369   -0.908289    0.644843
     60          6           0        0.044346   -0.429082    2.819187
     61          1           0       -0.337265    0.586998    2.940384
     62          1           0       -0.324987   -1.036727    3.648241
     63          1           0        1.133821   -0.398078    2.872591
     64          6           0       -1.953705   -1.079548    1.478343
     65          1           0       -2.364317   -0.115743    1.799449
     66          1           0       -2.348565   -1.305807    0.484406
     67          1           0       -2.300298   -1.842602    2.178398
     68          7           0        2.022153    1.196257   -0.148014
     69          1           0        1.332021    1.828337   -0.520338
     70          6           0        3.405238    1.436318   -0.490913
     71          1           0        3.874951    0.455000   -0.588995
     72          6           0        4.047221    2.209519    0.656915
     73          6           0        3.512340    2.166563   -1.824974
     74          1           0        3.044070    3.154230   -1.701385
     75          8           0        4.264277    3.414206    0.588960
     76          6           0        4.945974    2.287420   -2.299034
     77          1           0        5.546594    2.841721   -1.578426
     78          1           0        5.365705    1.286153   -2.412383
     79          1           0        4.979228    2.790874   -3.265132
     80          8           0        2.831911    1.419388   -2.829237
     81          1           0        1.885708    1.480990   -2.665433
     82          7           0        4.319346    1.477442    1.758253
     83          1           0        3.980740    0.525492    1.776668
     84          6           0        4.740732    2.077423    3.010361
     85          1           0        4.001357    2.837926    3.285459
     86          6           0        6.080094    2.795025    2.854606
     87          6           0        4.796650    1.017425    4.139251
     88          1           0        3.809050    0.544319    4.114150
     89          8           0        6.997272    2.387747    2.161083
     90          6           0        5.867673   -0.042560    3.886165
     91          1           0        6.860048    0.405051    3.945601
     92          1           0        5.759479   -0.491895    2.896860
     93          1           0        5.800989   -0.834457    4.636063
     94          6           0        4.991688    1.641282    5.520904
     95          1           0        5.999465    2.046743    5.631814
     96          1           0        4.855959    0.882287    6.293637
     97          1           0        4.270219    2.441394    5.710723
     98          7           0        6.172302    3.938072    3.592880
     99          1           0        5.472911    4.178248    4.270017
    100          6           0        7.415529    4.658383    3.732857
    101          1           0        8.210060    4.002002    3.376331
    102          6           0        7.513891    4.859530    5.280924
    103          6           0        7.389620    5.976663    2.974962
    104          1           0        8.350507    6.484269    3.095992
    105          1           0        6.633223    6.623017    3.429235
    106          8           0        6.998248    5.890942    5.738558
    107          6           0        7.076066    5.762588    1.498922
    108          1           0        7.907537    5.230591    1.023058
    109          1           0        6.221650    5.100646    1.426681
    110          6           0        6.778482    7.046007    0.742736
    111          1           0        6.061893    7.650145    1.310156
    112          1           0        7.692393    7.641407    0.649608
    113          6           0        6.216666    6.789304   -0.645384
    114          1           0        6.887520    6.112884   -1.183346
    115          1           0        6.183916    7.721820   -1.214478
    116          7           0        4.857959    6.184373   -0.601161
    117          1           0        4.429545    6.138923   -1.526244
    118          1           0        4.863415    5.237471   -0.227031
    119          1           0        4.245813    6.733351   -0.000374
    120          8           0        8.023573    3.908507    5.895260
    121          1           0        2.561041   -2.601179   -7.764143
 ---------------------------------------------------------------------

 SCF Done:  E(RB3LYP) =  -2843.92814943     A.U. after    1 cycles

 Alpha  occ. eigenvalues --  -19.27066 -19.26626 -19.24903 -19.24333 -19.22118
 Alpha  occ. eigenvalues --  -19.21281 -19.21064 -19.19871 -19.11854 -19.01211
 Alpha  occ. eigenvalues --  -19.00429 -14.64195 -14.57729 -14.50019 -14.48453
 Alpha  occ. eigenvalues --  -14.48242 -14.48040 -14.45641 -14.42108 -14.35406
 Alpha  occ. eigenvalues --  -10.44434 -10.42725 -10.41361 -10.41082 -10.39539
 Alpha  occ. eigenvalues --  -10.38147 -10.36040 -10.36033 -10.35372 -10.34791
 Alpha  occ. eigenvalues --  -10.34655 -10.33470 -10.32311 -10.32186 -10.31951
 Alpha  occ. eigenvalues --  -10.30953 -10.30560 -10.29621 -10.29509 -10.29265
 Alpha  occ. eigenvalues --  -10.29141 -10.29084 -10.29041 -10.29013 -10.28899
 Alpha  occ. eigenvalues --  -10.28745 -10.28644 -10.27094 -10.26563 -10.26559
 Alpha  occ. eigenvalues --  -10.25636 -10.24778 -10.22892 -10.21738 -10.19489
 Alpha  occ. eigenvalues --  -10.19390 -10.18834 -10.18124 -10.18042  -1.20886
 Alpha  occ. eigenvalues --   -1.18019  -1.17998  -1.17199  -1.14669  -1.12916
 Alpha  occ. eigenvalues --   -1.12812  -1.11563  -1.09979  -1.08962  -1.08651
 Alpha  occ. eigenvalues --   -1.06906  -1.05095  -1.04456  -1.04285  -1.02150
 Alpha  occ. eigenvalues --   -0.98600  -0.96120  -0.95663  -0.94989  -0.92366
 Alpha  occ. eigenvalues --   -0.91674  -0.91141  -0.90049  -0.88435  -0.87746
 Alpha  occ. eigenvalues --   -0.86727  -0.86172  -0.84652  -0.84245  -0.83895
 Alpha  occ. eigenvalues --   -0.83764  -0.82474  -0.81325  -0.80396  -0.78964
 Alpha  occ. eigenvalues --   -0.78458  -0.78049  -0.77399  -0.75956  -0.75411
 Alpha  occ. eigenvalues --   -0.74512  -0.73508  -0.73223  -0.72828  -0.71358
 Alpha  occ. eigenvalues --   -0.70975  -0.70600  -0.70303  -0.70119  -0.70015
 Alpha  occ. eigenvalues --   -0.69379  -0.69030  -0.68004  -0.67511  -0.67121
 Alpha  occ. eigenvalues --   -0.66776  -0.66469  -0.65440  -0.64986  -0.64516
 Alpha  occ. eigenvalues --   -0.63851  -0.62418  -0.61529  -0.61375  -0.61020
 Alpha  occ. eigenvalues --   -0.60681  -0.60656  -0.59850  -0.59677  -0.59263
 Alpha  occ. eigenvalues --   -0.58717  -0.58400  -0.58212  -0.57849  -0.57767
 Alpha  occ. eigenvalues --   -0.57452  -0.57159  -0.57001  -0.56501  -0.56023
 Alpha  occ. eigenvalues --   -0.55624  -0.55045  -0.54490  -0.54392  -0.54088
 Alpha  occ. eigenvalues --   -0.53985  -0.53833  -0.53730  -0.53294  -0.53005
 Alpha  occ. eigenvalues --   -0.52758  -0.52378  -0.52127  -0.51990  -0.51649
 Alpha  occ. eigenvalues --   -0.51360  -0.51094  -0.50414  -0.50306  -0.49620
 Alpha  occ. eigenvalues --   -0.49466  -0.49220  -0.49005  -0.48436  -0.48359
 Alpha  occ. eigenvalues --   -0.47983  -0.47875  -0.47699  -0.47303  -0.47101
 Alpha  occ. eigenvalues --   -0.46848  -0.46312  -0.46172  -0.46133  -0.46024
 Alpha  occ. eigenvalues --   -0.45758  -0.45315  -0.44968  -0.44633  -0.44543
 Alpha  occ. eigenvalues --   -0.44397  -0.44236  -0.44127  -0.43763  -0.42959
 Alpha  occ. eigenvalues --   -0.42716  -0.42412  -0.41854  -0.41299  -0.40942
 Alpha  occ. eigenvalues --   -0.40723  -0.40304  -0.39902  -0.39839  -0.39514
 Alpha  occ. eigenvalues --   -0.39481  -0.39126  -0.38887  -0.38456  -0.38207
 Alpha  occ. eigenvalues --   -0.38015  -0.36896  -0.36734  -0.36481  -0.36182
 Alpha  occ. eigenvalues --   -0.36057  -0.35828  -0.35547  -0.34982  -0.34959
 Alpha  occ. eigenvalues --   -0.34174  -0.33269  -0.33232  -0.32252  -0.32168
 Alpha  occ. eigenvalues --   -0.31107  -0.31022  -0.30833  -0.25813  -0.25438
 Alpha  occ. eigenvalues --   -0.16972  -0.16010  -0.14901
 Alpha virt. eigenvalues --   -0.14103  -0.13316  -0.11867  -0.11267  -0.10254
 Alpha virt. eigenvalues --   -0.08610  -0.08537  -0.07667  -0.07554  -0.06595
 Alpha virt. eigenvalues --   -0.06299  -0.05317  -0.05175  -0.04677  -0.03949

 Mulliken charges:
               1
     1  N   -0.506626
     2  H    0.350109
     3  H    0.358446
     4  H    0.362315
     5  C   -0.117121
     6  H    0.187010
     7  C    0.639401
     8  C   -0.326623
     9  H    0.179879
    10  H    0.146093
    11  H    0.156542
    12  O   -0.525305
    13  N   -0.538026
    14  H    0.290967
    15  C    0.018070
    16  H    0.154960
    17  C    0.606288
    18  C   -0.285680
    19  H    0.129332
    20  H    0.150820
    21  O   -0.523218
    22  C    0.025077
    23  C    0.086205
    24  H    0.128399
    25  C    0.057638
    26  C    0.285210
    27  C   -0.195367
    28  H    0.096764
    29  N   -0.621142
    30  H    0.272367
    31  C   -0.109189
    32  H    0.105257
    33  C   -0.088715
    34  H    0.108976
    35  C   -0.124723
    36  H    0.078221
    37  N   -0.517460
    38  H    0.277380
    39  C   -0.038294
    40  H    0.136250
    41  C    0.616125
    42  C   -0.189543
    43  H    0.138618
    44  H    0.146466
    45  O   -0.581551
    46  C   -0.261842
    47  H    0.143773
    48  H    0.146619
    49  C    0.574503
    50  O   -0.448469
    51  O   -0.483678
    52  N   -0.505753
    53  H    0.288003
    54  C   -0.008086
    55  H    0.118161
    56  C    0.614089
    57  C   -0.070641
    58  H    0.120750
    59  O   -0.533066
    60  C   -0.328754
    61  H    0.100570
    62  H    0.125776
    63  H    0.140157
    64  C   -0.330440
    65  H    0.082812
    66  H    0.113674
    67  H    0.129399
    68  N   -0.524930
    69  H    0.269826
    70  C   -0.035062
    71  H    0.162142
    72  C    0.660315
    73  C    0.152547
    74  H    0.052582
    75  O   -0.584389
    76  C   -0.326205
    77  H    0.117665
    78  H    0.142293
    79  H    0.115185
    80  O   -0.548516
    81  H    0.305855
    82  N   -0.521115
    83  H    0.283755
    84  C    0.010695
    85  H    0.092419
    86  C    0.630936
    87  C   -0.095413
    88  H    0.070129
    89  O   -0.554758
    90  C   -0.312260
    91  H    0.159409
    92  H    0.087762
    93  H    0.102216
    94  C   -0.338476
    95  H    0.186145
    96  H    0.103378
    97  H    0.085973
    98  N   -0.526939
    99  H    0.260679
   100  C    0.004192
   101  H    0.115566
   102  C    0.506649
   103  C   -0.154551
   104  H    0.101614
   105  H    0.098335
   106  O   -0.603401
   107  C   -0.203707
   108  H    0.113751
   109  H    0.092840
   110  C   -0.202998
   111  H    0.107680
   112  H    0.146076
   113  C   -0.141200
   114  H    0.177643
   115  H    0.155999
   116  N   -0.542768
   117  H    0.344192
   118  H    0.393376
   119  H    0.348349
   120  O   -0.601126
   121  H    0.331487
 Sum of Mulliken charges =   1.00000

 Dipole moment (field-independent basis, Debye):
    X=            -46.8588    Y=             -0.8129    Z=            -35.2004  Tot=             58.6129
 Quadrupole moment (field-independent basis, Debye-Ang):
   XX=           -174.0154   YY=           -285.8757   ZZ=           -372.9850
   XY=              6.5524   XZ=            -40.2436   YZ=            -82.2040

 Normal termination of Gaussian 16 at Sun Sep  4 01:12:26 2022.
