 Gaussian 16, Revision C.01,
 Gaussian 16:  ES64L-G16RevC.01  3-Jul-2019

 ----------------------------------------------------------------------
 # B3LYP/6-31G** empiricaldispersion=gd3bj guess=read geom=check nosymm
  integral(ultrafinegrid)
 ----------------------------------------------------------------------

 ------------------------------------------------------
 Candidate Structure: Conf:549 Charge calc in gas phase
 ------------------------------------------------------
 Structure from the checkpoint file:  "conf-549.chk"
 Charge =  1 Multiplicity = 1

                          Input orientation:
 ---------------------------------------------------------------------
 Center     Atomic      Atomic             Coordinates (Angstroms)
 Number     Number       Type             X           Y           Z
 ---------------------------------------------------------------------
      1          7           0       -4.828803   -0.291741   -6.407641
      2          1           0       -5.040467    0.014899   -7.357482
      3          1           0       -3.863004   -0.722572   -6.385378
      4          1           0       -4.845147    0.505354   -5.744747
      5          6           0       -5.843054   -1.268208   -5.863874
      6          1           0       -6.828471   -0.876408   -6.136117
      7          6           0       -5.691490   -1.083619   -4.336513
      8          6           0       -5.645471   -2.663413   -6.439003
      9          1           0       -6.449796   -3.324431   -6.104034
     10          1           0       -5.687557   -2.638438   -7.531378
     11          1           0       -4.684182   -3.088520   -6.141845
     12          8           0       -5.404775    0.051470   -3.929829
     13          7           0       -5.869072   -2.161729   -3.577920
     14          1           0       -6.053176   -3.060503   -4.013266
     15          6           0       -5.724281   -2.203389   -2.114708
     16          1           0       -6.159061   -1.284739   -1.709514
     17          6           0       -4.211222   -2.235381   -1.782333
     18          6           0       -6.464149   -3.447583   -1.575792
     19          1           0       -6.098856   -3.633794   -0.564255
     20          1           0       -7.528833   -3.205865   -1.499724
     21          8           0       -3.636699   -3.253417   -1.411864
     22          6           0       -6.282215   -4.664879   -2.437381
     23          6           0       -5.292616   -5.614972   -2.345777
     24          1           0       -4.490741   -5.686885   -1.628041
     25          6           0       -7.066463   -5.002268   -3.605349
     26          6           0       -6.486324   -6.171588   -4.177088
     27          6           0       -8.184223   -4.421459   -4.236521
     28          1           0       -8.661561   -3.542173   -3.813135
     29          7           0       -5.415074   -6.518814   -3.380175
     30          1           0       -4.840675   -7.337535   -3.501487
     31          6           0       -8.079525   -6.152681   -5.950667
     32          1           0       -8.491098   -6.584553   -6.856784
     33          6           0       -6.983163   -6.755928   -5.345243
     34          1           0       -6.531906   -7.649192   -5.765516
     35          6           0       -8.675934   -4.998423   -5.401696
     36          1           0       -9.543919   -4.566903   -5.889801
     37          7           0       -3.588000   -1.052195   -2.000686
     38          1           0       -4.113266   -0.245147   -2.325805
     39          6           0       -2.143642   -0.906350   -1.982245
     40          1           0       -1.734174   -1.727312   -1.389934
     41          6           0       -1.846942    0.472176   -1.374930
     42          6           0       -1.579759   -0.922230   -3.417859
     43          1           0       -1.994683   -0.049313   -3.932591
     44          1           0       -0.492431   -0.797661   -3.384998
     45          8           0       -2.421622    1.459803   -1.831695
     46          6           0       -1.937329   -2.210577   -4.187579
     47          1           0       -1.382733   -3.064497   -3.794978
     48          1           0       -3.005188   -2.414029   -4.087074
     49          6           0       -1.642494   -2.029776   -5.648048
     50          8           0       -2.391518   -1.485929   -6.461395
     51          8           0       -0.445606   -2.478704   -6.010612
     52          7           0       -0.958564    0.490656   -0.366421
     53          1           0       -0.444391   -0.340351   -0.095167
     54          6           0       -0.483253    1.714253    0.262760
     55          1           0       -0.673117    2.541422   -0.428214
     56          6           0        1.018245    1.500396    0.480511
     57          6           0       -1.210984    1.996271    1.608457
     58          1           0       -0.974712    1.155865    2.274167
     59          8           0        1.459832    0.369042    0.701857
     60          6           0       -0.713044    3.291733    2.263296
     61          1           0       -0.854906    4.147961    1.591706
     62          1           0       -1.292073    3.494194    3.168540
     63          1           0        0.338701    3.251291    2.553024
     64          6           0       -2.729173    2.042219    1.401896
     65          1           0       -3.006656    2.836166    0.701725
     66          1           0       -3.113659    1.098967    1.007021
     67          1           0       -3.228506    2.235805    2.355769
     68          7           0        1.793520    2.601083    0.426381
     69          1           0        1.380576    3.526778    0.392962
     70          6           0        3.183423    2.590110    0.862785
     71          1           0        3.699783    1.757042    0.378941
     72          6           0        3.232375    2.448330    2.392550
     73          6           0        3.808974    3.945744    0.455572
     74          1           0        4.789611    4.016596    0.949667
     75          8           0        2.891700    3.397109    3.116833
     76          6           0        3.991428    4.075651   -1.048476
     77          1           0        4.701639    3.330709   -1.419113
     78          1           0        3.038785    3.939089   -1.567925
     79          1           0        4.371601    5.072051   -1.284444
     80          8           0        2.952184    4.993472    0.888948
     81          1           0        2.846915    4.850574    1.851345
     82          7           0        3.649674    1.264637    2.861634
     83          1           0        3.887288    0.512815    2.226675
     84          6           0        3.788266    0.959863    4.276315
     85          1           0        3.845047    1.914125    4.807272
     86          6           0        5.085893    0.156460    4.407118
     87          6           0        2.592630    0.132229    4.831728
     88          1           0        2.677168   -0.872605    4.396598
     89          8           0        5.410402   -0.646414    3.530544
     90          6           0        2.669179    0.018218    6.359908
     91          1           0        2.600057    1.009024    6.824924
     92          1           0        3.590340   -0.452045    6.711893
     93          1           0        1.831723   -0.576970    6.734934
     94          6           0        1.253434    0.735431    4.393994
     95          1           0        1.172784    1.781939    4.703662
     96          1           0        0.427085    0.178845    4.847237
     97          1           0        1.139424    0.685107    3.309664
     98          7           0        5.812675    0.370680    5.526120
     99          1           0        5.394685    0.861412    6.308985
    100          6           0        6.885537   -0.541636    5.896282
    101          1           0        6.532926   -1.567396    5.711886
    102          6           0        7.048403   -0.412195    7.424124
    103          6           0        8.166066   -0.339636    5.068990
    104          1           0        8.804481    0.407658    5.550402
    105          1           0        7.877821    0.072655    4.100302
    106          8           0        8.192617   -0.780171    7.979873
    107          6           0        8.915548   -1.667216    4.844411
    108          1           0        8.754475   -2.336796    5.699045
    109          1           0        8.455613   -2.166775    3.985909
    110          6           0       10.429515   -1.509395    4.631512
    111          1           0       10.806546   -2.281705    3.952479
    112          1           0       10.643761   -0.548070    4.145350
    113          6           0       11.216336   -1.623512    5.938565
    114          1           0       12.287933   -1.467510    5.751862
    115          1           0       11.101899   -2.638667    6.334208
    116          7           0       10.690407   -0.703089    6.968758
    117          1           0       11.165220   -0.863574    7.855121
    118          1           0       10.897684    0.260637    6.711197
    119          1           0        9.018719   -0.816919    7.400537
    120          8           0        6.110083   -0.026396    8.097307
    121          1           0       -0.314818   -2.281471   -6.955444
 ---------------------------------------------------------------------

 SCF Done:  E(RB3LYP) =  -2844.07264768     A.U. after    2 cycles

 Alpha  occ. eigenvalues --  -19.32558 -19.27991 -19.25605 -19.21028 -19.20926
 Alpha  occ. eigenvalues --  -19.19175 -19.18939 -19.18758 -19.17707 -19.16746
 Alpha  occ. eigenvalues --  -19.16661 -14.57078 -14.49240 -14.46747 -14.44861
 Alpha  occ. eigenvalues --  -14.43678 -14.42775 -14.41823 -14.40602 -14.40235
 Alpha  occ. eigenvalues --  -10.45645 -10.42643 -10.39524 -10.38203 -10.36580
 Alpha  occ. eigenvalues --  -10.35582 -10.35424 -10.34617 -10.34172 -10.33492
 Alpha  occ. eigenvalues --  -10.32482 -10.32034 -10.31271 -10.30763 -10.30373
 Alpha  occ. eigenvalues --  -10.30116 -10.29886 -10.29730 -10.29263 -10.28805
 Alpha  occ. eigenvalues --  -10.28166 -10.28041 -10.27634 -10.27632 -10.27509
 Alpha  occ. eigenvalues --  -10.27376 -10.27050 -10.26985 -10.26937 -10.25662
 Alpha  occ. eigenvalues --  -10.24226 -10.23955 -10.23534 -10.23427 -10.23003
 Alpha  occ. eigenvalues --  -10.22861 -10.22802 -10.21639 -10.21503  -1.24045
 Alpha  occ. eigenvalues --   -1.17964  -1.14751  -1.13087  -1.12527  -1.11696
 Alpha  occ. eigenvalues --   -1.11464  -1.10679  -1.09575  -1.08491  -1.06681
 Alpha  occ. eigenvalues --   -1.06573  -1.05901  -1.04399  -1.01775  -1.00210
 Alpha  occ. eigenvalues --   -0.99195  -0.98277  -0.97315  -0.96053  -0.92751
 Alpha  occ. eigenvalues --   -0.92313  -0.91128  -0.89394  -0.87277  -0.86026
 Alpha  occ. eigenvalues --   -0.85837  -0.84866  -0.83749  -0.83165  -0.82272
 Alpha  occ. eigenvalues --   -0.80858  -0.80601  -0.79719  -0.78899  -0.77618
 Alpha  occ. eigenvalues --   -0.76665  -0.75598  -0.74617  -0.73880  -0.73343
 Alpha  occ. eigenvalues --   -0.72613  -0.72446  -0.72233  -0.71144  -0.70709
 Alpha  occ. eigenvalues --   -0.69668  -0.68285  -0.67939  -0.67515  -0.67119
 Alpha  occ. eigenvalues --   -0.66031  -0.65631  -0.65531  -0.65015  -0.64631
 Alpha  occ. eigenvalues --   -0.64262  -0.64110  -0.63700  -0.63333  -0.62648
 Alpha  occ. eigenvalues --   -0.62379  -0.62349  -0.61711  -0.61436  -0.60432
 Alpha  occ. eigenvalues --   -0.60097  -0.59377  -0.58798  -0.58329  -0.57518
 Alpha  occ. eigenvalues --   -0.57019  -0.56666  -0.56586  -0.56371  -0.56155
 Alpha  occ. eigenvalues --   -0.55506  -0.55136  -0.54775  -0.54328  -0.54236
 Alpha  occ. eigenvalues --   -0.53446  -0.53323  -0.53052  -0.52726  -0.52585
 Alpha  occ. eigenvalues --   -0.52400  -0.52130  -0.52032  -0.51813  -0.51730
 Alpha  occ. eigenvalues --   -0.51249  -0.51142  -0.50919  -0.50513  -0.50248
 Alpha  occ. eigenvalues --   -0.49975  -0.49926  -0.49612  -0.49396  -0.49011
 Alpha  occ. eigenvalues --   -0.48670  -0.48607  -0.48347  -0.48009  -0.47837
 Alpha  occ. eigenvalues --   -0.47660  -0.47184  -0.47086  -0.46615  -0.46511
 Alpha  occ. eigenvalues --   -0.46385  -0.45911  -0.45580  -0.45517  -0.45447
 Alpha  occ. eigenvalues --   -0.44915  -0.44687  -0.44455  -0.44408  -0.44134
 Alpha  occ. eigenvalues --   -0.43692  -0.43669  -0.43615  -0.43469  -0.43400
 Alpha  occ. eigenvalues --   -0.43038  -0.42603  -0.42137  -0.42057  -0.42025
 Alpha  occ. eigenvalues --   -0.41845  -0.41627  -0.41280  -0.40493  -0.40346
 Alpha  occ. eigenvalues --   -0.40204  -0.39499  -0.39429  -0.39145  -0.38883
 Alpha  occ. eigenvalues --   -0.38661  -0.38636  -0.38253  -0.38074  -0.37838
 Alpha  occ. eigenvalues --   -0.37568  -0.36526  -0.35423  -0.34328  -0.34248
 Alpha  occ. eigenvalues --   -0.34058  -0.33503  -0.32813  -0.32764  -0.32379
 Alpha  occ. eigenvalues --   -0.32257  -0.31720  -0.31204  -0.30766  -0.30182
 Alpha  occ. eigenvalues --   -0.30014  -0.29768  -0.28986
 Alpha virt. eigenvalues --   -0.12664  -0.12461  -0.10024  -0.08007  -0.07084
 Alpha virt. eigenvalues --   -0.06523  -0.05543  -0.04735  -0.03923  -0.03695
 Alpha virt. eigenvalues --   -0.02801  -0.02757  -0.02576  -0.02241  -0.01388

 Mulliken charges:
               1
     1  N   -0.568646
     2  H    0.336613
     3  H    0.392044
     4  H    0.353995
     5  C   -0.086127
     6  H    0.189497
     7  C    0.633475
     8  C   -0.359875
     9  H    0.176181
    10  H    0.140236
    11  H    0.144646
    12  O   -0.547127
    13  N   -0.528315
    14  H    0.300419
    15  C   -0.026924
    16  H    0.153317
    17  C    0.607101
    18  C   -0.250557
    19  H    0.149483
    20  H    0.125226
    21  O   -0.523128
    22  C   -0.016221
    23  C    0.096386
    24  H    0.149575
    25  C    0.013537
    26  C    0.294984
    27  C   -0.174849
    28  H    0.088883
    29  N   -0.611671
    30  H    0.274289
    31  C   -0.110679
    32  H    0.102824
    33  C   -0.095875
    34  H    0.100444
    35  C   -0.100404
    36  H    0.096329
    37  N   -0.527479
    38  H    0.306989
    39  C   -0.024298
    40  H    0.142222
    41  C    0.615622
    42  C   -0.188888
    43  H    0.128337
    44  H    0.140108
    45  O   -0.544605
    46  C   -0.242642
    47  H    0.162029
    48  H    0.125077
    49  C    0.587185
    50  O   -0.527529
    51  O   -0.433983
    52  N   -0.526100
    53  H    0.283523
    54  C   -0.013388
    55  H    0.132557
    56  C    0.613788
    57  C   -0.049474
    58  H    0.106206
    59  O   -0.558276
    60  C   -0.347666
    61  H    0.102652
    62  H    0.117078
    63  H    0.135572
    64  C   -0.309705
    65  H    0.120231
    66  H    0.098059
    67  H    0.108273
    68  N   -0.508579
    69  H    0.282119
    70  C   -0.029285
    71  H    0.119045
    72  C    0.640032
    73  C    0.148207
    74  H    0.100004
    75  O   -0.572602
    76  C   -0.313541
    77  H    0.104616
    78  H    0.108612
    79  H    0.131615
    80  O   -0.562390
    81  H    0.333365
    82  N   -0.507103
    83  H    0.290165
    84  C   -0.013027
    85  H    0.134607
    86  C    0.602918
    87  C   -0.052765
    88  H    0.103986
    89  O   -0.552837
    90  C   -0.333734
    91  H    0.109816
    92  H    0.124112
    93  H    0.110206
    94  C   -0.334578
    95  H    0.123045
    96  H    0.098563
    97  H    0.118124
    98  N   -0.533774
    99  H    0.287709
   100  C   -0.005894
   101  H    0.149841
   102  C    0.576751
   103  C   -0.184667
   104  H    0.089187
   105  H    0.131809
   106  O   -0.526107
   107  C   -0.195340
   108  H    0.100095
   109  H    0.122204
   110  C   -0.191664
   111  H    0.110424
   112  H    0.100788
   113  C   -0.063080
   114  H    0.103300
   115  H    0.123669
   116  N   -0.649547
   117  H    0.277366
   118  H    0.266293
   119  H    0.388026
   120  O   -0.475425
   121  H    0.344762
 Sum of Mulliken charges =   1.00000

 Dipole moment (field-independent basis, Debye):
    X=             -9.0271    Y=            -10.6925    Z=            -22.9944  Tot=             26.9176
 Quadrupole moment (field-independent basis, Debye-Ang):
   XX=           -103.3847   YY=           -305.7446   ZZ=           -183.4950
   XY=             38.2735   XZ=            159.8251   YZ=             45.8393

 Normal termination of Gaussian 16 at Sun Sep  4 01:10:09 2022.
