 Gaussian 16, Revision C.01,
 Gaussian 16:  ES64L-G16RevC.01  3-Jul-2019

 ----------------------------------------------------------------------
 # B3LYP/6-31G** empiricaldispersion=gd3bj guess=read geom=check nosymm
  integral(ultrafinegrid)
 ----------------------------------------------------------------------

 ------------------------------------------------------
 Candidate Structure: Conf:102 Charge calc in gas phase
 ------------------------------------------------------
 Structure from the checkpoint file:  "conf-102.chk"
 Charge =  1 Multiplicity = 1

                          Input orientation:
 ---------------------------------------------------------------------
 Center     Atomic      Atomic             Coordinates (Angstroms)
 Number     Number       Type             X           Y           Z
 ---------------------------------------------------------------------
      1          7           0       -6.225058   -5.981718   -6.345648
      2          1           0       -6.867705   -6.655319   -5.929323
      3          1           0       -5.975574   -6.299773   -7.282941
      4          1           0       -6.667761   -4.985233   -6.356125
      5          6           0       -5.020465   -5.669554   -5.480063
      6          1           0       -5.149989   -6.191137   -4.529156
      7          6           0       -5.200711   -4.138277   -5.279634
      8          6           0       -3.712483   -6.059800   -6.158040
      9          1           0       -2.868078   -5.794155   -5.518003
     10          1           0       -3.664106   -7.137695   -6.332443
     11          1           0       -3.586770   -5.528631   -7.106303
     12          8           0       -6.222611   -3.635874   -5.788968
     13          7           0       -4.272250   -3.502049   -4.599870
     14          1           0       -3.401915   -3.937921   -4.272990
     15          6           0       -4.241731   -2.059390   -4.373956
     16          1           0       -4.447053   -1.546773   -5.318383
     17          6           0       -2.786677   -1.795156   -3.935257
     18          6           0       -5.291722   -1.599049   -3.323053
     19          1           0       -6.215135   -2.149731   -3.532813
     20          1           0       -4.955999   -1.892910   -2.323492
     21          8           0       -2.026867   -2.754830   -3.748291
     22          6           0       -5.533030   -0.127458   -3.410378
     23          6           0       -5.158920    0.841083   -2.509434
     24          1           0       -4.629962    0.745113   -1.574361
     25          6           0       -6.158474    0.555502   -4.518858
     26          6           0       -6.117962    1.945364   -4.221950
     27          6           0       -6.742779    0.127874   -5.722477
     28          1           0       -6.808127   -0.930267   -5.960499
     29          7           0       -5.521368    2.080125   -2.981784
     30          1           0       -5.215007    2.946813   -2.570483
     31          6           0       -7.184503    2.456824   -6.288889
     32          1           0       -7.586179    3.178188   -6.992839
     33          6           0       -6.626081    2.906933   -5.097991
     34          1           0       -6.587551    3.965117   -4.859728
     35          6           0       -7.246024    1.083474   -6.596393
     36          1           0       -7.700349    0.770945   -7.531202
     37          7           0       -2.431717   -0.513283   -3.785684
     38          1           0       -3.136017    0.222042   -3.800428
     39          6           0       -1.142862   -0.119672   -3.228211
     40          1           0       -0.749856   -0.972824   -2.668166
     41          6           0       -1.412262    1.074460   -2.301327
     42          6           0       -0.135821    0.294901   -4.318083
     43          1           0       -0.503021    1.194251   -4.820170
     44          1           0        0.804493    0.568339   -3.827923
     45          8           0       -2.359435    1.834223   -2.524820
     46          6           0        0.100927   -0.817733   -5.340999
     47          1           0        0.383793   -1.758117   -4.862745
     48          1           0       -0.832904   -1.021227   -5.880145
     49          6           0        1.144176   -0.525262   -6.397459
     50          8           0        1.746986   -1.371534   -7.015814
     51          8           0        1.307375    0.800563   -6.617455
     52          7           0       -0.539511    1.215335   -1.290138
     53          1           0        0.271369    0.610513   -1.202635
     54          6           0       -0.492819    2.370635   -0.405157
     55          1           0       -0.984434    3.209432   -0.908052
     56          6           0        1.001896    2.636946   -0.191561
     57          6           0       -1.195785    2.104960    0.956069
     58          1           0       -0.599789    1.340585    1.471370
     59          8           0        1.796887    1.693429   -0.168651
     60          6           0       -1.208971    3.372944    1.822207
     61          1           0       -1.694554    4.201478    1.287840
     62          1           0       -1.788277    3.195841    2.732981
     63          1           0       -0.206793    3.686759    2.125860
     64          6           0       -2.614349    1.564731    0.742366
     65          1           0       -3.204649    2.247797    0.122944
     66          1           0       -2.603096    0.588757    0.249642
     67          1           0       -3.121124    1.453285    1.705201
     68          7           0        1.384749    3.911419   -0.008412
     69          1           0        0.692104    4.641411    0.037340
     70          6           0        2.748165    4.203476    0.411534
     71          1           0        3.429180    3.727355   -0.300296
     72          6           0        2.962043    3.645850    1.834544
     73          6           0        2.964297    5.719015    0.419596
     74          1           0        2.274674    6.132364    1.173739
     75          8           0        2.167522    3.920541    2.735431
     76          6           0        4.394090    6.092468    0.797518
     77          1           0        4.606571    5.853682    1.843971
     78          1           0        5.114181    5.573321    0.156538
     79          1           0        4.544231    7.169735    0.670573
     80          8           0        2.603673    6.175547   -0.882045
     81          1           0        2.779429    7.124931   -0.915196
     82          7           0        4.062291    2.900325    2.011537
     83          1           0        4.694117    2.684231    1.249588
     84          6           0        4.411712    2.300966    3.289202
     85          1           0        4.014808    2.931168    4.095306
     86          6           0        5.949965    2.288613    3.331971
     87          6           0        3.854918    0.854480    3.448718
     88          1           0        4.428965    0.236116    2.745905
     89          8           0        6.609372    2.106183    2.311168
     90          6           0        4.104017    0.333510    4.870165
     91          1           0        3.621711    0.987173    5.609830
     92          1           0        5.166059    0.249549    5.114066
     93          1           0        3.659739   -0.659504    4.985426
     94          6           0        2.370491    0.747910    3.075422
     95          1           0        1.760428    1.436756    3.664712
     96          1           0        2.027891   -0.274665    3.266261
     97          1           0        2.205758    0.958612    2.016944
     98          7           0        6.516665    2.507642    4.542030
     99          1           0        5.912770    2.534902    5.348509
    100          6           0        7.942307    2.352289    4.748507
    101          1           0        8.434404    2.791944    3.877208
    102          6           0        8.353017    0.837150    4.747216
    103          6           0        8.386585    3.123998    6.044056
    104          1           0        7.530053    3.234142    6.720845
    105          1           0        8.732905    4.126609    5.781809
    106          8           0        9.657557    0.608872    4.503142
    107          6           0        9.471427    2.237465    6.641417
    108          1           0        8.951572    1.298853    6.874852
    109          1           0       10.088643    2.050159    5.782892
    110          6           0       10.501930    2.421369    7.733730
    111          1           0       11.211909    3.222906    7.499790
    112          1           0       10.089661    2.635689    8.726691
    113          6           0       11.199916    1.030676    7.832235
    114          1           0       10.572888    0.368498    8.436177
    115          1           0       12.162541    1.124425    8.348487
    116          7           0       11.392810    0.297872    6.526714
    117          1           0       11.617543   -0.670909    6.744366
    118          1           0       10.235051    0.249415    5.299402
    119          1           0       12.219545    0.665310    6.056097
    120          8           0        7.536118   -0.034047    4.955550
    121          1           0        1.974937    0.879735   -7.319776
 ---------------------------------------------------------------------

 SCF Done:  E(RB3LYP) =  -2843.98967043     A.U. after    1 cycles

 Alpha  occ. eigenvalues --  -19.27776 -19.25344 -19.21871 -19.20229 -19.19270
 Alpha  occ. eigenvalues --  -19.19188 -19.18080 -19.18008 -19.16470 -19.15786
 Alpha  occ. eigenvalues --  -19.15704 -14.58813 -14.49550 -14.44864 -14.44207
 Alpha  occ. eigenvalues --  -14.43159 -14.42343 -14.40561 -14.40414 -14.40328
 Alpha  occ. eigenvalues --  -10.43912 -10.41180 -10.38695 -10.37772 -10.36298
 Alpha  occ. eigenvalues --  -10.34854 -10.34371 -10.34095 -10.33784 -10.33114
 Alpha  occ. eigenvalues --  -10.32651 -10.31306 -10.29924 -10.29617 -10.28739
 Alpha  occ. eigenvalues --  -10.28728 -10.28638 -10.28186 -10.27671 -10.27451
 Alpha  occ. eigenvalues --  -10.27110 -10.26605 -10.26518 -10.25452 -10.25368
 Alpha  occ. eigenvalues --  -10.24955 -10.24927 -10.24803 -10.24425 -10.24253
 Alpha  occ. eigenvalues --  -10.24198 -10.23923 -10.23336 -10.23307 -10.22808
 Alpha  occ. eigenvalues --  -10.22394 -10.21773 -10.20207 -10.19814  -1.20271
 Alpha  occ. eigenvalues --   -1.16161  -1.13992  -1.12913  -1.11198  -1.10452
 Alpha  occ. eigenvalues --   -1.10156  -1.08194  -1.07792  -1.07252  -1.07030
 Alpha  occ. eigenvalues --   -1.06484  -1.04353  -1.02501  -1.01696  -0.99855
 Alpha  occ. eigenvalues --   -0.98630  -0.96992  -0.96764  -0.95616  -0.93408
 Alpha  occ. eigenvalues --   -0.90316  -0.89434  -0.87708  -0.86434  -0.85498
 Alpha  occ. eigenvalues --   -0.84557  -0.84396  -0.82974  -0.81674  -0.81001
 Alpha  occ. eigenvalues --   -0.80220  -0.79716  -0.78912  -0.78120  -0.76374
 Alpha  occ. eigenvalues --   -0.76200  -0.74682  -0.73851  -0.73697  -0.72624
 Alpha  occ. eigenvalues --   -0.72525  -0.71542  -0.71100  -0.69747  -0.68473
 Alpha  occ. eigenvalues --   -0.67808  -0.67687  -0.67304  -0.66888  -0.66036
 Alpha  occ. eigenvalues --   -0.65658  -0.65617  -0.65080  -0.64668  -0.63726
 Alpha  occ. eigenvalues --   -0.63268  -0.63228  -0.62985  -0.62546  -0.61726
 Alpha  occ. eigenvalues --   -0.61406  -0.60688  -0.60018  -0.59811  -0.59208
 Alpha  occ. eigenvalues --   -0.57912  -0.57497  -0.56842  -0.56725  -0.56241
 Alpha  occ. eigenvalues --   -0.56080  -0.55260  -0.54822  -0.54667  -0.54394
 Alpha  occ. eigenvalues --   -0.54027  -0.53948  -0.53519  -0.53470  -0.53338
 Alpha  occ. eigenvalues --   -0.52933  -0.52555  -0.52347  -0.52120  -0.51978
 Alpha  occ. eigenvalues --   -0.51837  -0.51456  -0.51356  -0.51063  -0.50895
 Alpha  occ. eigenvalues --   -0.50505  -0.49820  -0.49688  -0.49558  -0.49361
 Alpha  occ. eigenvalues --   -0.49209  -0.48913  -0.48298  -0.48240  -0.48113
 Alpha  occ. eigenvalues --   -0.47796  -0.47391  -0.46912  -0.46866  -0.46572
 Alpha  occ. eigenvalues --   -0.46409  -0.46132  -0.45966  -0.45466  -0.45279
 Alpha  occ. eigenvalues --   -0.44930  -0.44649  -0.44457  -0.44417  -0.44099
 Alpha  occ. eigenvalues --   -0.43627  -0.43455  -0.43408  -0.43322  -0.43198
 Alpha  occ. eigenvalues --   -0.43075  -0.42733  -0.42551  -0.42157  -0.41884
 Alpha  occ. eigenvalues --   -0.41871  -0.41770  -0.41555  -0.41089  -0.40651
 Alpha  occ. eigenvalues --   -0.40181  -0.39974  -0.39901  -0.39625  -0.39288
 Alpha  occ. eigenvalues --   -0.39215  -0.38901  -0.38485  -0.38176  -0.37750
 Alpha  occ. eigenvalues --   -0.37394  -0.37256  -0.36630  -0.36334  -0.36224
 Alpha  occ. eigenvalues --   -0.36003  -0.35148  -0.33957  -0.33637  -0.33270
 Alpha  occ. eigenvalues --   -0.32869  -0.32523  -0.32397  -0.32189  -0.32083
 Alpha  occ. eigenvalues --   -0.31507  -0.30565  -0.29903  -0.29169  -0.28666
 Alpha  occ. eigenvalues --   -0.28528  -0.28509  -0.26972
 Alpha virt. eigenvalues --   -0.12767  -0.10503  -0.07770  -0.07186  -0.05744
 Alpha virt. eigenvalues --   -0.05383  -0.04580  -0.04396  -0.03848  -0.03730
 Alpha virt. eigenvalues --   -0.03005  -0.02726  -0.01370  -0.01268  -0.00883

 Mulliken charges:
               1
     1  N   -0.567176
     2  H    0.347950
     3  H    0.345724
     4  H    0.385407
     5  C   -0.089904
     6  H    0.190911
     7  C    0.646951
     8  C   -0.345123
     9  H    0.178497
    10  H    0.155310
    11  H    0.153082
    12  O   -0.545391
    13  N   -0.527421
    14  H    0.307663
    15  C   -0.020021
    16  H    0.165961
    17  C    0.603152
    18  C   -0.239933
    19  H    0.134061
    20  H    0.117589
    21  O   -0.558438
    22  C   -0.027740
    23  C    0.082180
    24  H    0.126177
    25  C    0.074219
    26  C    0.280344
    27  C   -0.163405
    28  H    0.086982
    29  N   -0.600033
    30  H    0.275834
    31  C   -0.104702
    32  H    0.094313
    33  C   -0.093553
    34  H    0.093902
    35  C   -0.096407
    36  H    0.083579
    37  N   -0.525135
    38  H    0.308747
    39  C   -0.038573
    40  H    0.140770
    41  C    0.605463
    42  C   -0.166208
    43  H    0.137984
    44  H    0.127923
    45  O   -0.557453
    46  C   -0.258507
    47  H    0.153022
    48  H    0.134220
    49  C    0.565451
    50  O   -0.459989
    51  O   -0.478018
    52  N   -0.523155
    53  H    0.287282
    54  C   -0.007894
    55  H    0.124635
    56  C    0.621320
    57  C   -0.048855
    58  H    0.114269
    59  O   -0.552745
    60  C   -0.353301
    61  H    0.088178
    62  H    0.112483
    63  H    0.157231
    64  C   -0.313236
    65  H    0.107740
    66  H    0.096413
    67  H    0.110378
    68  N   -0.505956
    69  H    0.276054
    70  C    0.015718
    71  H    0.127806
    72  C    0.627824
    73  C    0.145173
    74  H    0.101675
    75  O   -0.554792
    76  C   -0.339481
    77  H    0.130353
    78  H    0.125273
    79  H    0.104937
    80  O   -0.551257
    81  H    0.312383
    82  N   -0.516659
    83  H    0.283474
    84  C   -0.007302
    85  H    0.119115
    86  C    0.610462
    87  C   -0.038818
    88  H    0.107492
    89  O   -0.542327
    90  C   -0.350757
    91  H    0.086089
    92  H    0.147088
    93  H    0.104235
    94  C   -0.340832
    95  H    0.115737
    96  H    0.088047
    97  H    0.134185
    98  N   -0.521249
    99  H    0.263551
   100  C    0.007134
   101  H    0.154146
   102  C    0.585641
   103  C   -0.202651
   104  H    0.094826
   105  H    0.116743
   106  O   -0.559128
   107  C   -0.201083
   108  H    0.108633
   109  H    0.144982
   110  C   -0.206297
   111  H    0.104284
   112  H    0.107293
   113  C   -0.076257
   114  H    0.130285
   115  H    0.107918
   116  N   -0.649241
   117  H    0.276564
   118  H    0.378573
   119  H    0.275166
   120  O   -0.444786
   121  H    0.329038
 Sum of Mulliken charges =   1.00000

 Dipole moment (field-independent basis, Debye):
    X=            -11.7045    Y=            -12.8678    Z=            -13.7913  Tot=             22.1986
 Quadrupole moment (field-independent basis, Debye-Ang):
   XX=           -103.4280   YY=           -161.7572   ZZ=           -151.0158
   XY=            151.2264   XZ=            217.9027   YZ=            132.0394

 Normal termination of Gaussian 16 at Sun Sep  4 01:08:44 2022.
