 Gaussian 16, Revision C.01,
 Gaussian 16:  ES64L-G16RevC.01  3-Jul-2019

 ----------------------------------------------------------------------
 # B3LYP/6-31G** empiricaldispersion=gd3bj guess=read geom=check nosymm
  integral(ultrafinegrid)
 ----------------------------------------------------------------------

 ------------------------------------------------------
 Candidate Structure: Conf:879 Charge calc in gas phase
 ------------------------------------------------------
 Structure from the checkpoint file:  "conf-879.chk"
 Charge =  1 Multiplicity = 1

                          Input orientation:
 ---------------------------------------------------------------------
 Center     Atomic      Atomic             Coordinates (Angstroms)
 Number     Number       Type             X           Y           Z
 ---------------------------------------------------------------------
      1          7           0       -2.553618   -1.914094   -8.552973
      2          1           0       -2.449257   -0.882102   -8.549487
      3          1           0       -2.509364   -2.291361   -9.499892
      4          1           0       -1.719428   -2.272225   -8.001942
      5          6           0       -3.879038   -2.175735   -7.883146
      6          1           0       -4.646154   -2.095116   -8.659801
      7          6           0       -4.020942   -0.986658   -6.900890
      8          6           0       -3.906429   -3.552853   -7.225487
      9          1           0       -4.929595   -3.810627   -6.941783
     10          1           0       -3.567375   -4.324572   -7.921488
     11          1           0       -3.291303   -3.574189   -6.323048
     12          8           0       -3.253971   -0.029847   -7.041769
     13          7           0       -4.946795   -1.075646   -5.925337
     14          1           0       -5.334668   -1.995780   -5.756028
     15          6           0       -4.691953   -0.323544   -4.683993
     16          1           0       -4.382761    0.679406   -4.973477
     17          6           0       -3.532326   -1.062586   -3.995730
     18          6           0       -5.920303   -0.263226   -3.758323
     19          1           0       -6.680175    0.375831   -4.221691
     20          1           0       -6.345828   -1.268465   -3.663827
     21          8           0       -3.524930   -2.297686   -3.966571
     22          6           0       -5.498920    0.227564   -2.403664
     23          6           0       -5.507582   -0.502925   -1.239983
     24          1           0       -5.907612   -1.488964   -1.052672
     25          6           0       -4.815467    1.465494   -2.109128
     26          6           0       -4.434033    1.414443   -0.739319
     27          6           0       -4.450026    2.590222   -2.871582
     28          1           0       -4.749989    2.679359   -3.912012
     29          7           0       -4.876216    0.205173   -0.237583
     30          1           0       -4.798039   -0.089369    0.722080
     31          6           0       -3.361701    3.535971   -0.908553
     32          1           0       -2.799762    4.350856   -0.464732
     33          6           0       -3.721135    2.447251   -0.124166
     34          1           0       -3.459839    2.403903    0.928179
     35          6           0       -3.720514    3.606734   -2.268509
     36          1           0       -3.429254    4.475792   -2.848574
     37          7           0       -2.531777   -0.291675   -3.537753
     38          1           0       -2.616676    0.719819   -3.504018
     39          6           0       -1.356468   -0.853826   -2.891157
     40          1           0       -1.651765   -1.807487   -2.444390
     41          6           0       -0.948241    0.171458   -1.831457
     42          6           0       -0.212777   -1.088495   -3.909598
     43          1           0        0.215443   -0.121853   -4.192025
     44          1           0        0.579479   -1.674022   -3.434238
     45          8           0       -0.941646    1.368922   -2.115988
     46          6           0       -0.762459   -1.803128   -5.147511
     47          1           0       -1.309786   -2.704986   -4.847113
     48          1           0       -1.497210   -1.160453   -5.637188
     49          6           0        0.185764   -2.225937   -6.227424
     50          8           0       -0.187843   -2.538778   -7.359985
     51          8           0        1.464037   -2.280992   -5.876047
     52          7           0       -0.641867   -0.309331   -0.607996
     53          1           0       -0.542883   -1.305155   -0.469564
     54          6           0       -0.182058    0.584799    0.457122
     55          1           0       -0.741938    1.516127    0.330885
     56          6           0        1.315339    0.830091    0.218805
     57          6           0       -0.447199   -0.004429    1.848113
     58          1           0        0.160890   -0.914111    1.931198
     59          8           0        2.167473    0.026062    0.611035
     60          6           0        0.021804    0.981318    2.925785
     61          1           0       -0.543273    1.918979    2.867570
     62          1           0       -0.134204    0.559911    3.922358
     63          1           0        1.084303    1.212653    2.825364
     64          6           0       -1.927114   -0.356574    2.039534
     65          1           0       -2.539550    0.552022    2.022101
     66          1           0       -2.300180   -1.026364    1.258942
     67          1           0       -2.079787   -0.842441    3.007097
     68          7           0        1.606410    1.935123   -0.491939
     69          1           0        0.870182    2.543393   -0.831138
     70          6           0        2.962037    2.248877   -0.924732
     71          1           0        3.478430    1.304770   -1.129440
     72          6           0        3.707271    2.975375    0.213499
     73          6           0        2.900740    3.120263   -2.190355
     74          1           0        3.933900    3.407575   -2.431302
     75          8           0        3.957161    4.189494    0.146165
     76          6           0        2.285358    2.390058   -3.376266
     77          1           0        2.858958    1.488441   -3.614584
     78          1           0        1.249898    2.109346   -3.164057
     79          1           0        2.288949    3.048546   -4.247972
     80          8           0        2.108789    4.270741   -1.928020
     81          1           0        2.598186    4.745701   -1.232488
     82          7           0        4.007467    2.185596    1.256715
     83          1           0        3.798229    1.195451    1.165482
     84          6           0        4.739086    2.633464    2.432865
     85          1           0        4.675995    3.722357    2.444321
     86          6           0        6.206051    2.206657    2.268195
     87          6           0        4.108977    2.090636    3.739034
     88          1           0        3.109540    2.544810    3.789433
     89          8           0        6.504600    1.044584    2.019490
     90          6           0        3.949434    0.564473    3.762447
     91          1           0        4.917388    0.069887    3.657154
     92          1           0        3.296947    0.201169    2.962835
     93          1           0        3.502460    0.257026    4.713008
     94          6           0        4.917255    2.571972    4.951013
     95          1           0        5.892662    2.074937    4.992778
     96          1           0        4.392961    2.332063    5.879937
     97          1           0        5.082683    3.654423    4.928337
     98          7           0        7.112549    3.219969    2.427733
     99          1           0        7.904574    3.043090    4.268634
    100          6           0        8.501721    3.008540    2.018633
    101          1           0        8.538433    2.077460    1.443703
    102          6           0        9.439665    2.808510    3.218685
    103          6           0        8.989749    4.187341    1.159882
    104          1           0       10.021687    3.978382    0.871735
    105          1           0        9.029832    5.076651    1.798392
    106          8           0        8.850717    2.866754    4.429203
    107          6           0        8.088596    4.438083   -0.068048
    108          1           0        8.581751    4.066515   -0.972387
    109          1           0        7.167856    3.854121    0.029342
    110          6           0        7.695205    5.907501   -0.293474
    111          1           0        8.565409    6.488132   -0.622747
    112          1           0        6.971875    5.944706   -1.118071
    113          6           0        7.098733    6.624158    0.925004
    114          1           0        6.706289    7.596711    0.592643
    115          1           0        7.887219    6.845349    1.652859
    116          7           0        6.079171    5.810254    1.612310
    117          1           0        5.612547    6.376356    2.317049
    118          1           0        5.355295    5.498057    0.962997
    119          1           0        6.746381    4.185003    2.294379
    120          8           0       10.625277    2.629108    3.083827
    121          1           0        1.982523   -2.590389   -6.640536
 ---------------------------------------------------------------------

 SCF Done:  E(RB3LYP) =  -2844.07119130     A.U. after    3 cycles

 Alpha  occ. eigenvalues --  -19.32991 -19.28018 -19.27214 -19.22345 -19.21823
 Alpha  occ. eigenvalues --  -19.21647 -19.20056 -19.19850 -19.19673 -19.16786
 Alpha  occ. eigenvalues --  -19.15534 -14.57789 -14.49670 -14.46635 -14.46549
 Alpha  occ. eigenvalues --  -14.46287 -14.44148 -14.42658 -14.39985 -14.37702
 Alpha  occ. eigenvalues --  -10.45921 -10.43884 -10.40622 -10.39356 -10.38955
 Alpha  occ. eigenvalues --  -10.36754 -10.36189 -10.34579 -10.34089 -10.34018
 Alpha  occ. eigenvalues --  -10.33574 -10.33161 -10.31766 -10.31545 -10.30667
 Alpha  occ. eigenvalues --  -10.30521 -10.30400 -10.30332 -10.30069 -10.29835
 Alpha  occ. eigenvalues --  -10.28718 -10.27779 -10.27154 -10.27019 -10.26822
 Alpha  occ. eigenvalues --  -10.26736 -10.26657 -10.26144 -10.26123 -10.26123
 Alpha  occ. eigenvalues --  -10.25860 -10.25437 -10.24985 -10.24260 -10.23219
 Alpha  occ. eigenvalues --  -10.23153 -10.23096 -10.22863 -10.22000  -1.24319
 Alpha  occ. eigenvalues --   -1.19469  -1.15021  -1.14666  -1.13793  -1.12420
 Alpha  occ. eigenvalues --   -1.12407  -1.11947  -1.10902  -1.08604  -1.07751
 Alpha  occ. eigenvalues --   -1.06382  -1.06140  -1.04107  -1.03372  -1.02799
 Alpha  occ. eigenvalues --   -1.00636  -0.99225  -0.97053  -0.93845  -0.93300
 Alpha  occ. eigenvalues --   -0.91973  -0.91724  -0.90118  -0.89434  -0.86768
 Alpha  occ. eigenvalues --   -0.85999  -0.84738  -0.84325  -0.84186  -0.81543
 Alpha  occ. eigenvalues --   -0.81095  -0.80482  -0.79959  -0.79803  -0.78428
 Alpha  occ. eigenvalues --   -0.77022  -0.76626  -0.75703  -0.75219  -0.73763
 Alpha  occ. eigenvalues --   -0.73330  -0.72986  -0.72946  -0.72118  -0.70272
 Alpha  occ. eigenvalues --   -0.70145  -0.69611  -0.68855  -0.67812  -0.67405
 Alpha  occ. eigenvalues --   -0.67337  -0.67131  -0.66589  -0.65419  -0.65164
 Alpha  occ. eigenvalues --   -0.64778  -0.64510  -0.64161  -0.62830  -0.62540
 Alpha  occ. eigenvalues --   -0.62287  -0.61966  -0.61565  -0.61397  -0.60886
 Alpha  occ. eigenvalues --   -0.60784  -0.60160  -0.59360  -0.59273  -0.58662
 Alpha  occ. eigenvalues --   -0.58234  -0.58086  -0.57542  -0.56801  -0.56477
 Alpha  occ. eigenvalues --   -0.56309  -0.55894  -0.55567  -0.54928  -0.54832
 Alpha  occ. eigenvalues --   -0.54441  -0.53955  -0.53707  -0.53612  -0.53358
 Alpha  occ. eigenvalues --   -0.53265  -0.52898  -0.52651  -0.52345  -0.52199
 Alpha  occ. eigenvalues --   -0.51629  -0.51320  -0.51291  -0.51124  -0.50989
 Alpha  occ. eigenvalues --   -0.50701  -0.50647  -0.50454  -0.50027  -0.49776
 Alpha  occ. eigenvalues --   -0.49592  -0.49145  -0.48939  -0.48636  -0.47997
 Alpha  occ. eigenvalues --   -0.47886  -0.47820  -0.47660  -0.47393  -0.47015
 Alpha  occ. eigenvalues --   -0.46918  -0.46450  -0.46354  -0.46228  -0.46125
 Alpha  occ. eigenvalues --   -0.45830  -0.45800  -0.45724  -0.45054  -0.44978
 Alpha  occ. eigenvalues --   -0.44766  -0.44265  -0.44010  -0.43572  -0.43478
 Alpha  occ. eigenvalues --   -0.43432  -0.43169  -0.42989  -0.42274  -0.42022
 Alpha  occ. eigenvalues --   -0.41907  -0.41709  -0.41698  -0.41640  -0.41315
 Alpha  occ. eigenvalues --   -0.41289  -0.40937  -0.40089  -0.40075  -0.39640
 Alpha  occ. eigenvalues --   -0.39227  -0.39084  -0.38945  -0.37799  -0.37458
 Alpha  occ. eigenvalues --   -0.37200  -0.37049  -0.36825  -0.36002  -0.35938
 Alpha  occ. eigenvalues --   -0.35466  -0.34745  -0.33647  -0.33532  -0.33382
 Alpha  occ. eigenvalues --   -0.32911  -0.32734  -0.31546  -0.30679  -0.30262
 Alpha  occ. eigenvalues --   -0.29557  -0.28707  -0.28197
 Alpha virt. eigenvalues --   -0.13701  -0.12538  -0.09465  -0.09213  -0.08670
 Alpha virt. eigenvalues --   -0.07883  -0.06563  -0.05672  -0.05025  -0.04437
 Alpha virt. eigenvalues --   -0.03814  -0.03271  -0.02804  -0.02313  -0.02184

 Mulliken charges:
               1
     1  N   -0.567497
     2  H    0.350426
     3  H    0.338103
     4  H    0.386794
     5  C   -0.089299
     6  H    0.187833
     7  C    0.639247
     8  C   -0.352146
     9  H    0.154653
    10  H    0.146249
    11  H    0.173079
    12  O   -0.526042
    13  N   -0.502623
    14  H    0.285657
    15  C   -0.028892
    16  H    0.151238
    17  C    0.612362
    18  C   -0.239415
    19  H    0.138057
    20  H    0.112539
    21  O   -0.570217
    22  C    0.001536
    23  C    0.073736
    24  H    0.122580
    25  C    0.059359
    26  C    0.288069
    27  C   -0.186812
    28  H    0.086200
    29  N   -0.615966
    30  H    0.271567
    31  C   -0.095649
    32  H    0.098587
    33  C   -0.098731
    34  H    0.093194
    35  C   -0.076664
    36  H    0.098467
    37  N   -0.512346
    38  H    0.305232
    39  C   -0.017178
    40  H    0.135730
    41  C    0.618457
    42  C   -0.176067
    43  H    0.143944
    44  H    0.136023
    45  O   -0.533126
    46  C   -0.304285
    47  H    0.182454
    48  H    0.147641
    49  C    0.612823
    50  O   -0.529057
    51  O   -0.439974
    52  N   -0.532401
    53  H    0.276348
    54  C    0.012041
    55  H    0.133163
    56  C    0.615582
    57  C   -0.086907
    58  H    0.121466
    59  O   -0.555171
    60  C   -0.333362
    61  H    0.103216
    62  H    0.120577
    63  H    0.135216
    64  C   -0.324750
    65  H    0.100946
    66  H    0.092360
    67  H    0.124381
    68  N   -0.507232
    69  H    0.296431
    70  C   -0.040289
    71  H    0.139912
    72  C    0.632875
    73  C    0.147607
    74  H    0.103145
    75  O   -0.570138
    76  C   -0.337256
    77  H    0.095163
    78  H    0.130326
    79  H    0.124020
    80  O   -0.560656
    81  H    0.326963
    82  N   -0.520108
    83  H    0.311537
    84  C   -0.015667
    85  H    0.116555
    86  C    0.599686
    87  C   -0.066009
    88  H    0.094991
    89  O   -0.516510
    90  C   -0.345190
    91  H    0.145831
    92  H    0.114345
    93  H    0.101414
    94  C   -0.330787
    95  H    0.124040
    96  H    0.116856
    97  H    0.100976
    98  N   -0.611699
    99  H    0.332968
   100  C   -0.028605
   101  H    0.162586
   102  C    0.603573
   103  C   -0.195308
   104  H    0.141583
   105  H    0.103288
   106  O   -0.492909
   107  C   -0.186257
   108  H    0.104064
   109  H    0.099152
   110  C   -0.196372
   111  H    0.108828
   112  H    0.098356
   113  C   -0.049555
   114  H    0.094209
   115  H    0.111468
   116  N   -0.670471
   117  H    0.250736
   118  H    0.293969
   119  H    0.330194
   120  O   -0.457160
   121  H    0.347975
 Sum of Mulliken charges =   1.00000

 Dipole moment (field-independent basis, Debye):
    X=            -17.9085    Y=             -5.6506    Z=            -28.5677  Tot=             34.1871
 Quadrupole moment (field-independent basis, Debye-Ang):
   XX=           -365.3668   YY=           -296.5785   ZZ=           -105.3961
   XY=             45.6818   XZ=             38.1847   YZ=             79.3310

 Normal termination of Gaussian 16 at Sun Sep  4 01:07:23 2022.
