 Gaussian 16, Revision C.01,
 Gaussian 16:  ES64L-G16RevC.01  3-Jul-2019

 ----------------------------------------------------------------------
 # B3LYP/6-31G** empiricaldispersion=gd3bj guess=read geom=check nosymm
  integral(ultrafinegrid)
 ----------------------------------------------------------------------

 ------------------------------------------------------
 Candidate Structure: Conf:205 Charge calc in gas phase
 ------------------------------------------------------
 Structure from the checkpoint file:  "conf-205.chk"
 Charge =  1 Multiplicity = 1

                          Input orientation:
 ---------------------------------------------------------------------
 Center     Atomic      Atomic             Coordinates (Angstroms)
 Number     Number       Type             X           Y           Z
 ---------------------------------------------------------------------
      1          7           0       -4.965623   -2.183103   -5.514913
      2          1           0       -4.738274   -2.459050   -6.471271
      3          1           0       -4.163795   -2.346514   -4.840848
      4          1           0       -5.184446   -1.181579   -5.461007
      5          6           0       -6.144532   -2.940195   -4.925277
      6          1           0       -7.036153   -2.626368   -5.472984
      7          6           0       -6.152819   -2.308075   -3.511270
      8          6           0       -5.899448   -4.435819   -5.038035
      9          1           0       -6.721836   -4.981674   -4.568421
     10          1           0       -5.862828   -4.749991   -6.085179
     11          1           0       -4.962366   -4.720703   -4.550652
     12          8           0       -6.165982   -1.084577   -3.446480
     13          7           0       -5.951860   -3.137217   -2.460761
     14          1           0       -5.855127   -4.126606   -2.667019
     15          6           0       -5.000808   -2.716409   -1.443696
     16          1           0       -5.377758   -1.833427   -0.922173
     17          6           0       -3.669429   -2.340034   -2.150331
     18          6           0       -4.807353   -3.883551   -0.434408
     19          1           0       -4.003627   -3.617144    0.258532
     20          1           0       -5.724760   -3.960740    0.156007
     21          8           0       -3.464853   -2.580451   -3.357902
     22          6           0       -4.519152   -5.192622   -1.108909
     23          6           0       -5.441430   -6.181884   -1.378565
     24          1           0       -6.482094   -6.245229   -1.092310
     25          6           0       -3.264200   -5.637582   -1.670834
     26          6           0       -3.501953   -6.902333   -2.273950
     27          6           0       -1.963149   -5.107726   -1.699533
     28          1           0       -1.744440   -4.164640   -1.216251
     29          7           0       -4.839767   -7.201586   -2.089054
     30          1           0       -5.271659   -8.084561   -2.309614
     31          6           0       -1.219862   -7.069251   -2.935641
     32          1           0       -0.411108   -7.607275   -3.418884
     33          6           0       -2.490993   -7.628193   -2.912842
     34          1           0       -2.688877   -8.595055   -3.364660
     35          6           0       -0.956851   -5.823072   -2.330217
     36          1           0        0.051288   -5.422298   -2.351411
     37          7           0       -2.748702   -1.787596   -1.368408
     38          1           0       -2.914347   -1.603563   -0.381434
     39          6           0       -1.379005   -1.499784   -1.790283
     40          1           0       -1.083586   -2.240850   -2.531466
     41          6           0       -0.546600   -1.657643   -0.505641
     42          6           0       -1.319945   -0.088648   -2.423183
     43          1           0       -1.845882   -0.164036   -3.380392
     44          1           0       -1.906909    0.582873   -1.789224
     45          8           0       -1.032880   -1.341250    0.581766
     46          6           0        0.054495    0.554327   -2.623794
     47          1           0       -0.048908    1.465611   -3.221337
     48          1           0        0.473752    0.909813   -1.672789
     49          6           0        1.141388   -0.292778   -3.241814
     50          8           0        1.116632   -1.513541   -3.350317
     51          8           0        2.190925    0.442174   -3.590235
     52          7           0        0.681033   -2.185137   -0.683584
     53          1           0        0.985209   -2.318131   -1.645074
     54          6           0        1.669536   -2.296256    0.387443
     55          1           0        1.233241   -1.780445    1.249327
     56          6           0        2.918188   -1.520944   -0.078890
     57          6           0        1.986134   -3.747429    0.787612
     58          1           0        2.524681   -4.211143   -0.047839
     59          8           0        3.984556   -2.077525   -0.369456
     60          6           0        2.900227   -3.761705    2.020191
     61          1           0        2.404122   -3.286942    2.875239
     62          1           0        3.133975   -4.791370    2.305299
     63          1           0        3.841223   -3.243737    1.827940
     64          6           0        0.697295   -4.528905    1.061061
     65          1           0        0.100554   -4.039722    1.838969
     66          1           0        0.076183   -4.620563    0.168534
     67          1           0        0.934554   -5.539848    1.404656
     68          7           0        2.738206   -0.191069   -0.186623
     69          1           0        1.851024    0.240941    0.057099
     70          6           0        3.822080    0.769240   -0.303799
     71          1           0        4.607408    0.500258    0.413703
     72          6           0        3.178196    2.121918    0.058775
     73          6           0        4.467047    0.875963   -1.725723
     74          1           0        3.871713    1.583621   -2.309671
     75          8           0        1.957453    2.270432   -0.077192
     76          6           0        5.912919    1.360038   -1.653745
     77          1           0        5.991194    2.374869   -1.252494
     78          1           0        6.513611    0.685184   -1.033803
     79          1           0        6.333565    1.358259   -2.662614
     80          8           0        4.396192   -0.356233   -2.449866
     81          1           0        4.495078   -1.099901   -1.816884
     82          7           0        4.022469    3.068591    0.475502
     83          1           0        5.026087    2.910808    0.508759
     84          6           0        3.691148    4.483912    0.580639
     85          1           0        2.805379    4.671621   -0.032711
     86          6           0        4.930755    5.209611    0.020956
     87          6           0        3.400539    4.925339    2.045076
     88          1           0        4.366411    4.942298    2.569007
     89          8           0        6.041153    4.642342    0.105438
     90          6           0        2.781269    6.328897    2.092767
     91          1           0        1.803248    6.329470    1.596998
     92          1           0        3.386732    7.099799    1.612781
     93          1           0        2.620518    6.626953    3.133233
     94          6           0        2.485168    3.918719    2.752969
     95          1           0        1.539084    3.807331    2.214483
     96          1           0        2.264386    4.264831    3.767210
     97          1           0        2.947199    2.930890    2.828089
     98          7           0        4.711319    6.411155   -0.496815
     99          1           0        3.795428    6.900159   -0.427094
    100          6           0        5.688126    7.471015   -0.705950
    101          1           0        6.337424    7.543816    0.177249
    102          6           0        4.827315    8.811937   -0.771170
    103          6           0        6.558769    7.340538   -1.950478
    104          1           0        6.869371    8.366092   -2.182481
    105          1           0        5.945143    6.980079   -2.786247
    106          8           0        5.456174    9.822024   -1.120695
    107          6           0        7.785941    6.445951   -1.767122
    108          1           0        8.348123    6.795272   -0.890813
    109          1           0        7.482886    5.418522   -1.545027
    110          6           0        8.703541    6.500976   -2.996412
    111          1           0        8.173339    6.113335   -3.877238
    112          1           0        8.961787    7.548819   -3.204810
    113          6           0        9.966847    5.699392   -2.759479
    114          1           0        9.775346    4.630982   -2.641723
    115          1           0       10.531374    6.059177   -1.896868
    116          7           0       10.914009    5.832109   -3.962489
    117          1           0       11.787341    5.309644   -3.842231
    118          1           0       10.453379    5.497144   -4.814634
    119          1           0       11.148430    6.818685   -4.114522
    120          8           0        3.615997    8.650722   -0.450271
    121          1           0        3.014779   -0.108393   -3.495936
 ---------------------------------------------------------------------

 SCF Done:  E(RB3LYP) =  -2843.97682844     A.U. after    3 cycles

 Alpha  occ. eigenvalues --  -19.24112 -19.24025 -19.23632 -19.20952 -19.20573
 Alpha  occ. eigenvalues --  -19.19616 -19.19323 -19.17455 -19.14424 -19.06392
 Alpha  occ. eigenvalues --  -19.05401 -14.61942 -14.57135 -14.46837 -14.46723
 Alpha  occ. eigenvalues --  -14.46410 -14.43366 -14.42655 -14.40783 -14.36198
 Alpha  occ. eigenvalues --  -10.41279 -10.40047 -10.38713 -10.38690 -10.38222
 Alpha  occ. eigenvalues --  -10.36578 -10.35962 -10.34507 -10.34363 -10.31849
 Alpha  occ. eigenvalues --  -10.31690 -10.31097 -10.30937 -10.30359 -10.30291
 Alpha  occ. eigenvalues --  -10.29795 -10.29751 -10.29682 -10.29646 -10.27651
 Alpha  occ. eigenvalues --  -10.27386 -10.26853 -10.26811 -10.26648 -10.26399
 Alpha  occ. eigenvalues --  -10.26269 -10.26227 -10.25784 -10.24812 -10.24294
 Alpha  occ. eigenvalues --  -10.24175 -10.23361 -10.22592 -10.22273 -10.22212
 Alpha  occ. eigenvalues --  -10.21797 -10.20673 -10.19933 -10.18757  -1.17126
 Alpha  occ. eigenvalues --   -1.16232  -1.15809  -1.14605  -1.11700  -1.11468
 Alpha  occ. eigenvalues --   -1.11166  -1.09208  -1.08097  -1.07044  -1.06575
 Alpha  occ. eigenvalues --   -1.05598  -1.04530  -1.03009  -1.00558  -0.99532
 Alpha  occ. eigenvalues --   -0.98839  -0.97489  -0.93491  -0.92106  -0.91524
 Alpha  occ. eigenvalues --   -0.91298  -0.90662  -0.89573  -0.88318  -0.86297
 Alpha  occ. eigenvalues --   -0.85106  -0.84717  -0.82844  -0.82261  -0.81719
 Alpha  occ. eigenvalues --   -0.81574  -0.80318  -0.79373  -0.78806  -0.77185
 Alpha  occ. eigenvalues --   -0.76284  -0.75706  -0.74548  -0.74326  -0.73546
 Alpha  occ. eigenvalues --   -0.73123  -0.72683  -0.72361  -0.70633  -0.70341
 Alpha  occ. eigenvalues --   -0.70298  -0.69606  -0.68738  -0.68235  -0.67983
 Alpha  occ. eigenvalues --   -0.67574  -0.66222  -0.65689  -0.65249  -0.64969
 Alpha  occ. eigenvalues --   -0.64788  -0.64288  -0.63638  -0.62976  -0.62470
 Alpha  occ. eigenvalues --   -0.62046  -0.61985  -0.61324  -0.60014  -0.59086
 Alpha  occ. eigenvalues --   -0.58798  -0.58262  -0.58070  -0.57528  -0.57356
 Alpha  occ. eigenvalues --   -0.57057  -0.56950  -0.56744  -0.55848  -0.55368
 Alpha  occ. eigenvalues --   -0.54982  -0.54747  -0.54383  -0.54351  -0.53730
 Alpha  occ. eigenvalues --   -0.53157  -0.52539  -0.52440  -0.52416  -0.52052
 Alpha  occ. eigenvalues --   -0.51691  -0.51616  -0.51468  -0.51297  -0.51148
 Alpha  occ. eigenvalues --   -0.50960  -0.50691  -0.50459  -0.50264  -0.50057
 Alpha  occ. eigenvalues --   -0.49603  -0.49292  -0.49233  -0.49143  -0.48282
 Alpha  occ. eigenvalues --   -0.48057  -0.47752  -0.47604  -0.47242  -0.46843
 Alpha  occ. eigenvalues --   -0.46617  -0.46355  -0.46245  -0.46021  -0.45947
 Alpha  occ. eigenvalues --   -0.45512  -0.45399  -0.44720  -0.44237  -0.43845
 Alpha  occ. eigenvalues --   -0.43690  -0.43656  -0.43244  -0.43134  -0.42952
 Alpha  occ. eigenvalues --   -0.42827  -0.42458  -0.42297  -0.42222  -0.41949
 Alpha  occ. eigenvalues --   -0.41542  -0.41422  -0.41369  -0.40691  -0.40350
 Alpha  occ. eigenvalues --   -0.39849  -0.39694  -0.39143  -0.38795  -0.38527
 Alpha  occ. eigenvalues --   -0.38470  -0.37986  -0.37851  -0.37533  -0.36850
 Alpha  occ. eigenvalues --   -0.36806  -0.36354  -0.36200  -0.35869  -0.35684
 Alpha  occ. eigenvalues --   -0.35676  -0.35365  -0.34805  -0.34123  -0.33862
 Alpha  occ. eigenvalues --   -0.33692  -0.33422  -0.32499  -0.31798  -0.31140
 Alpha  occ. eigenvalues --   -0.30578  -0.30207  -0.29008  -0.28409  -0.27305
 Alpha  occ. eigenvalues --   -0.21536  -0.21259  -0.19776
 Alpha virt. eigenvalues --   -0.12596  -0.12226  -0.09603  -0.09357  -0.07295
 Alpha virt. eigenvalues --   -0.06934  -0.06270  -0.05893  -0.05692  -0.05504
 Alpha virt. eigenvalues --   -0.04630  -0.03372  -0.03120  -0.02834  -0.02196

 Mulliken charges:
               1
     1  N   -0.549669
     2  H    0.335337
     3  H    0.395612
     4  H    0.352590
     5  C   -0.068795
     6  H    0.181221
     7  C    0.585284
     8  C   -0.365291
     9  H    0.159510
    10  H    0.139043
    11  H    0.169733
    12  O   -0.501944
    13  N   -0.496361
    14  H    0.277208
    15  C   -0.033395
    16  H    0.167416
    17  C    0.660055
    18  C   -0.263700
    19  H    0.141894
    20  H    0.140054
    21  O   -0.617188
    22  C   -0.016676
    23  C    0.040794
    24  H    0.127654
    25  C    0.069428
    26  C    0.271741
    27  C   -0.118968
    28  H    0.082233
    29  N   -0.607100
    30  H    0.273111
    31  C   -0.106220
    32  H    0.101561
    33  C   -0.096977
    34  H    0.095752
    35  C   -0.104574
    36  H    0.098118
    37  N   -0.518741
    38  H    0.298256
    39  C   -0.014621
    40  H    0.158364
    41  C    0.576962
    42  C   -0.166555
    43  H    0.110405
    44  H    0.127920
    45  O   -0.544886
    46  C   -0.295213
    47  H    0.150465
    48  H    0.180196
    49  C    0.596365
    50  O   -0.518347
    51  O   -0.490411
    52  N   -0.541941
    53  H    0.309800
    54  C   -0.003971
    55  H    0.147340
    56  C    0.599957
    57  C   -0.047316
    58  H    0.105129
    59  O   -0.560980
    60  C   -0.327162
    61  H    0.102712
    62  H    0.109779
    63  H    0.128631
    64  C   -0.324638
    65  H    0.111897
    66  H    0.101616
    67  H    0.109130
    68  N   -0.532412
    69  H    0.296154
    70  C   -0.017868
    71  H    0.128227
    72  C    0.584566
    73  C    0.185210
    74  H    0.123048
    75  O   -0.551907
    76  C   -0.345963
    77  H    0.131926
    78  H    0.110061
    79  H    0.107989
    80  O   -0.597785
    81  H    0.343598
    82  N   -0.514418
    83  H    0.282006
    84  C   -0.009092
    85  H    0.131554
    86  C    0.589766
    87  C   -0.051573
    88  H    0.093812
    89  O   -0.596223
    90  C   -0.329074
    91  H    0.104902
    92  H    0.146222
    93  H    0.099947
    94  C   -0.308954
    95  H    0.118858
    96  H    0.102299
    97  H    0.088655
    98  N   -0.514693
    99  H    0.296734
   100  C   -0.042136
   101  H    0.100706
   102  C    0.581634
   103  C   -0.168845
   104  H    0.132378
   105  H    0.083511
   106  O   -0.582384
   107  C   -0.188391
   108  H    0.102796
   109  H    0.138604
   110  C   -0.211307
   111  H    0.117207
   112  H    0.123618
   113  C   -0.131556
   114  H    0.184410
   115  H    0.186001
   116  N   -0.544665
   117  H    0.359421
   118  H    0.360511
   119  H    0.363593
   120  O   -0.608862
   121  H    0.359554
 Sum of Mulliken charges =   1.00000

 Dipole moment (field-independent basis, Debye):
    X=              9.8639    Y=            -17.2028    Z=            -28.6051  Tot=             34.8063
 Quadrupole moment (field-independent basis, Debye-Ang):
   XX=            166.7584   YY=           -377.4767   ZZ=           -192.8571
   XY=            221.8553   XZ=            -61.1177   YZ=            -10.9360

 Normal termination of Gaussian 16 at Sun Sep  4 01:01:15 2022.
