 Gaussian 16, Revision C.01,
 Gaussian 16:  ES64L-G16RevC.01  3-Jul-2019

 ----------------------------------------------------------------------
 # B3LYP/6-31G** empiricaldispersion=gd3bj guess=read geom=check nosymm
  integral(ultrafinegrid)
 ----------------------------------------------------------------------

 ------------------------------------------------------
 Candidate Structure: Conf:156 Charge calc in gas phase
 ------------------------------------------------------
 Structure from the checkpoint file:  "conf-156.chk"
 Charge =  1 Multiplicity = 1

                          Input orientation:
 ---------------------------------------------------------------------
 Center     Atomic      Atomic             Coordinates (Angstroms)
 Number     Number       Type             X           Y           Z
 ---------------------------------------------------------------------
      1          7           0       -3.585342   -4.420061   -5.474730
      2          1           0       -3.963531   -5.180059   -6.039766
      3          1           0       -3.077314   -4.815156   -4.680698
      4          1           0       -2.927400   -3.769857   -6.041906
      5          6           0       -4.615063   -3.401679   -5.036683
      6          1           0       -5.535752   -3.606495   -5.589166
      7          6           0       -3.966014   -2.083081   -5.533172
      8          6           0       -4.844336   -3.428748   -3.529320
      9          1           0       -5.670990   -2.762032   -3.270801
     10          1           0       -5.118758   -4.431708   -3.190957
     11          1           0       -3.953299   -3.076833   -3.002176
     12          8           0       -2.928876   -2.184244   -6.210169
     13          7           0       -4.545468   -0.945641   -5.177432
     14          1           0       -5.395634   -0.973693   -4.624962
     15          6           0       -3.804238    0.308460   -5.186644
     16          1           0       -3.544257    0.563812   -6.217751
     17          6           0       -2.522202    0.114184   -4.347960
     18          6           0       -4.654628    1.451809   -4.547787
     19          1           0       -4.477671    1.449473   -3.466825
     20          1           0       -4.263584    2.400187   -4.923043
     21          8           0       -2.404275   -0.848066   -3.575396
     22          6           0       -6.122661    1.327118   -4.806008
     23          6           0       -6.861566    1.862630   -5.833392
     24          1           0       -6.558081    2.535176   -6.622732
     25          6           0       -7.026886    0.508068   -4.034049
     26          6           0       -8.301845    0.582571   -4.661530
     27          6           0       -6.876867   -0.283188   -2.877799
     28          1           0       -5.929389   -0.316834   -2.347300
     29          7           0       -8.165941    1.417749   -5.751308
     30          1           0       -8.916241    1.713495   -6.355144
     31          6           0       -9.230937   -0.897581   -3.039487
     32          1           0      -10.074736   -1.445625   -2.633971
     33          6           0       -9.411446   -0.112479   -4.172694
     34          1           0      -10.380432   -0.042064   -4.656416
     35          6           0       -7.979489   -0.980941   -2.396030
     36          1           0       -7.884732   -1.578194   -1.494740
     37          7           0       -1.630096    1.101698   -4.476126
     38          1           0       -1.742889    1.808902   -5.205304
     39          6           0       -0.375650    1.153186   -3.721757
     40          1           0        0.017527    0.130656   -3.668697
     41          6           0       -0.641938    1.636195   -2.276184
     42          6           0        0.641091    2.071165   -4.399868
     43          1           0        0.289632    3.103942   -4.331209
     44          1           0        1.553696    2.025784   -3.799979
     45          8           0       -0.251070    2.736261   -1.879275
     46          6           0        0.979731    1.710433   -5.853252
     47          1           0        1.990701    2.042948   -6.101675
     48          1           0        0.979967    0.622539   -6.006610
     49          6           0        0.049419    2.299867   -6.890612
     50          8           0       -1.112101    2.641152   -6.715680
     51          8           0        0.641301    2.410248   -8.087320
     52          7           0       -1.314713    0.753064   -1.510977
     53          1           0       -1.557246   -0.139764   -1.930573
     54          6           0       -1.515433    0.932759   -0.069272
     55          1           0       -1.729603    1.992604    0.101425
     56          6           0       -0.160694    0.542312    0.566256
     57          6           0       -2.669093    0.064731    0.441059
     58          1           0       -2.341924   -0.977917    0.341730
     59          8           0        0.094824   -0.616468    0.881988
     60          6           0       -2.905051    0.343902    1.929414
     61          1           0       -3.201822    1.386531    2.091433
     62          1           0       -3.703473   -0.294351    2.318860
     63          1           0       -2.002996    0.145055    2.512581
     64          6           0       -3.948152    0.276917   -0.378898
     65          1           0       -4.263564    1.326502   -0.355990
     66          1           0       -3.808346   -0.012792   -1.424932
     67          1           0       -4.766226   -0.322339    0.033993
     68          7           0        0.725957    1.561889    0.586605
     69          1           0        0.423889    2.506540    0.376315
     70          6           0        2.154082    1.406642    0.751716
     71          1           0        2.349144    0.575345    1.435084
     72          6           0        2.682530    2.731926    1.316598
     73          6           0        2.857064    1.126438   -0.611362
     74          1           0        3.936408    1.097460   -0.419640
     75          8           0        2.017349    3.761371    1.241222
     76          6           0        2.436367   -0.201551   -1.239016
     77          1           0        2.629571   -1.042091   -0.567441
     78          1           0        1.368574   -0.208638   -1.470613
     79          1           0        2.996328   -0.348632   -2.166954
     80          8           0        2.669832    2.210143   -1.514405
     81          1           0        1.738032    2.488665   -1.494575
     82          7           0        3.921788    2.658460    1.855268
     83          1           0        4.483137    1.826721    1.695942
     84          6           0        4.736239    3.838869    2.084016
     85          1           0        4.294743    4.664909    1.515886
     86          6           0        6.129987    3.505946    1.528548
     87          6           0        4.803942    4.246622    3.579378
     88          1           0        5.436903    5.143092    3.626875
     89          8           0        6.435998    2.351280    1.219148
     90          6           0        3.412543    4.614198    4.102592
     91          1           0        2.754981    3.740043    4.096853
     92          1           0        2.939961    5.383355    3.486279
     93          1           0        3.478578    4.981002    5.131527
     94          6           0        5.453080    3.153213    4.433866
     95          1           0        4.863121    2.231993    4.389386
     96          1           0        5.504790    3.466703    5.480408
     97          1           0        6.468788    2.920064    4.100989
     98          7           0        6.987658    4.541780    1.450081
     99          1           0        6.705586    5.487484    1.677115
    100          6           0        8.365083    4.390170    1.019908
    101          1           0        8.775248    3.473624    1.448617
    102          6           0        9.153817    5.584612    1.523096
    103          6           0        8.473005    4.317155   -0.536626
    104          1           0        7.704557    4.983124   -0.945233
    105          1           0        8.188588    3.299820   -0.816579
    106          8           0       10.440409    5.307575    1.663593
    107          6           0        9.845044    4.691716   -1.133596
    108          1           0       10.638848    4.323070   -0.478927
    109          1           0        9.964216    4.167195   -2.087219
    110          6           0       10.014420    6.215488   -1.383017
    111          1           0        9.772764    6.423907   -2.430616
    112          1           0        9.278783    6.778953   -0.798639
    113          6           0       11.406193    6.804005   -1.090238
    114          1           0       11.602080    7.640278   -1.774379
    115          1           0       12.182755    6.053654   -1.272234
    116          7           0       11.535501    7.247889    0.321215
    117          1           0       12.476856    7.589132    0.501170
    118          1           0       10.898839    8.024363    0.495322
    119          1           0       10.979526    6.129546    1.353468
    120          8           0        8.646616    6.689608    1.656142
    121          1           0       -0.013816    2.782214   -8.703064
 ---------------------------------------------------------------------

 SCF Done:  E(RB3LYP) =  -2844.05432319     A.U. after    1 cycles

 Alpha  occ. eigenvalues --  -19.28836 -19.27164 -19.23896 -19.22294 -19.19863
 Alpha  occ. eigenvalues --  -19.19385 -19.18436 -19.16993 -19.16417 -19.16029
 Alpha  occ. eigenvalues --  -19.16017 -14.58988 -14.49238 -14.47368 -14.45377
 Alpha  occ. eigenvalues --  -14.43184 -14.40439 -14.40144 -14.39649 -14.39588
 Alpha  occ. eigenvalues --  -10.43447 -10.41773 -10.40646 -10.38975 -10.36324
 Alpha  occ. eigenvalues --  -10.34794 -10.34761 -10.33641 -10.32992 -10.32912
 Alpha  occ. eigenvalues --  -10.32599 -10.31905 -10.31504 -10.31320 -10.30125
 Alpha  occ. eigenvalues --  -10.29218 -10.28822 -10.28759 -10.28124 -10.28117
 Alpha  occ. eigenvalues --  -10.28059 -10.27948 -10.27797 -10.27523 -10.27473
 Alpha  occ. eigenvalues --  -10.27109 -10.26979 -10.26902 -10.26822 -10.25619
 Alpha  occ. eigenvalues --  -10.24542 -10.23265 -10.22996 -10.22981 -10.22862
 Alpha  occ. eigenvalues --  -10.22429 -10.22322 -10.20721 -10.20320  -1.20157
 Alpha  occ. eigenvalues --   -1.19724  -1.14057  -1.12910  -1.12297  -1.11242
 Alpha  occ. eigenvalues --   -1.10948  -1.08739  -1.08115  -1.07476  -1.07304
 Alpha  occ. eigenvalues --   -1.06472  -1.05827  -1.03764  -1.02396  -0.99825
 Alpha  occ. eigenvalues --   -0.97187  -0.96943  -0.96549  -0.95199  -0.93405
 Alpha  occ. eigenvalues --   -0.92979  -0.90460  -0.88980  -0.87132  -0.86214
 Alpha  occ. eigenvalues --   -0.85001  -0.83834  -0.82931  -0.82619  -0.81879
 Alpha  occ. eigenvalues --   -0.81532  -0.80403  -0.79581  -0.78124  -0.76734
 Alpha  occ. eigenvalues --   -0.76475  -0.74940  -0.74666  -0.73998  -0.73745
 Alpha  occ. eigenvalues --   -0.72850  -0.72232  -0.71648  -0.71460  -0.70596
 Alpha  occ. eigenvalues --   -0.69203  -0.68226  -0.67573  -0.67102  -0.66846
 Alpha  occ. eigenvalues --   -0.66125  -0.65381  -0.64778  -0.64319  -0.63941
 Alpha  occ. eigenvalues --   -0.63630  -0.63297  -0.63225  -0.62480  -0.62323
 Alpha  occ. eigenvalues --   -0.61538  -0.61290  -0.60631  -0.60165  -0.59550
 Alpha  occ. eigenvalues --   -0.59103  -0.58612  -0.58247  -0.57627  -0.57231
 Alpha  occ. eigenvalues --   -0.57025  -0.56474  -0.56119  -0.55700  -0.55531
 Alpha  occ. eigenvalues --   -0.54998  -0.54941  -0.54090  -0.53814  -0.53531
 Alpha  occ. eigenvalues --   -0.53167  -0.52994  -0.52936  -0.52389  -0.52181
 Alpha  occ. eigenvalues --   -0.52100  -0.51693  -0.51605  -0.51416  -0.51156
 Alpha  occ. eigenvalues --   -0.50652  -0.50401  -0.50295  -0.50037  -0.49858
 Alpha  occ. eigenvalues --   -0.49500  -0.49387  -0.49276  -0.48996  -0.48894
 Alpha  occ. eigenvalues --   -0.48464  -0.48192  -0.47705  -0.47458  -0.47319
 Alpha  occ. eigenvalues --   -0.47062  -0.46839  -0.46498  -0.46286  -0.45785
 Alpha  occ. eigenvalues --   -0.45770  -0.45482  -0.45344  -0.45021  -0.44614
 Alpha  occ. eigenvalues --   -0.44507  -0.44476  -0.44141  -0.43937  -0.43487
 Alpha  occ. eigenvalues --   -0.43000  -0.42793  -0.42749  -0.42675  -0.42575
 Alpha  occ. eigenvalues --   -0.41898  -0.41766  -0.41576  -0.41326  -0.41177
 Alpha  occ. eigenvalues --   -0.41043  -0.40697  -0.40647  -0.40146  -0.40027
 Alpha  occ. eigenvalues --   -0.39978  -0.39784  -0.39013  -0.38180  -0.37797
 Alpha  occ. eigenvalues --   -0.37663  -0.37520  -0.37138  -0.37076  -0.36964
 Alpha  occ. eigenvalues --   -0.36863  -0.36791  -0.36458  -0.35885  -0.34316
 Alpha  occ. eigenvalues --   -0.33422  -0.32422  -0.32027  -0.31873  -0.31740
 Alpha  occ. eigenvalues --   -0.31015  -0.30800  -0.30373  -0.29806  -0.29632
 Alpha  occ. eigenvalues --   -0.29250  -0.29042  -0.28648
 Alpha virt. eigenvalues --   -0.12627  -0.10938  -0.10006  -0.08553  -0.08301
 Alpha virt. eigenvalues --   -0.07284  -0.06163  -0.05464  -0.03992  -0.03407
 Alpha virt. eigenvalues --   -0.03056  -0.02788  -0.01906  -0.01295  -0.01150

 Mulliken charges:
               1
     1  N   -0.559796
     2  H    0.347081
     3  H    0.350343
     4  H    0.378081
     5  C   -0.095393
     6  H    0.186287
     7  C    0.665888
     8  C   -0.356187
     9  H    0.163961
    10  H    0.140501
    11  H    0.176362
    12  O   -0.544670
    13  N   -0.511889
    14  H    0.291226
    15  C   -0.007293
    16  H    0.154357
    17  C    0.632306
    18  C   -0.287285
    19  H    0.145618
    20  H    0.145970
    21  O   -0.581939
    22  C    0.025161
    23  C    0.072397
    24  H    0.130316
    25  C    0.018580
    26  C    0.295058
    27  C   -0.183731
    28  H    0.103890
    29  N   -0.611152
    30  H    0.277083
    31  C   -0.108450
    32  H    0.105897
    33  C   -0.090789
    34  H    0.104718
    35  C   -0.104174
    36  H    0.097617
    37  N   -0.538149
    38  H    0.317404
    39  C   -0.024589
    40  H    0.137873
    41  C    0.616952
    42  C   -0.222461
    43  H    0.147762
    44  H    0.157427
    45  O   -0.540466
    46  C   -0.280970
    47  H    0.163712
    48  H    0.150526
    49  C    0.598897
    50  O   -0.501143
    51  O   -0.458269
    52  N   -0.537313
    53  H    0.297903
    54  C    0.015814
    55  H    0.123944
    56  C    0.611075
    57  C   -0.084365
    58  H    0.111774
    59  O   -0.545676
    60  C   -0.323528
    61  H    0.106807
    62  H    0.105351
    63  H    0.135362
    64  C   -0.329004
    65  H    0.112871
    66  H    0.093879
    67  H    0.102872
    68  N   -0.524697
    69  H    0.294521
    70  C   -0.058538
    71  H    0.138407
    72  C    0.621371
    73  C    0.184579
    74  H    0.115361
    75  O   -0.538228
    76  C   -0.319517
    77  H    0.119615
    78  H    0.091678
    79  H    0.102138
    80  O   -0.570158
    81  H    0.327970
    82  N   -0.519203
    83  H    0.282133
    84  C   -0.027199
    85  H    0.137512
    86  C    0.613980
    87  C   -0.048466
    88  H    0.090746
    89  O   -0.558886
    90  C   -0.307381
    91  H    0.112929
    92  H    0.115993
    93  H    0.100315
    94  C   -0.325327
    95  H    0.109487
    96  H    0.109006
    97  H    0.113808
    98  N   -0.534565
    99  H    0.280719
   100  C    0.038349
   101  H    0.145785
   102  C    0.570319
   103  C   -0.189952
   104  H    0.105414
   105  H    0.130531
   106  O   -0.524354
   107  C   -0.202422
   108  H    0.126477
   109  H    0.099337
   110  C   -0.205002
   111  H    0.105116
   112  H    0.121363
   113  C   -0.063955
   114  H    0.104636
   115  H    0.122209
   116  N   -0.654207
   117  H    0.270694
   118  H    0.282971
   119  H    0.374647
   120  O   -0.511644
   121  H    0.335361
 Sum of Mulliken charges =   1.00000

 Dipole moment (field-independent basis, Debye):
    X=            -15.2718    Y=             -6.4088    Z=            -28.8438  Tot=             33.2606
 Quadrupole moment (field-independent basis, Debye-Ang):
   XX=           -100.8115   YY=           -239.5181   ZZ=           -175.1627
   XY=            113.7829   XZ=            105.4890   YZ=             38.5420

 Normal termination of Gaussian 16 at Sun Sep  4 01:00:17 2022.
