 Gaussian 16, Revision C.01,
 Gaussian 16:  ES64L-G16RevC.01  3-Jul-2019

 ----------------------------------------------------------------------
 # B3LYP/6-31G** empiricaldispersion=gd3bj guess=read geom=check nosymm
  integral(ultrafinegrid)
 ----------------------------------------------------------------------

 ------------------------------------------------------
 Candidate Structure: Conf:727 Charge calc in gas phase
 ------------------------------------------------------
 Structure from the checkpoint file:  "conf-727.chk"
 Charge =  1 Multiplicity = 1

                          Input orientation:
 ---------------------------------------------------------------------
 Center     Atomic      Atomic             Coordinates (Angstroms)
 Number     Number       Type             X           Y           Z
 ---------------------------------------------------------------------
      1          7           0       -5.785907   -1.872602   -1.401047
      2          1           0       -6.706685   -2.110622   -1.030991
      3          1           0       -5.808208   -1.897451   -2.454909
      4          1           0       -5.528313   -0.895959   -1.183984
      5          6           0       -4.683805   -2.722027   -0.819463
      6          1           0       -4.833046   -2.725066    0.265542
      7          6           0       -3.414639   -1.902880   -1.132351
      8          6           0       -4.721863   -4.141583   -1.368420
      9          1           0       -3.982314   -4.760165   -0.851576
     10          1           0       -5.698916   -4.600376   -1.193395
     11          1           0       -4.508451   -4.159798   -2.440611
     12          8           0       -3.558158   -0.690224   -1.369604
     13          7           0       -2.256929   -2.555667   -1.150954
     14          1           0       -2.211313   -3.509038   -0.802545
     15          6           0       -0.974728   -1.881750   -1.422834
     16          1           0       -1.022126   -0.900786   -0.939670
     17          6           0       -0.833774   -1.691058   -2.943865
     18          6           0        0.198436   -2.689177   -0.860112
     19          1           0        0.385420   -3.531817   -1.532639
     20          1           0        1.080067   -2.046481   -0.935016
     21          8           0       -0.093142   -2.376948   -3.637650
     22          6           0       -0.042907   -3.162089    0.536486
     23          6           0        0.265381   -2.522269    1.717388
     24          1           0        0.766046   -1.577777    1.872222
     25          6           0       -0.720762   -4.377311    0.907352
     26          6           0       -0.761882   -4.404859    2.335369
     27          6           0       -1.304230   -5.434181    0.179793
     28          1           0       -1.225056   -5.475733   -0.905848
     29          7           0       -0.158592   -3.257099    2.797691
     30          1           0        0.284526   -3.103986    3.724154
     31          6           0       -1.938011   -6.484797    2.286404
     32          1           0       -2.406713   -7.316463    2.802260
     33          6           0       -1.356806   -5.462999    3.029934
     34          1           0       -1.365368   -5.481139    4.114759
     35          6           0       -1.915604   -6.473160    0.876659
     36          1           0       -2.351153   -7.304690    0.331008
     37          7           0       -1.606579   -0.693333   -3.442782
     38          1           0       -2.209911   -0.187472   -2.803210
     39          6           0       -1.586693   -0.313867   -4.849226
     40          1           0       -1.165303   -1.166848   -5.391716
     41          6           0       -0.632699    0.897690   -4.998229
     42          6           0       -3.015409   -0.025796   -5.309286
     43          1           0       -3.426275    0.779741   -4.691171
     44          1           0       -3.016108    0.347807   -6.334049
     45          8           0       -1.022677    1.990927   -5.388232
     46          6           0       -3.865608   -1.312596   -5.180733
     47          1           0       -3.723529   -1.939242   -6.068179
     48          1           0       -3.547188   -1.887334   -4.309958
     49          6           0       -5.337419   -1.058289   -5.025913
     50          8           0       -6.027368   -1.407687   -4.069310
     51          8           0       -5.863738   -0.395418   -6.052522
     52          7           0        0.625593    0.598651   -4.573679
     53          1           0        0.789960   -0.351175   -4.246530
     54          6           0        1.625996    1.535821   -4.080232
     55          1           0        2.194816    1.973310   -4.911967
     56          6           0        2.562740    0.680503   -3.204291
     57          6           0        0.997952    2.702853   -3.255186
     58          1           0        0.222811    3.110470   -3.908226
     59          8           0        2.232618   -0.441464   -2.825676
     60          6           0        0.329488    2.197149   -1.971187
     61          1           0        1.046863    1.717688   -1.297371
     62          1           0       -0.154897    3.026051   -1.444302
     63          1           0       -0.441868    1.456792   -2.194646
     64          6           0        1.992257    3.834759   -2.978047
     65          1           0        2.778118    3.529191   -2.279918
     66          1           0        2.479623    4.180543   -3.895657
     67          1           0        1.468725    4.693449   -2.546765
     68          7           0        3.726952    1.246157   -2.790949
     69          1           0        4.133983    2.040079   -3.268391
     70          6           0        4.622283    0.519312   -1.912299
     71          1           0        5.105452   -0.308617   -2.451082
     72          6           0        3.853711   -0.045766   -0.717129
     73          6           0        5.717398    1.499361   -1.413665
     74          1           0        5.225166    2.243524   -0.777687
     75          8           0        2.964663    0.618446   -0.141201
     76          6           0        6.808686    0.809242   -0.609687
     77          1           0        6.400144    0.378850    0.310144
     78          1           0        7.281069    0.011115   -1.196098
     79          1           0        7.578809    1.536734   -0.342721
     80          8           0        6.210186    2.251538   -2.518276
     81          1           0        6.894306    1.730049   -2.961947
     82          7           0        4.240148   -1.238487   -0.281097
     83          1           0        4.943287   -1.738461   -0.805512
     84          6           0        3.748009   -1.848303    0.950525
     85          1           0        2.679725   -2.040174    0.827201
     86          6           0        3.949272   -0.874340    2.138275
     87          6           0        4.464347   -3.208813    1.157909
     88          1           0        4.469361   -3.684858    0.165057
     89          8           0        4.861588   -0.036761    2.133604
     90          6           0        5.916675   -3.037835    1.620547
     91          1           0        5.959141   -2.617068    2.628685
     92          1           0        6.487840   -2.369473    0.967296
     93          1           0        6.421610   -4.007351    1.636698
     94          6           0        3.670677   -4.132475    2.089841
     95          1           0        3.569252   -3.729129    3.100346
     96          1           0        4.174927   -5.100097    2.163992
     97          1           0        2.661171   -4.306173    1.705089
     98          7           0        3.044180   -1.058633    3.108409
     99          1           0        2.447855   -1.902868    3.102526
    100          6           0        3.113910   -0.665292    4.519018
    101          1           0        4.152713   -0.744511    4.861014
    102          6           0        2.226163   -1.723782    5.290275
    103          6           0        2.588489    0.734700    4.862101
    104          1           0        2.681830    0.813072    5.947063
    105          1           0        1.512122    0.778319    4.647973
    106          8           0        2.080822   -1.546749    6.496960
    107          6           0        3.305495    1.894585    4.159324
    108          1           0        3.263848    2.800533    4.775638
    109          1           0        4.360947    1.637131    4.024684
    110          6           0        2.678808    2.187074    2.788500
    111          1           0        2.445452    1.245651    2.287310
    112          1           0        1.732501    2.730647    2.923710
    113          6           0        3.610708    2.982151    1.893529
    114          1           0        4.543602    2.432304    1.754766
    115          1           0        3.819535    3.985094    2.273979
    116          7           0        2.988588    3.118811    0.520894
    117          1           0        3.511652    3.747066   -0.090407
    118          1           0        2.957088    2.130373    0.081494
    119          1           0        2.032470    3.473682    0.585455
    120          8           0        1.736226   -2.637076    4.531963
    121          1           0       -6.813228   -0.263965   -5.882751
 ---------------------------------------------------------------------

 SCF Done:  E(RB3LYP) =  -2844.04582746     A.U. after    2 cycles

 Alpha  occ. eigenvalues --  -19.32107 -19.27689 -19.26091 -19.25811 -19.23433
 Alpha  occ. eigenvalues --  -19.22277 -19.21250 -19.20256 -19.17587 -19.11645
 Alpha  occ. eigenvalues --  -19.09806 -14.57721 -14.54193 -14.49157 -14.46569
 Alpha  occ. eigenvalues --  -14.46504 -14.45501 -14.43586 -14.41564 -14.39629
 Alpha  occ. eigenvalues --  -10.45343 -10.42928 -10.40034 -10.39856 -10.39053
 Alpha  occ. eigenvalues --  -10.38180 -10.37267 -10.35391 -10.34435 -10.34191
 Alpha  occ. eigenvalues --  -10.33561 -10.33460 -10.32935 -10.32677 -10.32392
 Alpha  occ. eigenvalues --  -10.31212 -10.30443 -10.29774 -10.28835 -10.28619
 Alpha  occ. eigenvalues --  -10.27627 -10.27619 -10.27547 -10.27087 -10.26903
 Alpha  occ. eigenvalues --  -10.26756 -10.26747 -10.26710 -10.25692 -10.25125
 Alpha  occ. eigenvalues --  -10.25087 -10.25006 -10.24924 -10.24669 -10.24601
 Alpha  occ. eigenvalues --  -10.24082 -10.23660 -10.22365 -10.22300  -1.23624
 Alpha  occ. eigenvalues --   -1.18287  -1.15609  -1.14406  -1.14097  -1.13456
 Alpha  occ. eigenvalues --   -1.13246  -1.12195  -1.11788  -1.09112  -1.08751
 Alpha  occ. eigenvalues --   -1.05790  -1.04215  -1.03137  -1.02853  -1.02760
 Alpha  occ. eigenvalues --   -1.02703  -1.00592  -0.97271  -0.95035  -0.92537
 Alpha  occ. eigenvalues --   -0.91035  -0.90330  -0.90081  -0.88822  -0.88309
 Alpha  occ. eigenvalues --   -0.87968  -0.86943  -0.85064  -0.83099  -0.82127
 Alpha  occ. eigenvalues --   -0.81892  -0.80411  -0.80108  -0.79490  -0.78360
 Alpha  occ. eigenvalues --   -0.78160  -0.78018  -0.75727  -0.75260  -0.74344
 Alpha  occ. eigenvalues --   -0.74035  -0.72729  -0.72673  -0.72274  -0.71634
 Alpha  occ. eigenvalues --   -0.71350  -0.69859  -0.69703  -0.69567  -0.68892
 Alpha  occ. eigenvalues --   -0.68501  -0.68080  -0.67934  -0.66888  -0.65452
 Alpha  occ. eigenvalues --   -0.65017  -0.64612  -0.64153  -0.64093  -0.63762
 Alpha  occ. eigenvalues --   -0.63028  -0.61829  -0.61786  -0.61559  -0.61415
 Alpha  occ. eigenvalues --   -0.61039  -0.60439  -0.60054  -0.59812  -0.59276
 Alpha  occ. eigenvalues --   -0.58636  -0.58351  -0.58219  -0.57719  -0.57240
 Alpha  occ. eigenvalues --   -0.57068  -0.56420  -0.56220  -0.55869  -0.55301
 Alpha  occ. eigenvalues --   -0.54856  -0.54828  -0.54330  -0.54267  -0.53683
 Alpha  occ. eigenvalues --   -0.53543  -0.53407  -0.53251  -0.53097  -0.52782
 Alpha  occ. eigenvalues --   -0.52490  -0.52145  -0.51709  -0.51567  -0.51246
 Alpha  occ. eigenvalues --   -0.50816  -0.50464  -0.50153  -0.50096  -0.49946
 Alpha  occ. eigenvalues --   -0.49651  -0.49495  -0.49268  -0.49075  -0.48631
 Alpha  occ. eigenvalues --   -0.48445  -0.48295  -0.48041  -0.47819  -0.47670
 Alpha  occ. eigenvalues --   -0.47387  -0.47116  -0.47021  -0.46824  -0.46557
 Alpha  occ. eigenvalues --   -0.46379  -0.46215  -0.45978  -0.45810  -0.45325
 Alpha  occ. eigenvalues --   -0.45256  -0.44848  -0.44633  -0.44596  -0.43741
 Alpha  occ. eigenvalues --   -0.43667  -0.43522  -0.43178  -0.43128  -0.42846
 Alpha  occ. eigenvalues --   -0.42709  -0.42462  -0.41730  -0.41092  -0.41023
 Alpha  occ. eigenvalues --   -0.40494  -0.40338  -0.40055  -0.39932  -0.39696
 Alpha  occ. eigenvalues --   -0.39662  -0.39508  -0.39357  -0.39195  -0.38896
 Alpha  occ. eigenvalues --   -0.37999  -0.37678  -0.37032  -0.36821  -0.36726
 Alpha  occ. eigenvalues --   -0.36235  -0.35712  -0.34641  -0.33866  -0.33536
 Alpha  occ. eigenvalues --   -0.32600  -0.31486  -0.30595  -0.28504  -0.26838
 Alpha  occ. eigenvalues --   -0.26533  -0.26429  -0.23791
 Alpha virt. eigenvalues --   -0.12443  -0.12133  -0.09347  -0.08814  -0.08521
 Alpha virt. eigenvalues --   -0.08247  -0.07782  -0.07607  -0.05591  -0.04446
 Alpha virt. eigenvalues --   -0.03968  -0.03784  -0.03006  -0.02783  -0.02640

 Mulliken charges:
               1
     1  N   -0.552757
     2  H    0.338275
     3  H    0.381739
     4  H    0.349423
     5  C   -0.100610
     6  H    0.197457
     7  C    0.654723
     8  C   -0.345961
     9  H    0.172139
    10  H    0.143237
    11  H    0.147113
    12  O   -0.573988
    13  N   -0.518585
    14  H    0.291579
    15  C   -0.024339
    16  H    0.144711
    17  C    0.629648
    18  C   -0.285374
    19  H    0.144820
    20  H    0.149826
    21  O   -0.521264
    22  C   -0.006305
    23  C    0.043162
    24  H    0.116079
    25  C    0.049096
    26  C    0.274349
    27  C   -0.208589
    28  H    0.083972
    29  N   -0.595429
    30  H    0.318032
    31  C   -0.114198
    32  H    0.094698
    33  C   -0.093577
    34  H    0.115655
    35  C   -0.104087
    36  H    0.084282
    37  N   -0.537654
    38  H    0.292374
    39  C   -0.048811
    40  H    0.159617
    41  C    0.610529
    42  C   -0.188441
    43  H    0.124923
    44  H    0.157739
    45  O   -0.516639
    46  C   -0.250260
    47  H    0.165421
    48  H    0.124016
    49  C    0.586380
    50  O   -0.529143
    51  O   -0.432159
    52  N   -0.565171
    53  H    0.315304
    54  C    0.033278
    55  H    0.127551
    56  C    0.608545
    57  C   -0.070013
    58  H    0.163365
    59  O   -0.531772
    60  C   -0.354822
    61  H    0.117956
    62  H    0.099309
    63  H    0.107609
    64  C   -0.340075
    65  H    0.063007
    66  H    0.126259
    67  H    0.116310
    68  N   -0.552988
    69  H    0.285098
    70  C   -0.005319
    71  H    0.116595
    72  C    0.694686
    73  C    0.166316
    74  H    0.072752
    75  O   -0.607790
    76  C   -0.378371
    77  H    0.180961
    78  H    0.103148
    79  H    0.139324
    80  O   -0.545675
    81  H    0.321933
    82  N   -0.518282
    83  H    0.278088
    84  C    0.014438
    85  H    0.126806
    86  C    0.633216
    87  C   -0.106315
    88  H    0.092744
    89  O   -0.582057
    90  C   -0.313912
    91  H    0.136934
    92  H    0.087287
    93  H    0.117380
    94  C   -0.335799
    95  H    0.150167
    96  H    0.109568
    97  H    0.117795
    98  N   -0.552820
    99  H    0.310524
   100  C   -0.038548
   101  H    0.119505
   102  C    0.588288
   103  C   -0.173992
   104  H    0.142703
   105  H    0.082568
   106  O   -0.535482
   107  C   -0.191164
   108  H    0.095602
   109  H    0.125920
   110  C   -0.200529
   111  H    0.148138
   112  H    0.092179
   113  C   -0.119431
   114  H    0.186820
   115  H    0.146433
   116  N   -0.601511
   117  H    0.327507
   118  H    0.410994
   119  H    0.325696
   120  O   -0.646152
   121  H    0.344537
 Sum of Mulliken charges =   1.00000

 Dipole moment (field-independent basis, Debye):
    X=             -9.8514    Y=              2.2399    Z=            -17.8236  Tot=             20.4878
 Quadrupole moment (field-independent basis, Debye-Ang):
   XX=           -154.7280   YY=           -298.0634   ZZ=           -382.7884
   XY=             70.2874   XZ=              6.8460   YZ=             36.1306

 Normal termination of Gaussian 16 at Sun Sep  4 01:06:12 2022.
