 Gaussian 16, Revision C.01,
 Gaussian 16:  ES64L-G16RevC.01  3-Jul-2019

 ----------------------------------------------------------------------
 # B3LYP/6-31G** empiricaldispersion=gd3bj guess=read geom=check nosymm
  integral(ultrafinegrid)
 ----------------------------------------------------------------------

 ------------------------------------------------------
 Candidate Structure: Conf:126 Charge calc in gas phase
 ------------------------------------------------------
 Structure from the checkpoint file:  "conf-126.chk"
 Charge =  1 Multiplicity = 1

                          Input orientation:
 ---------------------------------------------------------------------
 Center     Atomic      Atomic             Coordinates (Angstroms)
 Number     Number       Type             X           Y           Z
 ---------------------------------------------------------------------
      1          7           0       -1.838877    1.920516   -2.616483
      2          1           0       -2.858523    1.848201   -2.474593
      3          1           0       -1.597980    2.728614   -3.188860
      4          1           0       -1.446778    2.054556   -1.620701
      5          6           0       -1.409976    0.625254   -3.244041
      6          1           0       -1.642846    0.690150   -4.313167
      7          6           0       -2.366522   -0.411784   -2.633090
      8          6           0        0.076200    0.364765   -3.014327
      9          1           0        0.380989   -0.547845   -3.531467
     10          1           0        0.678640    1.178780   -3.427403
     11          1           0        0.322473    0.247212   -1.955970
     12          8           0       -3.327117   -0.015516   -1.960281
     13          7           0       -2.110766   -1.698621   -2.880958
     14          1           0       -1.391359   -1.954902   -3.543951
     15          6           0       -3.063973   -2.756046   -2.510720
     16          1           0       -4.014467   -2.251152   -2.323784
     17          6           0       -2.527950   -3.342934   -1.181367
     18          6           0       -3.194724   -3.814210   -3.630221
     19          1           0       -2.601735   -4.684445   -3.336418
     20          1           0       -4.239927   -4.140928   -3.654259
     21          8           0       -2.050579   -4.463428   -1.094763
     22          6           0       -2.752933   -3.324689   -4.979643
     23          6           0       -1.821383   -3.931392   -5.789552
     24          1           0       -1.285441   -4.857673   -5.638877
     25          6           0       -3.159576   -2.116613   -5.662944
     26          6           0       -2.425265   -2.055412   -6.880312
     27          6           0       -4.034528   -1.061854   -5.346391
     28          1           0       -4.622167   -1.083428   -4.433827
     29          7           0       -1.625053   -3.179234   -6.931059
     30          1           0       -1.035018   -3.441700   -7.703913
     31          6           0       -3.404406    0.049101   -7.423931
     32          1           0       -3.521678    0.892961   -8.095997
     33          6           0       -2.539350   -0.982048   -7.769480
     34          1           0       -1.974478   -0.954442   -8.696018
     35          6           0       -4.144810    0.010363   -6.223611
     36          1           0       -4.829975    0.821343   -5.996526
     37          7           0       -2.527939   -2.427442   -0.167199
     38          1           0       -2.874692   -1.497698   -0.388662
     39          6           0       -1.471394   -2.428691    0.843072
     40          1           0       -1.571314   -3.300927    1.496378
     41          6           0       -1.626175   -1.122921    1.614940
     42          6           0       -0.084371   -2.410991    0.140034
     43          1           0       -0.055164   -3.285727   -0.509975
     44          1           0       -0.077908   -1.522213   -0.493908
     45          8           0       -1.836990   -0.070503    0.994256
     46          6           0        1.160394   -2.379885    1.032973
     47          1           0        0.932863   -2.123827    2.072227
     48          1           0        1.668336   -3.347226    1.065647
     49          6           0        2.173075   -1.327215    0.601345
     50          8           0        1.935011   -0.432323   -0.206000
     51          8           0        3.325616   -1.475304    1.228537
     52          7           0       -1.461967   -1.148706    2.952373
     53          1           0       -1.191500   -2.021346    3.384749
     54          6           0       -1.189581    0.086579    3.699137
     55          1           0       -2.045284    0.758199    3.571415
     56          6           0        0.069480    0.670070    3.039374
     57          6           0       -0.968312   -0.206117    5.190769
     58          1           0       -0.126490   -0.909253    5.248752
     59          8           0        1.087596   -0.022966    2.985257
     60          6           0       -0.565491    1.081050    5.920392
     61          1           0       -1.357634    1.835559    5.851724
     62          1           0       -0.395790    0.877427    6.980362
     63          1           0        0.354750    1.511669    5.514490
     64          6           0       -2.211627   -0.837944    5.826340
     65          1           0       -3.060714   -0.146865    5.787972
     66          1           0       -2.515367   -1.763502    5.328646
     67          1           0       -2.020284   -1.073662    6.876395
     68          7           0       -0.027286    1.880503    2.444735
     69          1           0       -0.899030    2.381028    2.550140
     70          6           0        0.808745    2.227728    1.281239
     71          1           0        1.025025    1.288803    0.756194
     72          6           0        2.189696    2.808359    1.658271
     73          6           0       -0.026955    3.100889    0.340626
     74          1           0       -0.395454    3.975462    0.893269
     75          8           0        2.573718    3.922654    1.306178
     76          6           0        0.705575    3.570824   -0.906169
     77          1           0        1.528402    4.230026   -0.636273
     78          1           0        1.106040    2.716062   -1.457866
     79          1           0        0.009735    4.119912   -1.549739
     80          8           0       -1.178556    2.337011   -0.101097
     81          1           0       -1.359739    1.545591    0.452508
     82          7           0        2.957386    1.917113    2.322788
     83          1           0        2.550038    1.003092    2.520047
     84          6           0        4.409245    2.056468    2.397656
     85          1           0        4.637573    3.114016    2.557239
     86          6           0        4.914239    1.612233    1.014637
     87          6           0        4.992875    1.208684    3.534328
     88          1           0        4.765883    0.160302    3.302546
     89          8           0        5.086929    0.413602    0.728044
     90          6           0        6.516407    1.369362    3.579496
     91          1           0        6.794871    2.411425    3.774044
     92          1           0        6.980220    1.056443    2.640447
     93          1           0        6.940300    0.757426    4.380231
     94          6           0        4.348554    1.571751    4.876162
     95          1           0        4.529354    2.623218    5.126424
     96          1           0        4.772894    0.959771    5.677043
     97          1           0        3.267259    1.409146    4.863859
     98          7           0        5.071141    2.589540    0.112778
     99          1           0        4.764450    3.533417    0.331954
    100          6           0        5.299612    2.308290   -1.295764
    101          1           0        6.137723    1.616957   -1.397140
    102          6           0        5.616812    3.612290   -2.000009
    103          6           0        4.026762    1.683874   -1.955077
    104          1           0        3.164655    2.148645   -1.468938
    105          1           0        4.001384    0.631320   -1.671907
    106          8           0        5.113524    4.673081   -1.660728
    107          6           0        3.905342    1.853424   -3.483680
    108          1           0        4.894597    1.769514   -3.940156
    109          1           0        3.317612    1.017082   -3.878433
    110          6           0        3.228274    3.183933   -3.914871
    111          1           0        2.166335    2.989246   -4.113029
    112          1           0        3.243109    3.901038   -3.087558
    113          6           0        3.812555    3.877330   -5.159679
    114          1           0        3.016944    4.436571   -5.671335
    115          1           0        4.183238    3.130105   -5.869386
    116          7           0        4.943551    4.772539   -4.819340
    117          1           0        5.338542    5.181468   -5.662849
    118          1           0        4.613436    5.542085   -4.238483
    119          1           0        6.026930    4.078425   -3.799054
    120          8           0        6.355200    3.421584   -3.082604
    121          1           0        3.980120   -0.751734    0.989836
 ---------------------------------------------------------------------

 SCF Done:  E(RB3LYP) =  -2844.09394252     A.U. after    2 cycles

 Alpha  occ. eigenvalues --  -19.26989 -19.24871 -19.24566 -19.24050 -19.23241
 Alpha  occ. eigenvalues --  -19.22883 -19.21091 -19.21002 -19.20257 -19.19893
 Alpha  occ. eigenvalues --  -19.19820 -14.55284 -14.48316 -14.48032 -14.47492
 Alpha  occ. eigenvalues --  -14.46522 -14.44293 -14.43596 -14.43258 -14.42397
 Alpha  occ. eigenvalues --  -10.41755 -10.40564 -10.39874 -10.39242 -10.38288
 Alpha  occ. eigenvalues --  -10.37719 -10.37641 -10.37337 -10.36593 -10.35392
 Alpha  occ. eigenvalues --  -10.34157 -10.33406 -10.33287 -10.33201 -10.31080
 Alpha  occ. eigenvalues --  -10.30663 -10.30532 -10.30341 -10.30224 -10.30175
 Alpha  occ. eigenvalues --  -10.29381 -10.27952 -10.27513 -10.27429 -10.27424
 Alpha  occ. eigenvalues --  -10.27293 -10.27218 -10.27122 -10.27065 -10.26954
 Alpha  occ. eigenvalues --  -10.26943 -10.26753 -10.26464 -10.26431 -10.26108
 Alpha  occ. eigenvalues --  -10.25951 -10.25933 -10.23713 -10.23356  -1.17256
 Alpha  occ. eigenvalues --   -1.16557  -1.16292  -1.15281  -1.14918  -1.13919
 Alpha  occ. eigenvalues --   -1.12771  -1.12208  -1.11264  -1.10181  -1.07659
 Alpha  occ. eigenvalues --   -1.06689  -1.06460  -1.05082  -1.04318  -1.03637
 Alpha  occ. eigenvalues --   -1.01475  -1.00703  -1.00008  -0.98184  -0.92427
 Alpha  occ. eigenvalues --   -0.91491  -0.91044  -0.88889  -0.88728  -0.88268
 Alpha  occ. eigenvalues --   -0.87762  -0.87124  -0.85105  -0.83360  -0.83043
 Alpha  occ. eigenvalues --   -0.82177  -0.81937  -0.80678  -0.79563  -0.78892
 Alpha  occ. eigenvalues --   -0.78279  -0.77564  -0.76436  -0.75263  -0.74658
 Alpha  occ. eigenvalues --   -0.73487  -0.72152  -0.71695  -0.71206  -0.70856
 Alpha  occ. eigenvalues --   -0.70642  -0.70421  -0.68802  -0.68284  -0.67807
 Alpha  occ. eigenvalues --   -0.67636  -0.67419  -0.67119  -0.66793  -0.66098
 Alpha  occ. eigenvalues --   -0.65332  -0.65250  -0.64788  -0.64498  -0.63942
 Alpha  occ. eigenvalues --   -0.63568  -0.62552  -0.61702  -0.61630  -0.60932
 Alpha  occ. eigenvalues --   -0.60394  -0.60328  -0.59345  -0.58857  -0.58672
 Alpha  occ. eigenvalues --   -0.58326  -0.58213  -0.57496  -0.57021  -0.56916
 Alpha  occ. eigenvalues --   -0.56726  -0.56148  -0.56023  -0.55785  -0.55322
 Alpha  occ. eigenvalues --   -0.54866  -0.54361  -0.54205  -0.53872  -0.53744
 Alpha  occ. eigenvalues --   -0.53197  -0.52971  -0.52610  -0.52539  -0.52207
 Alpha  occ. eigenvalues --   -0.52134  -0.51856  -0.51798  -0.51714  -0.51534
 Alpha  occ. eigenvalues --   -0.51347  -0.51204  -0.50999  -0.50553  -0.50377
 Alpha  occ. eigenvalues --   -0.50199  -0.50068  -0.49852  -0.49506  -0.49260
 Alpha  occ. eigenvalues --   -0.49056  -0.48922  -0.48752  -0.48677  -0.48284
 Alpha  occ. eigenvalues --   -0.47963  -0.47855  -0.47559  -0.47267  -0.47110
 Alpha  occ. eigenvalues --   -0.46882  -0.46741  -0.46594  -0.46047  -0.45677
 Alpha  occ. eigenvalues --   -0.45570  -0.45032  -0.44712  -0.44599  -0.44127
 Alpha  occ. eigenvalues --   -0.44075  -0.43693  -0.43545  -0.43447  -0.43403
 Alpha  occ. eigenvalues --   -0.43258  -0.42918  -0.42614  -0.42374  -0.42047
 Alpha  occ. eigenvalues --   -0.41554  -0.41496  -0.40969  -0.40534  -0.40453
 Alpha  occ. eigenvalues --   -0.40101  -0.39873  -0.39599  -0.39284  -0.39099
 Alpha  occ. eigenvalues --   -0.38929  -0.38260  -0.38015  -0.37176  -0.36434
 Alpha  occ. eigenvalues --   -0.36364  -0.35926  -0.35668  -0.34864  -0.34785
 Alpha  occ. eigenvalues --   -0.34377  -0.33860  -0.33821  -0.33111  -0.32775
 Alpha  occ. eigenvalues --   -0.31770  -0.30966  -0.29088
 Alpha virt. eigenvalues --   -0.11438  -0.10791  -0.09494  -0.09242  -0.07988
 Alpha virt. eigenvalues --   -0.07752  -0.07032  -0.06157  -0.06120  -0.06074
 Alpha virt. eigenvalues --   -0.05130  -0.03868  -0.02733  -0.02437  -0.02342

 Mulliken charges:
               1
     1  N   -0.575463
     2  H    0.344007
     3  H    0.325120
     4  H    0.412256
     5  C   -0.102527
     6  H    0.186633
     7  C    0.654857
     8  C   -0.352847
     9  H    0.140657
    10  H    0.136379
    11  H    0.187215
    12  O   -0.557621
    13  N   -0.504627
    14  H    0.283449
    15  C   -0.044834
    16  H    0.160620
    17  C    0.606216
    18  C   -0.259241
    19  H    0.152066
    20  H    0.141950
    21  O   -0.496366
    22  C   -0.023166
    23  C    0.060103
    24  H    0.131326
    25  C    0.065758
    26  C    0.281564
    27  C   -0.169741
    28  H    0.094952
    29  N   -0.608505
    30  H    0.273386
    31  C   -0.112515
    32  H    0.097528
    33  C   -0.097664
    34  H    0.097831
    35  C   -0.118105
    36  H    0.089065
    37  N   -0.545150
    38  H    0.302721
    39  C    0.011270
    40  H    0.131737
    41  C    0.623271
    42  C   -0.201138
    43  H    0.147055
    44  H    0.120605
    45  O   -0.587639
    46  C   -0.283072
    47  H    0.147156
    48  H    0.149532
    49  C    0.598710
    50  O   -0.517213
    51  O   -0.510284
    52  N   -0.520770
    53  H    0.285313
    54  C    0.038885
    55  H    0.119516
    56  C    0.618222
    57  C   -0.099583
    58  H    0.120642
    59  O   -0.548542
    60  C   -0.334770
    61  H    0.110192
    62  H    0.133165
    63  H    0.126323
    64  C   -0.317855
    65  H    0.118009
    66  H    0.105321
    67  H    0.131323
    68  N   -0.524941
    69  H    0.278693
    70  C   -0.091174
    71  H    0.183129
    72  C    0.630837
    73  C    0.179472
    74  H    0.122219
    75  O   -0.535311
    76  C   -0.370048
    77  H    0.190906
    78  H    0.115425
    79  H    0.085209
    80  O   -0.639532
    81  H    0.377542
    82  N   -0.545985
    83  H    0.317901
    84  C    0.006054
    85  H    0.130357
    86  C    0.632203
    87  C   -0.079767
    88  H    0.112158
    89  O   -0.592954
    90  C   -0.326368
    91  H    0.108122
    92  H    0.124537
    93  H    0.116899
    94  C   -0.316874
    95  H    0.109624
    96  H    0.114557
    97  H    0.102447
    98  N   -0.518450
    99  H    0.303571
   100  C    0.036454
   101  H    0.152620
   102  C    0.571936
   103  C   -0.199286
   104  H    0.101941
   105  H    0.144416
   106  O   -0.504595
   107  C   -0.207725
   108  H    0.136245
   109  H    0.087271
   110  C   -0.206511
   111  H    0.071457
   112  H    0.132736
   113  C   -0.060403
   114  H    0.099098
   115  H    0.124064
   116  N   -0.652672
   117  H    0.275025
   118  H    0.285146
   119  H    0.372991
   120  O   -0.519005
   121  H    0.385670
 Sum of Mulliken charges =   1.00000

 Dipole moment (field-independent basis, Debye):
    X=             -3.6230    Y=              4.4461    Z=             -9.9767  Tot=             11.5078
 Quadrupole moment (field-independent basis, Debye-Ang):
   XX=           -335.6565   YY=           -314.6942   ZZ=           -200.8888
   XY=              3.3780   XZ=             -9.8864   YZ=            -16.0064

 Normal termination of Gaussian 16 at Sun Sep  4 01:01:43 2022.
