 Gaussian 16, Revision C.01,
 Gaussian 16:  ES64L-G16RevC.01  3-Jul-2019

 ----------------------------------------------------------------------
 # B3LYP/6-31G** empiricaldispersion=gd3bj guess=read geom=check nosymm
  integral(ultrafinegrid)
 ----------------------------------------------------------------------

 ------------------------------------------------------
 Candidate Structure: Conf:123 Charge calc in gas phase
 ------------------------------------------------------
 Structure from the checkpoint file:  "conf-123.chk"
 Charge =  1 Multiplicity = 1

                          Input orientation:
 ---------------------------------------------------------------------
 Center     Atomic      Atomic             Coordinates (Angstroms)
 Number     Number       Type             X           Y           Z
 ---------------------------------------------------------------------
      1          7           0       -7.955470   -2.179796   -6.920003
      2          1           0       -8.436475   -1.646522   -6.188217
      3          1           0       -8.609388   -2.813835   -7.380175
      4          1           0       -7.538615   -1.452635   -7.558483
      5          6           0       -6.714659   -2.850138   -6.375300
      6          1           0       -6.946570   -3.248750   -5.386385
      7          6           0       -5.740941   -1.654049   -6.329902
      8          6           0       -6.236490   -3.933756   -7.334345
      9          1           0       -5.317354   -4.378641   -6.946232
     10          1           0       -6.975001   -4.733798   -7.438410
     11          1           0       -6.014767   -3.507548   -8.316514
     12          8           0       -5.941462   -0.751116   -7.152379
     13          7           0       -4.781670   -1.676062   -5.414319
     14          1           0       -4.552260   -2.496978   -4.859592
     15          6           0       -3.926943   -0.533227   -5.144244
     16          1           0       -3.818870    0.038667   -6.068422
     17          6           0       -2.609964   -1.094915   -4.614329
     18          6           0       -4.575208    0.361045   -4.035191
     19          1           0       -4.489868   -0.184869   -3.090272
     20          1           0       -3.967620    1.266506   -3.931072
     21          8           0       -2.594774   -2.203610   -4.082153
     22          6           0       -6.013885    0.676594   -4.295249
     23          6           0       -7.073798    0.105739   -3.633887
     24          1           0       -7.068000   -0.564403   -2.785325
     25          6           0       -6.574122    1.568930   -5.281066
     26          6           0       -7.985847    1.494876   -5.162359
     27          6           0       -6.016932    2.420803   -6.246784
     28          1           0       -4.940230    2.495437   -6.362624
     29          7           0       -8.269828    0.576934   -4.160107
     30          1           0       -9.174282    0.456470   -3.733421
     31          6           0       -8.262600    3.098508   -6.898913
     32          1           0       -8.897843    3.711011   -7.529868
     33          6           0       -8.844915    2.258686   -5.957412
     34          1           0       -9.923153    2.206109   -5.840790
     35          6           0       -6.863049    3.176740   -7.044705
     36          1           0       -6.444953    3.845188   -7.789571
     37          7           0       -1.534171   -0.282126   -4.732956
     38          1           0       -1.718312    0.688465   -4.956322
     39          6           0       -0.376162   -0.458618   -3.852226
     40          1           0       -0.236008   -1.532667   -3.717827
     41          6           0       -0.711485    0.263042   -2.536994
     42          6           0        0.855450    0.206117   -4.477246
     43          1           0        1.012944   -0.183219   -5.485636
     44          1           0        0.638190    1.276469   -4.567042
     45          8           0       -1.156265    1.408790   -2.583032
     46          6           0        2.111691    0.009527   -3.615975
     47          1           0        1.959649    0.341611   -2.587967
     48          1           0        2.380494   -1.052979   -3.577065
     49          6           0        3.304789    0.779874   -4.129563
     50          8           0        3.982722    1.537364   -3.473009
     51          8           0        3.544558    0.532575   -5.439945
     52          7           0       -0.513240   -0.430997   -1.391250
     53          1           0        0.018284   -1.290813   -1.453918
     54          6           0       -0.343142    0.285693   -0.122529
     55          1           0       -0.989928    1.163900   -0.174415
     56          6           0        1.141906    0.657569   -0.074045
     57          6           0       -0.727599   -0.579402    1.087194
     58          1           0       -0.063339   -1.452558    1.072443
     59          8           0        1.994912   -0.235147   -0.106030
     60          6           0       -0.475076    0.200691    2.383781
     61          1           0       -1.095178    1.104107    2.417101
     62          1           0       -0.732929   -0.410598    3.252820
     63          1           0        0.568309    0.507682    2.489464
     64          6           0       -2.182223   -1.046237    0.994170
     65          1           0       -2.864837   -0.189133    1.024613
     66          1           0       -2.370771   -1.594668    0.066865
     67          1           0       -2.429349   -1.699902    1.835662
     68          7           0        1.433720    1.969316   -0.082303
     69          1           0        0.723357    2.668389    0.096281
     70          6           0        2.803512    2.447324    0.002711
     71          1           0        3.408069    1.901130   -0.725732
     72          6           0        3.325077    2.240100    1.428125
     73          6           0        2.782610    3.963972   -0.306669
     74          1           0        3.768144    4.369329   -0.033072
     75          8           0        2.709012    2.738743    2.382561
     76          6           0        2.496770    4.248809   -1.771800
     77          1           0        3.284713    3.837306   -2.407104
     78          1           0        1.544528    3.799853   -2.069227
     79          1           0        2.434830    5.327723   -1.932295
     80          8           0        1.758702    4.576414    0.470608
     81          1           0        1.933833    4.309487    1.394081
     82          7           0        4.457551    1.534605    1.543847
     83          1           0        4.954631    1.199873    0.726722
     84          6           0        5.141380    1.296511    2.804400
     85          1           0        4.811666    2.062889    3.511446
     86          6           0        6.638745    1.418723    2.489095
     87          6           0        4.817835   -0.111238    3.383377
     88          1           0        5.308148   -0.839020    2.723362
     89          8           0        7.064170    1.081168    1.379827
     90          6           0        5.374801   -0.271046    4.803298
     91          1           0        4.877550    0.425521    5.488943
     92          1           0        6.449045   -0.089865    4.870740
     93          1           0        5.182992   -1.284038    5.169384
     94          6           0        3.307767   -0.380038    3.362136
     95          1           0        2.766176    0.425292    3.868034
     96          1           0        3.086624   -1.318457    3.880043
     97          1           0        2.929810   -0.459338    2.340334
     98          7           0        7.414473    1.884608    3.483925
     99          1           0        7.074975    1.959187    4.443060
    100          6           0        8.857612    1.780510    3.454834
    101          1           0        9.139771    0.820900    3.000009
    102          6           0        9.328145    1.761204    4.985352
    103          6           0        9.519590    2.915901    2.634284
    104          1           0        9.379169    3.839186    3.213172
    105          1           0        9.063143    3.059808    1.652586
    106          8           0       10.579109    1.747784    5.255275
    107          6           0       10.994100    2.547372    2.649629
    108          1           0       11.027446    2.237433    3.688114
    109          1           0       11.184216    1.650466    2.045066
    110          6           0       12.111145    3.553319    2.481013
    111          1           0       12.293260    3.919335    1.465822
    112          1           0       11.911861    4.440081    3.100810
    113          6           0       13.336362    2.864287    3.086270
    114          1           0       14.243475    3.471461    3.116131
    115          1           0       13.550780    1.914763    2.591201
    116          7           0       12.994580    2.510402    4.540931
    117          1           0       13.739000    1.977993    4.993581
    118          1           0       12.833378    3.360341    5.087815
    119          1           0       12.091794    1.978852    4.635368
    120          8           0        8.403634    1.751099    5.814001
    121          1           0        4.325419    1.060088   -5.677934
 ---------------------------------------------------------------------

 SCF Done:  E(RB3LYP) =  -2843.98142276     A.U. after    1 cycles

 Alpha  occ. eigenvalues --  -19.26181 -19.25350 -19.21986 -19.19727 -19.18780
 Alpha  occ. eigenvalues --  -19.17272 -19.16233 -19.14893 -19.13375 -19.11990
 Alpha  occ. eigenvalues --  -19.10680 -14.60455 -14.51745 -14.49234 -14.47560
 Alpha  occ. eigenvalues --  -14.45425 -14.43021 -14.40671 -14.39019 -14.36601
 Alpha  occ. eigenvalues --  -10.43191 -10.41119 -10.38822 -10.37859 -10.35710
 Alpha  occ. eigenvalues --  -10.34299 -10.33759 -10.33226 -10.32811 -10.31862
 Alpha  occ. eigenvalues --  -10.31394 -10.31335 -10.30820 -10.30239 -10.29570
 Alpha  occ. eigenvalues --  -10.29424 -10.28330 -10.27746 -10.27716 -10.27387
 Alpha  occ. eigenvalues --  -10.27087 -10.26900 -10.26831 -10.26683 -10.26594
 Alpha  occ. eigenvalues --  -10.26223 -10.26111 -10.26013 -10.25161 -10.24457
 Alpha  occ. eigenvalues --  -10.23945 -10.22603 -10.21676 -10.21586 -10.21242
 Alpha  occ. eigenvalues --  -10.20884 -10.20681 -10.19056 -10.18892  -1.19290
 Alpha  occ. eigenvalues --   -1.16229  -1.14363  -1.13788  -1.10832  -1.08438
 Alpha  occ. eigenvalues --   -1.07181  -1.07058  -1.06896  -1.06871  -1.06063
 Alpha  occ. eigenvalues --   -1.05349  -1.04622  -1.04305  -1.02118  -0.99423
 Alpha  occ. eigenvalues --   -0.96906  -0.96369  -0.95539  -0.93701  -0.93366
 Alpha  occ. eigenvalues --   -0.92381  -0.90267  -0.88306  -0.86946  -0.86051
 Alpha  occ. eigenvalues --   -0.85822  -0.83017  -0.82056  -0.81725  -0.81292
 Alpha  occ. eigenvalues --   -0.81059  -0.80653  -0.79962  -0.76985  -0.76547
 Alpha  occ. eigenvalues --   -0.75561  -0.74395  -0.74310  -0.73245  -0.73039
 Alpha  occ. eigenvalues --   -0.72123  -0.71958  -0.70795  -0.70454  -0.69993
 Alpha  occ. eigenvalues --   -0.68697  -0.68115  -0.67945  -0.66808  -0.66070
 Alpha  occ. eigenvalues --   -0.65902  -0.65612  -0.65192  -0.64515  -0.63984
 Alpha  occ. eigenvalues --   -0.63422  -0.63195  -0.62911  -0.62473  -0.61784
 Alpha  occ. eigenvalues --   -0.61643  -0.60658  -0.59714  -0.59362  -0.59311
 Alpha  occ. eigenvalues --   -0.58409  -0.58014  -0.57469  -0.57136  -0.57021
 Alpha  occ. eigenvalues --   -0.56531  -0.55993  -0.55873  -0.55428  -0.55078
 Alpha  occ. eigenvalues --   -0.54398  -0.54334  -0.54148  -0.53789  -0.53565
 Alpha  occ. eigenvalues --   -0.53253  -0.52908  -0.52476  -0.52076  -0.51667
 Alpha  occ. eigenvalues --   -0.51460  -0.51324  -0.51179  -0.50670  -0.50526
 Alpha  occ. eigenvalues --   -0.50364  -0.49905  -0.49719  -0.49319  -0.49200
 Alpha  occ. eigenvalues --   -0.48800  -0.48647  -0.48500  -0.47961  -0.47822
 Alpha  occ. eigenvalues --   -0.47695  -0.47132  -0.46320  -0.46285  -0.46141
 Alpha  occ. eigenvalues --   -0.45951  -0.45718  -0.45631  -0.45083  -0.44903
 Alpha  occ. eigenvalues --   -0.44503  -0.44426  -0.43996  -0.43947  -0.43470
 Alpha  occ. eigenvalues --   -0.43375  -0.43013  -0.42682  -0.42419  -0.42110
 Alpha  occ. eigenvalues --   -0.42008  -0.41865  -0.41835  -0.41470  -0.41266
 Alpha  occ. eigenvalues --   -0.41086  -0.40945  -0.40801  -0.40601  -0.40207
 Alpha  occ. eigenvalues --   -0.39702  -0.39547  -0.39321  -0.39062  -0.38787
 Alpha  occ. eigenvalues --   -0.38659  -0.37977  -0.37946  -0.37486  -0.37214
 Alpha  occ. eigenvalues --   -0.36922  -0.36592  -0.36532  -0.35874  -0.35381
 Alpha  occ. eigenvalues --   -0.35371  -0.35219  -0.34986  -0.33632  -0.33121
 Alpha  occ. eigenvalues --   -0.32243  -0.31231  -0.31009  -0.30523  -0.29748
 Alpha  occ. eigenvalues --   -0.29454  -0.29024  -0.27833  -0.27650  -0.27126
 Alpha  occ. eigenvalues --   -0.26621  -0.25296  -0.24752
 Alpha virt. eigenvalues --   -0.12601  -0.10800  -0.09873  -0.08094  -0.06057
 Alpha virt. eigenvalues --   -0.05897  -0.05634  -0.04985  -0.04262  -0.03744
 Alpha virt. eigenvalues --   -0.03117  -0.02683  -0.01779  -0.01259  -0.01118

 Mulliken charges:
               1
     1  N   -0.534854
     2  H    0.355947
     3  H    0.345109
     4  H    0.369029
     5  C   -0.098934
     6  H    0.171384
     7  C    0.656947
     8  C   -0.331718
     9  H    0.176103
    10  H    0.147379
    11  H    0.160214
    12  O   -0.532254
    13  N   -0.514840
    14  H    0.293413
    15  C   -0.041564
    16  H    0.155835
    17  C    0.617905
    18  C   -0.245319
    19  H    0.128017
    20  H    0.152534
    21  O   -0.535026
    22  C    0.039734
    23  C    0.011988
    24  H    0.119603
    25  C    0.097632
    26  C    0.245697
    27  C   -0.125957
    28  H    0.083102
    29  N   -0.630882
    30  H    0.270273
    31  C   -0.104502
    32  H    0.102369
    33  C   -0.111966
    34  H    0.089831
    35  C   -0.095884
    36  H    0.100248
    37  N   -0.513316
    38  H    0.280398
    39  C   -0.037000
    40  H    0.136254
    41  C    0.609376
    42  C   -0.195496
    43  H    0.136696
    44  H    0.128214
    45  O   -0.541616
    46  C   -0.271303
    47  H    0.167236
    48  H    0.141942
    49  C    0.567365
    50  O   -0.452118
    51  O   -0.476645
    52  N   -0.509971
    53  H    0.276507
    54  C   -0.001335
    55  H    0.126571
    56  C    0.628182
    57  C   -0.071585
    58  H    0.110092
    59  O   -0.570075
    60  C   -0.336327
    61  H    0.102018
    62  H    0.111664
    63  H    0.146774
    64  C   -0.314476
    65  H    0.100606
    66  H    0.100472
    67  H    0.110559
    68  N   -0.500870
    69  H    0.279939
    70  C   -0.045751
    71  H    0.136981
    72  C    0.642625
    73  C    0.146229
    74  H    0.098168
    75  O   -0.579743
    76  C   -0.325019
    77  H    0.127903
    78  H    0.107358
    79  H    0.117645
    80  O   -0.562457
    81  H    0.326301
    82  N   -0.512247
    83  H    0.285524
    84  C   -0.009667
    85  H    0.130232
    86  C    0.592268
    87  C   -0.047113
    88  H    0.096640
    89  O   -0.564575
    90  C   -0.329682
    91  H    0.106921
    92  H    0.126298
    93  H    0.100518
    94  C   -0.337839
    95  H    0.119856
    96  H    0.090823
    97  H    0.127622
    98  N   -0.534200
    99  H    0.289091
   100  C   -0.029990
   101  H    0.116769
   102  C    0.609154
   103  C   -0.164483
   104  H    0.089399
   105  H    0.118116
   106  O   -0.645379
   107  C   -0.211591
   108  H    0.118002
   109  H    0.093456
   110  C   -0.192784
   111  H    0.130822
   112  H    0.106368
   113  C   -0.104149
   114  H    0.141973
   115  H    0.162941
   116  N   -0.559446
   117  H    0.331351
   118  H    0.337460
   119  H    0.398785
   120  O   -0.552796
   121  H    0.329987
 Sum of Mulliken charges =   1.00000

 Dipole moment (field-independent basis, Debye):
    X=            -13.6176    Y=             -6.6846    Z=            -26.8917  Tot=             30.8754
 Quadrupole moment (field-independent basis, Debye-Ang):
   XX=            238.7014   YY=           -308.6718   ZZ=           -175.9376
   XY=            142.3002   XZ=            244.1568   YZ=             67.9879

 Normal termination of Gaussian 16 at Sun Sep  4 01:08:49 2022.
