 Gaussian 16, Revision C.01,
 Gaussian 16:  ES64L-G16RevC.01  3-Jul-2019

 ----------------------------------------------------------------------
 # B3LYP/6-31G** empiricaldispersion=gd3bj guess=read geom=check nosymm
  integral(ultrafinegrid)
 ----------------------------------------------------------------------

 -----------------------------------------------------
 Candidate Structure: Conf:81 Charge calc in gas phase
 -----------------------------------------------------
 Structure from the checkpoint file:  "conf-81.chk"
 Charge =  1 Multiplicity = 1

                          Input orientation:
 ---------------------------------------------------------------------
 Center     Atomic      Atomic             Coordinates (Angstroms)
 Number     Number       Type             X           Y           Z
 ---------------------------------------------------------------------
      1          7           0       -7.950286   -4.043005   -5.171239
      2          1           0       -8.425754   -3.630264   -4.359427
      3          1           0       -8.345269   -4.965483   -5.349922
      4          1           0       -8.116511   -3.435871   -5.979910
      5          6           0       -6.499232   -4.106693   -4.919930
      6          1           0       -6.330939   -4.552249   -3.932557
      7          6           0       -5.974860   -2.674349   -4.899907
      8          6           0       -5.786228   -4.918923   -5.986222
      9          1           0       -4.713561   -4.966333   -5.790213
     10          1           0       -6.181582   -5.937514   -6.014570
     11          1           0       -5.940361   -4.461634   -6.965570
     12          8           0       -6.422113   -1.819653   -5.651686
     13          7           0       -4.964361   -2.431956   -4.027111
     14          1           0       -4.591947   -3.165572   -3.447100
     15          6           0       -4.515843   -1.085442   -3.742210
     16          1           0       -4.758341   -0.481872   -4.612790
     17          6           0       -3.017383   -1.144207   -3.492454
     18          6           0       -5.211928   -0.504066   -2.493848
     19          1           0       -4.878598   -1.069715   -1.616524
     20          1           0       -4.887886    0.531776   -2.367590
     21          8           0       -2.530164   -2.032181   -2.790950
     22          6           0       -6.708035   -0.556522   -2.599638
     23          6           0       -7.529905    0.409994   -3.109778
     24          1           0       -7.285108    1.396167   -3.474966
     25          6           0       -7.555126   -1.676919   -2.271391
     26          6           0       -8.864821   -1.338057   -2.630999
     27          6           0       -7.299550   -2.939595   -1.724759
     28          1           0       -6.287356   -3.231019   -1.451021
     29          7           0       -8.828912   -0.056877   -3.141106
     30          1           0       -9.616313    0.456945   -3.489083
     31          6           0       -9.652686   -3.466585   -1.945023
     32          1           0      -10.448370   -4.197298   -1.853099
     33          6           0       -9.932176   -2.220059   -2.481483
     34          1           0      -10.931248   -1.955228   -2.809267
     35          6           0       -8.352271   -3.820519   -1.568306
     36          1           0       -8.164379   -4.817842   -1.188459
     37          7           0       -2.270210   -0.168969   -4.048703
     38          1           0       -2.722581    0.620972   -4.477597
     39          6           0       -0.833237   -0.088381   -3.792958
     40          1           0       -0.492420   -1.123711   -3.736597
     41          6           0       -0.619992    0.599629   -2.442654
     42          6           0       -0.128423    0.629022   -4.931767
     43          1           0       -0.536374    0.224659   -5.858613
     44          1           0       -0.369355    1.691998   -4.905027
     45          8           0       -0.329981    1.799580   -2.353485
     46          6           0        1.385992    0.414912   -4.919351
     47          1           0        1.832742    0.832924   -4.012198
     48          1           0        1.631911   -0.645830   -4.946074
     49          6           0        2.073662    1.065655   -6.084646
     50          8           0        2.887427    0.539190   -6.798703
     51          8           0        1.695512    2.355039   -6.242050
     52          7           0       -0.824179   -0.169848   -1.357017
     53          1           0       -1.131305   -1.126088   -1.477391
     54          6           0       -0.750434    0.389272   -0.016511
     55          1           0       -1.192511    1.389173   -0.061989
     56          6           0        0.729405    0.525081    0.338824
     57          6           0       -1.524317   -0.453249    0.999729
     58          1           0       -1.090792   -1.454870    0.978857
     59          8           0        1.397494   -0.402406    0.797457
     60          6           0       -1.385439    0.120350    2.411719
     61          1           0       -1.800287    1.130464    2.445671
     62          1           0       -1.927668   -0.498404    3.129623
     63          1           0       -0.338213    0.167580    2.721004
     64          6           0       -2.999690   -0.528590    0.616915
     65          1           0       -3.439303    0.470897    0.678300
     66          1           0       -3.150890   -0.904712   -0.399003
     67          1           0       -3.536887   -1.182689    1.305503
     68          7           0        1.257134    1.743961    0.081381
     69          1           0        0.681496    2.445279   -0.355281
     70          6           0        2.689250    1.925751    0.065804
     71          1           0        3.114579    0.923019   -0.034805
     72          6           0        3.135421    2.529622    1.390044
     73          6           0        3.146006    2.763489   -1.126651
     74          1           0        2.758337    3.784225   -1.008698
     75          8           0        3.408880    3.713417    1.530151
     76          6           0        4.658328    2.765317   -1.252270
     77          1           0        5.125330    3.171517   -0.349802
     78          1           0        4.994698    1.736946   -1.391252
     79          1           0        4.956922    3.362147   -2.111367
     80          8           0        2.644438    2.183357   -2.322013
     81          1           0        1.685265    2.285853   -2.350892
     82          7           0        3.165848    1.660210    2.434974
     83          1           0        3.054241    0.679501    2.228114
     84          6           0        3.986977    2.014663    3.583847
     85          1           0        3.603934    2.957507    3.983176
     86          6           0        5.419357    2.258755    3.097421
     87          6           0        3.907035    0.927975    4.671686
     88          1           0        4.161545   -0.010654    4.171327
     89          8           0        5.930191    1.612402    2.191354
     90          6           0        4.892055    1.145238    5.821326
     91          1           0        4.679468    2.093823    6.330360
     92          1           0        5.935085    1.156884    5.496189
     93          1           0        4.779998    0.343026    6.553838
     94          6           0        2.484313    0.845778    5.219512
     95          1           0        2.234138    1.774718    5.736382
     96          1           0        2.387986    0.022689    5.930328
     97          1           0        1.757566    0.694222    4.418763
     98          7           0        6.074555    3.257010    3.753797
     99          1           0        5.665242    3.687150    4.561421
    100          6           0        7.503577    3.416656    3.629920
    101          1           0        7.882504    2.518709    3.139759
    102          6           0        8.005104    3.477727    5.113097
    103          6           0        7.886151    4.667807    2.858236
    104          1           0        8.978747    4.729691    2.825938
    105          1           0        7.539180    5.548716    3.404357
    106          8           0        7.928635    4.584959    5.668508
    107          6           0        7.339566    4.663421    1.435940
    108          1           0        7.602040    3.716317    0.958127
    109          1           0        6.248962    4.697485    1.459747
    110          6           0        7.867539    5.827380    0.618804
    111          1           0        7.601594    6.765416    1.115744
    112          1           0        8.961409    5.781525    0.591447
    113          6           0        7.337807    5.871884   -0.805930
    114          1           0        7.725513    6.753153   -1.321345
    115          1           0        6.245717    5.972730   -0.781176
    116          7           0        7.680785    4.648749   -1.574201
    117          1           0        7.737793    4.826948   -2.576955
    118          1           0        8.574930    4.266183   -1.270767
    119          1           0        6.980285    3.917992   -1.434905
    120          8           0        8.358165    2.387246    5.594903
    121          1           0        2.198350    2.693243   -6.993804
 ---------------------------------------------------------------------

 SCF Done:  E(RB3LYP) =  -2843.91823956     A.U. after    1 cycles

 Alpha  occ. eigenvalues --  -19.27223 -19.26234 -19.24335 -19.21542 -19.20422
 Alpha  occ. eigenvalues --  -19.20352 -19.18048 -19.15376 -19.11406 -19.00870
 Alpha  occ. eigenvalues --  -19.00245 -14.63786 -14.59413 -14.50679 -14.49672
 Alpha  occ. eigenvalues --  -14.48729 -14.45277 -14.42575 -14.38199 -14.34649
 Alpha  occ. eigenvalues --  -10.44611 -10.42443 -10.41253 -10.38628 -10.38368
 Alpha  occ. eigenvalues --  -10.36331 -10.35469 -10.35149 -10.35095 -10.34089
 Alpha  occ. eigenvalues --  -10.33632 -10.33609 -10.32011 -10.31630 -10.31477
 Alpha  occ. eigenvalues --  -10.31120 -10.30875 -10.30705 -10.30542 -10.30539
 Alpha  occ. eigenvalues --  -10.30509 -10.29933 -10.28315 -10.28094 -10.27825
 Alpha  occ. eigenvalues --  -10.27258 -10.26994 -10.26697 -10.25338 -10.25135
 Alpha  occ. eigenvalues --  -10.24170 -10.23665 -10.22485 -10.20988 -10.19303
 Alpha  occ. eigenvalues --  -10.19208 -10.18242 -10.17914 -10.17112  -1.20773
 Alpha  occ. eigenvalues --   -1.17826  -1.17455  -1.16548  -1.14322  -1.13369
 Alpha  occ. eigenvalues --   -1.10158  -1.09973  -1.08451  -1.08270  -1.07507
 Alpha  occ. eigenvalues --   -1.07391  -1.05039  -1.03407  -1.01843  -0.99119
 Alpha  occ. eigenvalues --   -0.96992  -0.95966  -0.95243  -0.95024  -0.92852
 Alpha  occ. eigenvalues --   -0.90977  -0.90631  -0.89073  -0.88650  -0.88448
 Alpha  occ. eigenvalues --   -0.86233  -0.85837  -0.84864  -0.84678  -0.83534
 Alpha  occ. eigenvalues --   -0.82692  -0.82278  -0.81060  -0.80024  -0.78827
 Alpha  occ. eigenvalues --   -0.77537  -0.76852  -0.75725  -0.75682  -0.74910
 Alpha  occ. eigenvalues --   -0.74635  -0.73927  -0.72877  -0.72453  -0.72277
 Alpha  occ. eigenvalues --   -0.71758  -0.71485  -0.71092  -0.69787  -0.69308
 Alpha  occ. eigenvalues --   -0.68626  -0.67807  -0.67473  -0.67281  -0.66322
 Alpha  occ. eigenvalues --   -0.65914  -0.65876  -0.65363  -0.64944  -0.63068
 Alpha  occ. eigenvalues --   -0.62715  -0.61407  -0.61348  -0.61249  -0.60490
 Alpha  occ. eigenvalues --   -0.60230  -0.60177  -0.59964  -0.59301  -0.59188
 Alpha  occ. eigenvalues --   -0.58666  -0.58065  -0.57617  -0.57466  -0.56994
 Alpha  occ. eigenvalues --   -0.56568  -0.56091  -0.55822  -0.55566  -0.55347
 Alpha  occ. eigenvalues --   -0.55004  -0.54815  -0.54524  -0.54467  -0.54268
 Alpha  occ. eigenvalues --   -0.53587  -0.53527  -0.53202  -0.52715  -0.52612
 Alpha  occ. eigenvalues --   -0.52377  -0.51556  -0.51307  -0.51092  -0.50558
 Alpha  occ. eigenvalues --   -0.50445  -0.50341  -0.49600  -0.49485  -0.49070
 Alpha  occ. eigenvalues --   -0.48986  -0.48351  -0.48230  -0.47777  -0.47661
 Alpha  occ. eigenvalues --   -0.47204  -0.46892  -0.46412  -0.46376  -0.46102
 Alpha  occ. eigenvalues --   -0.45827  -0.45758  -0.45616  -0.45393  -0.45323
 Alpha  occ. eigenvalues --   -0.45251  -0.45229  -0.44747  -0.43972  -0.43580
 Alpha  occ. eigenvalues --   -0.43088  -0.42990  -0.42753  -0.41998  -0.41726
 Alpha  occ. eigenvalues --   -0.41404  -0.41327  -0.40949  -0.40510  -0.40233
 Alpha  occ. eigenvalues --   -0.39960  -0.39899  -0.39597  -0.39363  -0.39171
 Alpha  occ. eigenvalues --   -0.39014  -0.38796  -0.38513  -0.38036  -0.38015
 Alpha  occ. eigenvalues --   -0.36242  -0.36072  -0.35927  -0.35137  -0.35111
 Alpha  occ. eigenvalues --   -0.35027  -0.34516  -0.33977  -0.33857  -0.33510
 Alpha  occ. eigenvalues --   -0.33153  -0.32859  -0.32350  -0.31360  -0.30878
 Alpha  occ. eigenvalues --   -0.30436  -0.29260  -0.28028  -0.25257  -0.24990
 Alpha  occ. eigenvalues --   -0.16663  -0.15613  -0.14625
 Alpha virt. eigenvalues --   -0.14320  -0.13598  -0.12584  -0.10963  -0.09799
 Alpha virt. eigenvalues --   -0.09559  -0.08104  -0.07469  -0.06534  -0.05815
 Alpha virt. eigenvalues --   -0.05497  -0.04810  -0.04262  -0.03876  -0.03669

 Mulliken charges:
               1
     1  N   -0.516012
     2  H    0.369818
     3  H    0.355230
     4  H    0.358708
     5  C   -0.105479
     6  H    0.170427
     7  C    0.637606
     8  C   -0.329097
     9  H    0.178986
    10  H    0.144878
    11  H    0.158279
    12  O   -0.516430
    13  N   -0.522608
    14  H    0.284018
    15  C   -0.014310
    16  H    0.148572
    17  C    0.624076
    18  C   -0.244894
    19  H    0.142513
    20  H    0.130105
    21  O   -0.553366
    22  C    0.036494
    23  C    0.086169
    24  H    0.134485
    25  C    0.049996
    26  C    0.281306
    27  C   -0.172428
    28  H    0.093838
    29  N   -0.611955
    30  H    0.277696
    31  C   -0.139355
    32  H    0.112330
    33  C   -0.118546
    34  H    0.112533
    35  C   -0.126072
    36  H    0.105679
    37  N   -0.526007
    38  H    0.278055
    39  C   -0.021462
    40  H    0.150346
    41  C    0.623021
    42  C   -0.204614
    43  H    0.109966
    44  H    0.147167
    45  O   -0.562671
    46  C   -0.270005
    47  H    0.176254
    48  H    0.135147
    49  C    0.558211
    50  O   -0.453201
    51  O   -0.476781
    52  N   -0.518286
    53  H    0.298782
    54  C    0.016565
    55  H    0.113338
    56  C    0.618713
    57  C   -0.089827
    58  H    0.120463
    59  O   -0.538944
    60  C   -0.331109
    61  H    0.104397
    62  H    0.115052
    63  H    0.149149
    64  C   -0.326962
    65  H    0.104535
    66  H    0.087487
    67  H    0.115154
    68  N   -0.517512
    69  H    0.271362
    70  C   -0.029033
    71  H    0.147620
    72  C    0.641444
    73  C    0.154836
    74  H    0.099197
    75  O   -0.549329
    76  C   -0.358055
    77  H    0.151101
    78  H    0.142331
    79  H    0.067581
    80  O   -0.575506
    81  H    0.329121
    82  N   -0.528708
    83  H    0.278013
    84  C    0.013500
    85  H    0.114752
    86  C    0.609570
    87  C   -0.082197
    88  H    0.093916
    89  O   -0.586122
    90  C   -0.334448
    91  H    0.101269
    92  H    0.171624
    93  H    0.097865
    94  C   -0.310676
    95  H    0.104818
    96  H    0.103846
    97  H    0.093281
    98  N   -0.509727
    99  H    0.266732
   100  C    0.002601
   101  H    0.103925
   102  C    0.511149
   103  C   -0.156228
   104  H    0.088814
   105  H    0.118894
   106  O   -0.602982
   107  C   -0.212153
   108  H    0.070099
   109  H    0.138760
   110  C   -0.212519
   111  H    0.154588
   112  H    0.114359
   113  C   -0.145743
   114  H    0.164915
   115  H    0.184246
   116  N   -0.532619
   117  H    0.352257
   118  H    0.361032
   119  H    0.374241
   120  O   -0.599959
   121  H    0.324739
 Sum of Mulliken charges =   1.00000

 Dipole moment (field-independent basis, Debye):
    X=            -41.1933    Y=             -9.0831    Z=            -45.6546  Tot=             62.1590
 Quadrupole moment (field-independent basis, Debye-Ang):
   XX=            -76.2355   YY=           -223.1018   ZZ=           -331.6692
   XY=            163.2312   XZ=            -22.0928   YZ=            -18.8365

 Normal termination of Gaussian 16 at Sun Sep  4 01:04:09 2022.
