 Gaussian 16, Revision C.01,
 Gaussian 16:  ES64L-G16RevC.01  3-Jul-2019

 ----------------------------------------------------------------------
 # B3LYP/6-31G** empiricaldispersion=gd3bj guess=read geom=check nosymm
  integral(ultrafinegrid)
 ----------------------------------------------------------------------

 ------------------------------------------------------
 Candidate Structure: Conf:684 Charge calc in gas phase
 ------------------------------------------------------
 Structure from the checkpoint file:  "conf-684.chk"
 Charge =  1 Multiplicity = 1

                          Input orientation:
 ---------------------------------------------------------------------
 Center     Atomic      Atomic             Coordinates (Angstroms)
 Number     Number       Type             X           Y           Z
 ---------------------------------------------------------------------
      1          7           0       -3.953081    2.391673   -2.011413
      2          1           0       -4.201147    3.290600   -1.598439
      3          1           0       -2.909934    2.337117   -2.257537
      4          1           0       -4.099916    1.619382   -1.345951
      5          6           0       -4.749821    2.072576   -3.248881
      6          1           0       -5.808721    2.152218   -2.981387
      7          6           0       -4.405537    0.585924   -3.484616
      8          6           0       -4.392431    3.038485   -4.370353
      9          1           0       -4.982796    2.819417   -5.263026
     10          1           0       -4.620878    4.069270   -4.084617
     11          1           0       -3.330212    2.968406   -4.615902
     12          8           0       -4.082560   -0.093566   -2.509596
     13          7           0       -4.385291    0.131045   -4.747364
     14          1           0       -4.851004    0.616047   -5.507557
     15          6           0       -3.884238   -1.214377   -5.031134
     16          1           0       -4.477481   -1.953119   -4.488836
     17          6           0       -2.442687   -1.355855   -4.508661
     18          6           0       -3.957309   -1.465668   -6.556677
     19          1           0       -3.160315   -0.898379   -7.049485
     20          1           0       -3.738455   -2.525978   -6.716752
     21          8           0       -2.025549   -2.398428   -4.040579
     22          6           0       -5.285466   -1.081884   -7.129228
     23          6           0       -5.529019   -0.055476   -8.015850
     24          1           0       -4.829956    0.599235   -8.517549
     25          6           0       -6.566168   -1.669783   -6.815186
     26          6           0       -7.545129   -0.954846   -7.556652
     27          6           0       -6.974817   -2.729782   -5.987819
     28          1           0       -6.248392   -3.305443   -5.422362
     29          7           0       -6.883623    0.027037   -8.272026
     30          1           0       -7.307958    0.630092   -8.957984
     31          6           0       -9.278964   -2.319926   -6.665108
     32          1           0      -10.326434   -2.593757   -6.594304
     33          6           0       -8.905909   -1.268287   -7.492348
     34          1           0       -9.641949   -0.716946   -8.068816
     35          6           0       -8.324859   -3.043744   -5.920958
     36          1           0       -8.655050   -3.863559   -5.291771
     37          7           0       -1.673420   -0.229455   -4.685961
     38          1           0       -2.164716    0.618217   -4.931854
     39          6           0       -0.459763   -0.012784   -3.919216
     40          1           0       -0.132530   -0.995996   -3.571206
     41          6           0       -0.833151    0.888123   -2.729093
     42          6           0        0.627958    0.646979   -4.803129
     43          1           0        0.464061    0.283952   -5.820959
     44          1           0        0.482786    1.731893   -4.810869
     45          8           0       -1.548983    1.897880   -2.940698
     46          6           0        2.075100    0.320093   -4.397425
     47          1           0        2.262345   -0.753302   -4.470963
     48          1           0        2.753511    0.838628   -5.081000
     49          6           0        2.369818    0.797905   -2.993018
     50          8           0        2.334506    1.969407   -2.658414
     51          8           0        2.582401   -0.219542   -2.148334
     52          7           0       -0.379141    0.545377   -1.523299
     53          1           0        0.252680   -0.246426   -1.458148
     54          6           0       -0.404230    1.411692   -0.340383
     55          1           0       -0.915430    2.334109   -0.626656
     56          6           0        1.056130    1.682837    0.023717
     57          6           0       -1.111319    0.746437    0.861724
     58          1           0       -0.584936   -0.200275    1.034605
     59          8           0        1.818390    0.717924    0.202904
     60          6           0       -0.970859    1.616041    2.118427
     61          1           0       -1.440271    2.596384    1.966038
     62          1           0       -1.478987    1.136916    2.959573
     63          1           0        0.070840    1.784812    2.403110
     64          6           0       -2.579368    0.445978    0.552696
     65          1           0       -3.151504    1.385300    0.514966
     66          1           0       -2.709911   -0.096977   -0.386878
     67          1           0       -3.022994   -0.154057    1.351332
     68          7           0        1.421017    2.952913    0.167666
     69          1           0        0.825053    3.714286   -0.131992
     70          6           0        2.780372    3.326102    0.509798
     71          1           0        3.443526    3.037294   -0.316456
     72          6           0        3.182969    2.618807    1.816411
     73          6           0        2.802493    4.858507    0.704644
     74          1           0        2.265991    5.072706    1.634220
     75          8           0        2.411489    2.585750    2.772557
     76          6           0        4.219621    5.407011    0.770846
     77          1           0        4.782875    4.941103    1.583560
     78          1           0        4.756636    5.207006   -0.164525
     79          1           0        4.197025    6.486585    0.933479
     80          8           0        2.024787    5.488848   -0.317942
     81          1           0        2.521886    5.425413   -1.147079
     82          7           0        4.429091    2.114487    1.824246
     83          1           0        5.022690    2.120201    1.001739
     84          6           0        4.961697    1.339814    2.930885
     85          1           0        4.770946    1.878464    3.864875
     86          6           0        6.467439    1.238038    2.667005
     87          6           0        4.273777   -0.056869    3.019984
     88          1           0        3.204088    0.176409    3.027800
     89          8           0        6.920324    1.396201    1.528578
     90          6           0        4.570981   -0.919206    1.790069
     91          1           0        5.629611   -1.193815    1.735965
     92          1           0        4.307071   -0.395827    0.867946
     93          1           0        3.987259   -1.843496    1.828983
     94          6           0        4.604397   -0.789970    4.324286
     95          1           0        5.645404   -1.123299    4.368454
     96          1           0        3.976335   -1.680567    4.420029
     97          1           0        4.411488   -0.159753    5.199873
     98          7           0        7.239892    0.949310    3.732556
     99          1           0        6.826498    0.650646    4.609474
    100          6           0        8.630582    0.559881    3.565813
    101          1           0        8.684319   -0.158492    2.735118
    102          6           0        9.013787   -0.207163    4.847231
    103          6           0        9.558729    1.743977    3.223120
    104          1           0        9.994251    2.139491    4.146158
    105          1           0        8.948470    2.542008    2.797363
    106          8           0       10.292327   -0.442740    5.092344
    107          6           0       10.642944    1.336394    2.211406
    108          1           0       10.891828    0.278212    2.349150
    109          1           0       10.221719    1.409636    1.203428
    110          6           0       11.938844    2.149440    2.296804
    111          1           0       12.642730    1.769207    1.545585
    112          1           0       11.757485    3.200209    2.041992
    113          6           0       12.596735    2.095691    3.681269
    114          1           0       12.049946    2.727814    4.387645
    115          1           0       13.616184    2.499719    3.620154
    116          7           0       12.567135    0.721408    4.223701
    117          1           0       13.021203    0.694623    5.134547
    118          1           0       11.000814    0.052060    4.570227
    119          1           0       13.103393    0.097503    3.622322
    120          8           0        8.142417   -0.615024    5.594123
    121          1           0        2.598054    0.136840   -1.222643
 ---------------------------------------------------------------------

 SCF Done:  E(RB3LYP) =  -2844.07538998     A.U. after    2 cycles

 Alpha  occ. eigenvalues --  -19.26173 -19.25035 -19.24925 -19.23271 -19.21469
 Alpha  occ. eigenvalues --  -19.21385 -19.21151 -19.20732 -19.17503 -19.17435
 Alpha  occ. eigenvalues --  -19.17257 -14.56463 -14.48695 -14.48251 -14.46273
 Alpha  occ. eigenvalues --  -14.45162 -14.45147 -14.41726 -14.41085 -14.40528
 Alpha  occ. eigenvalues --  -10.42244 -10.41206 -10.39591 -10.39353 -10.38189
 Alpha  occ. eigenvalues --  -10.37974 -10.35949 -10.34920 -10.34233 -10.33631
 Alpha  occ. eigenvalues --  -10.33485 -10.33408 -10.32540 -10.31954 -10.30859
 Alpha  occ. eigenvalues --  -10.30567 -10.29820 -10.29303 -10.28999 -10.28766
 Alpha  occ. eigenvalues --  -10.28539 -10.28519 -10.28111 -10.27705 -10.27295
 Alpha  occ. eigenvalues --  -10.26846 -10.26363 -10.26324 -10.26106 -10.25755
 Alpha  occ. eigenvalues --  -10.25320 -10.25095 -10.24779 -10.24391 -10.24156
 Alpha  occ. eigenvalues --  -10.24033 -10.23859 -10.21868 -10.21813  -1.17775
 Alpha  occ. eigenvalues --   -1.17590  -1.16009  -1.13229  -1.13064  -1.12823
 Alpha  occ. eigenvalues --   -1.11246  -1.10635  -1.09754  -1.08939  -1.08602
 Alpha  occ. eigenvalues --   -1.06179  -1.05452  -1.04911  -1.04525  -1.02046
 Alpha  occ. eigenvalues --   -1.01586  -0.98531  -0.97879  -0.96374  -0.92345
 Alpha  occ. eigenvalues --   -0.91425  -0.90691  -0.89513  -0.88993  -0.86735
 Alpha  occ. eigenvalues --   -0.85794  -0.85193  -0.84625  -0.83057  -0.81157
 Alpha  occ. eigenvalues --   -0.80891  -0.80847  -0.80247  -0.79532  -0.78427
 Alpha  occ. eigenvalues --   -0.76959  -0.76392  -0.75501  -0.74351  -0.73747
 Alpha  occ. eigenvalues --   -0.72964  -0.72205  -0.72081  -0.70640  -0.69970
 Alpha  occ. eigenvalues --   -0.69959  -0.69073  -0.68941  -0.68279  -0.67964
 Alpha  occ. eigenvalues --   -0.67226  -0.66934  -0.66490  -0.66015  -0.65651
 Alpha  occ. eigenvalues --   -0.65083  -0.64666  -0.63391  -0.63332  -0.62847
 Alpha  occ. eigenvalues --   -0.62106  -0.61790  -0.61412  -0.60785  -0.60220
 Alpha  occ. eigenvalues --   -0.59552  -0.59012  -0.58560  -0.58193  -0.57874
 Alpha  occ. eigenvalues --   -0.57438  -0.57078  -0.56731  -0.56433  -0.56013
 Alpha  occ. eigenvalues --   -0.55651  -0.55204  -0.54852  -0.54759  -0.54511
 Alpha  occ. eigenvalues --   -0.53936  -0.53539  -0.53271  -0.53072  -0.52795
 Alpha  occ. eigenvalues --   -0.52711  -0.52641  -0.52198  -0.51770  -0.51617
 Alpha  occ. eigenvalues --   -0.51451  -0.51259  -0.51142  -0.50969  -0.50509
 Alpha  occ. eigenvalues --   -0.50423  -0.50265  -0.49999  -0.49755  -0.49694
 Alpha  occ. eigenvalues --   -0.49486  -0.49266  -0.48966  -0.48833  -0.48086
 Alpha  occ. eigenvalues --   -0.48072  -0.47979  -0.47927  -0.47526  -0.47494
 Alpha  occ. eigenvalues --   -0.47013  -0.46627  -0.46283  -0.46077  -0.45941
 Alpha  occ. eigenvalues --   -0.45526  -0.45446  -0.45236  -0.44959  -0.44591
 Alpha  occ. eigenvalues --   -0.44364  -0.44344  -0.43977  -0.43661  -0.43364
 Alpha  occ. eigenvalues --   -0.43255  -0.42902  -0.42717  -0.42436  -0.42186
 Alpha  occ. eigenvalues --   -0.41951  -0.41799  -0.41017  -0.40984  -0.40632
 Alpha  occ. eigenvalues --   -0.40358  -0.39575  -0.39403  -0.39286  -0.39250
 Alpha  occ. eigenvalues --   -0.38796  -0.38700  -0.38436  -0.38301  -0.38224
 Alpha  occ. eigenvalues --   -0.38137  -0.38041  -0.36480  -0.35447  -0.35131
 Alpha  occ. eigenvalues --   -0.34941  -0.34811  -0.34607  -0.34560  -0.33844
 Alpha  occ. eigenvalues --   -0.33454  -0.32288  -0.31358  -0.31044  -0.30812
 Alpha  occ. eigenvalues --   -0.30274  -0.30117  -0.28629
 Alpha virt. eigenvalues --   -0.12188  -0.10603  -0.09170  -0.07850  -0.07419
 Alpha virt. eigenvalues --   -0.07037  -0.06575  -0.05160  -0.04595  -0.04082
 Alpha virt. eigenvalues --   -0.03446  -0.02654  -0.02383  -0.02114  -0.01639

 Mulliken charges:
               1
     1  N   -0.571341
     2  H    0.328992
     3  H    0.397847
     4  H    0.351468
     5  C   -0.089216
     6  H    0.184343
     7  C    0.644397
     8  C   -0.346060
     9  H    0.146452
    10  H    0.141585
    11  H    0.161582
    12  O   -0.518572
    13  N   -0.559284
    14  H    0.274617
    15  C    0.014534
    16  H    0.164175
    17  C    0.597080
    18  C   -0.268792
    19  H    0.112836
    20  H    0.157567
    21  O   -0.490984
    22  C   -0.007455
    23  C    0.034850
    24  H    0.117237
    25  C    0.077591
    26  C    0.278334
    27  C   -0.148554
    28  H    0.092979
    29  N   -0.609235
    30  H    0.271602
    31  C   -0.103267
    32  H    0.101631
    33  C   -0.095793
    34  H    0.095400
    35  C   -0.095493
    36  H    0.098656
    37  N   -0.519450
    38  H    0.259162
    39  C   -0.020884
    40  H    0.157803
    41  C    0.639743
    42  C   -0.201085
    43  H    0.133899
    44  H    0.133151
    45  O   -0.625249
    46  C   -0.242315
    47  H    0.142679
    48  H    0.148308
    49  C    0.560473
    50  O   -0.494231
    51  O   -0.505525
    52  N   -0.490912
    53  H    0.299494
    54  C   -0.013792
    55  H    0.093921
    56  C    0.670496
    57  C   -0.054821
    58  H    0.128261
    59  O   -0.602792
    60  C   -0.346817
    61  H    0.087250
    62  H    0.120562
    63  H    0.175084
    64  C   -0.345516
    65  H    0.056031
    66  H    0.143364
    67  H    0.138054
    68  N   -0.501801
    69  H    0.280403
    70  C   -0.005775
    71  H    0.120555
    72  C    0.638843
    73  C    0.139499
    74  H    0.138562
    75  O   -0.545897
    76  C   -0.340459
    77  H    0.133932
    78  H    0.105545
    79  H    0.135653
    80  O   -0.552769
    81  H    0.314961
    82  N   -0.535934
    83  H    0.281160
    84  C    0.000244
    85  H    0.130526
    86  C    0.609641
    87  C   -0.055555
    88  H    0.129473
    89  O   -0.562931
    90  C   -0.318913
    91  H    0.109354
    92  H    0.104155
    93  H    0.104930
    94  C   -0.340711
    95  H    0.126162
    96  H    0.110951
    97  H    0.106152
    98  N   -0.544016
    99  H    0.292090
   100  C   -0.010968
   101  H    0.147493
   102  C    0.586370
   103  C   -0.184955
   104  H    0.100127
   105  H    0.129746
   106  O   -0.523318
   107  C   -0.190923
   108  H    0.094927
   109  H    0.122551
   110  C   -0.199102
   111  H    0.103507
   112  H    0.111152
   113  C   -0.059518
   114  H    0.121611
   115  H    0.106491
   116  N   -0.653419
   117  H    0.277419
   118  H    0.384603
   119  H    0.268603
   120  O   -0.477832
   121  H    0.371349
 Sum of Mulliken charges =   1.00000

 Dipole moment (field-independent basis, Debye):
    X=             -5.7222    Y=             13.6230    Z=            -16.7159  Tot=             22.3103
 Quadrupole moment (field-independent basis, Debye-Ang):
   XX=            -66.3409   YY=           -317.8688   ZZ=           -245.6208
   XY=             -0.4390   XZ=            112.1486   YZ=            -21.5668

 Normal termination of Gaussian 16 at Sun Sep  4 01:05:49 2022.
