 Gaussian 16, Revision C.01,
 Gaussian 16:  ES64L-G16RevC.01  3-Jul-2019

 ----------------------------------------------------------------------
 # B3LYP/6-31G** empiricaldispersion=gd3bj guess=read geom=check nosymm
  integral(ultrafinegrid)
 ----------------------------------------------------------------------

 ------------------------------------------------------
 Candidate Structure: Conf:564 Charge calc in gas phase
 ------------------------------------------------------
 Structure from the checkpoint file:  "conf-564.chk"
 Charge =  1 Multiplicity = 1

                          Input orientation:
 ---------------------------------------------------------------------
 Center     Atomic      Atomic             Coordinates (Angstroms)
 Number     Number       Type             X           Y           Z
 ---------------------------------------------------------------------
      1          7           0       -6.130474   -3.269429   -7.389068
      2          1           0       -6.870257   -2.941289   -6.718974
      3          1           0       -6.508780   -3.960491   -8.038401
      4          1           0       -5.800478   -2.416063   -7.886290
      5          6           0       -4.902959   -3.751669   -6.649652
      6          1           0       -5.242224   -4.335898   -5.792305
      7          6           0       -4.264294   -2.412959   -6.222577
      8          6           0       -4.003184   -4.560338   -7.576645
      9          1           0       -3.111802   -4.877834   -7.030604
     10          1           0       -4.508665   -5.459064   -7.942180
     11          1           0       -3.680546   -3.951218   -8.425487
     12          8           0       -4.365320   -1.471080   -7.012956
     13          7           0       -3.695049   -2.352129   -5.015951
     14          1           0       -3.581692   -3.163141   -4.415330
     15          6           0       -3.483310   -1.082637   -4.342682
     16          1           0       -3.193623   -0.339000   -5.086817
     17          6           0       -2.395509   -1.327985   -3.292443
     18          6           0       -4.795626   -0.639127   -3.601562
     19          1           0       -4.868145   -1.229434   -2.682589
     20          1           0       -4.682090    0.408153   -3.304989
     21          8           0       -2.251259   -2.457425   -2.821233
     22          6           0       -6.036033   -0.838018   -4.414916
     23          6           0       -6.849350   -1.931368   -4.361848
     24          1           0       -6.828873   -2.771669   -3.681748
     25          6           0       -6.531539    0.008232   -5.486589
     26          6           0       -7.652744   -0.638574   -6.049952
     27          6           0       -6.111284    1.235351   -6.014515
     28          1           0       -5.243815    1.746652   -5.610285
     29          7           0       -7.802197   -1.893863   -5.409075
     30          1           0       -8.737659   -2.247200   -5.234327
     31          6           0       -7.956327    1.135641   -7.601646
     32          1           0       -8.504743    1.598789   -8.414823
     33          6           0       -8.380063   -0.096170   -7.106981
     34          1           0       -9.249305   -0.598650   -7.520333
     35          6           0       -6.832561    1.789522   -7.065449
     36          1           0       -6.527443    2.743640   -7.481270
     37          7           0       -1.709676   -0.244594   -2.895141
     38          1           0       -1.839021    0.674689   -3.308112
     39          6           0       -0.742513   -0.274668   -1.811444
     40          1           0       -1.133065   -0.911575   -1.009981
     41          6           0       -0.611820    1.180516   -1.343433
     42          6           0        0.604174   -0.852821   -2.300906
     43          1           0        0.391840   -1.843545   -2.709254
     44          1           0        0.977541   -0.219019   -3.111946
     45          8           0       -0.861471    2.107768   -2.111921
     46          6           0        1.668449   -0.965142   -1.193517
     47          1           0        1.996883    0.022887   -0.866709
     48          1           0        1.252505   -1.509925   -0.336651
     49          6           0        2.873750   -1.739318   -1.668289
     50          8           0        3.995810   -1.288072   -1.829175
     51          8           0        2.586670   -3.023282   -1.924880
     52          7           0       -0.210106    1.360808   -0.067767
     53          1           0        0.067471    0.559812    0.478508
     54          6           0        0.173258    2.672475    0.416277
     55          1           0       -0.666112    3.354090    0.242617
     56          6           0        1.383179    3.201089   -0.366074
     57          6           0        0.480804    2.630277    1.937053
     58          1           0        0.854747    3.629047    2.190034
     59          8           0        2.215601    2.431469   -0.875354
     60          6           0       -0.803498    2.385054    2.737926
     61          1           0       -1.232641    1.402394    2.514420
     62          1           0       -0.593121    2.417599    3.810142
     63          1           0       -1.563813    3.140901    2.518449
     64          6           0        1.576556    1.619547    2.305511
     65          1           0        1.244093    0.582711    2.162608
     66          1           0        2.504561    1.758516    1.747220
     67          1           0        1.815509    1.715605    3.367711
     68          7           0        1.499760    4.533767   -0.372822
     69          1           0        0.804833    5.118769    0.079142
     70          6           0        2.657769    5.276211   -0.855092
     71          1           0        3.127814    4.691000   -1.651253
     72          6           0        3.666560    5.479026    0.307488
     73          6           0        2.175661    6.640825   -1.374224
     74          1           0        3.066992    7.222661   -1.634907
     75          8           0        4.046354    6.603689    0.633975
     76          6           0        1.255405    6.524951   -2.578096
     77          1           0        1.780044    6.066819   -3.422109
     78          1           0        0.377584    5.914694   -2.347205
     79          1           0        0.915315    7.519160   -2.875076
     80          8           0        1.458645    7.280534   -0.319944
     81          1           0        2.141677    7.532786    0.325039
     82          7           0        4.036617    4.334303    0.906636
     83          1           0        3.703499    3.445160    0.553756
     84          6           0        5.000227    4.205769    1.995354
     85          1           0        5.707998    5.035833    1.926160
     86          6           0        5.690809    2.865433    1.728523
     87          6           0        4.345369    4.204604    3.405412
     88          1           0        3.822977    3.244158    3.509836
     89          8           0        4.967941    1.923897    1.266867
     90          6           0        5.422796    4.304241    4.494053
     91          1           0        5.927021    5.275900    4.441852
     92          1           0        6.195669    3.535792    4.417760
     93          1           0        4.963975    4.224853    5.483977
     94          6           0        3.319128    5.332924    3.552890
     95          1           0        3.785278    6.309591    3.394985
     96          1           0        2.887896    5.316861    4.558381
     97          1           0        2.499877    5.237293    2.833468
     98          7           0        6.973634    2.769423    1.972621
     99          1           0        7.518927    3.395652    2.663767
    100          6           0        7.722937    1.516407    2.078309
    101          1           0        7.037943    0.706498    2.350452
    102          6           0        8.714286    1.799706    3.281778
    103          6           0        8.510759    1.117398    0.828088
    104          1           0        9.116997    0.262556    1.138969
    105          1           0        9.215749    1.918474    0.571520
    106          8           0        9.465056    0.877078    3.601346
    107          6           0        7.654607    0.759535   -0.397196
    108          1           0        8.208640    0.089334   -1.066157
    109          1           0        6.780833    0.192138   -0.052120
    110          6           0        7.212235    1.995996   -1.200772
    111          1           0        6.991138    2.826588   -0.525034
    112          1           0        8.038524    2.337649   -1.833880
    113          6           0        6.003147    1.756422   -2.099916
    114          1           0        6.184159    0.945142   -2.809697
    115          1           0        5.752922    2.654034   -2.670422
    116          7           0        4.793234    1.378349   -1.283502
    117          1           0        4.531676    0.389673   -1.425889
    118          1           0        4.960040    1.532190   -0.235829
    119          1           0        3.958067    1.938185   -1.492450
    120          8           0        8.597172    2.984737    3.742719
    121          1           0        3.409077   -3.453287   -2.218388
 ---------------------------------------------------------------------

 SCF Done:  E(RB3LYP) =  -2844.02856002     A.U. after    3 cycles

 Alpha  occ. eigenvalues --  -19.30075 -19.26758 -19.25173 -19.23387 -19.22455
 Alpha  occ. eigenvalues --  -19.22246 -19.20632 -19.18366 -19.17523 -19.08098
 Alpha  occ. eigenvalues --  -19.06512 -14.59561 -14.51016 -14.50175 -14.47545
 Alpha  occ. eigenvalues --  -14.47521 -14.46570 -14.45604 -14.42006 -14.38304
 Alpha  occ. eigenvalues --  -10.43931 -10.43101 -10.41289 -10.40619 -10.39353
 Alpha  occ. eigenvalues --  -10.38663 -10.36343 -10.35430 -10.34566 -10.34561
 Alpha  occ. eigenvalues --  -10.34024 -10.34020 -10.33344 -10.32860 -10.32181
 Alpha  occ. eigenvalues --  -10.31598 -10.31035 -10.30844 -10.30562 -10.30513
 Alpha  occ. eigenvalues --  -10.30484 -10.30304 -10.30204 -10.29827 -10.29663
 Alpha  occ. eigenvalues --  -10.29146 -10.28781 -10.28042 -10.25785 -10.25399
 Alpha  occ. eigenvalues --  -10.25368 -10.24708 -10.24060 -10.23892 -10.22884
 Alpha  occ. eigenvalues --  -10.22587 -10.21803 -10.20571 -10.20068  -1.21408
 Alpha  occ. eigenvalues --   -1.19534  -1.15662  -1.14631  -1.13869  -1.13373
 Alpha  occ. eigenvalues --   -1.12223  -1.10492  -1.09902  -1.08460  -1.07882
 Alpha  occ. eigenvalues --   -1.07033  -1.04211  -1.03465  -1.03278  -1.02122
 Alpha  occ. eigenvalues --   -1.01081  -0.98550  -0.95600  -0.95473  -0.94074
 Alpha  occ. eigenvalues --   -0.92655  -0.92034  -0.91641  -0.89577  -0.88393
 Alpha  occ. eigenvalues --   -0.85867  -0.85357  -0.85051  -0.84698  -0.84370
 Alpha  occ. eigenvalues --   -0.83759  -0.81621  -0.80701  -0.80027  -0.78726
 Alpha  occ. eigenvalues --   -0.78318  -0.76730  -0.76131  -0.75324  -0.74113
 Alpha  occ. eigenvalues --   -0.73594  -0.73174  -0.72792  -0.72219  -0.71923
 Alpha  occ. eigenvalues --   -0.71154  -0.70851  -0.70801  -0.69205  -0.68762
 Alpha  occ. eigenvalues --   -0.68588  -0.68193  -0.67384  -0.66447  -0.66192
 Alpha  occ. eigenvalues --   -0.65170  -0.64992  -0.64457  -0.63619  -0.63070
 Alpha  occ. eigenvalues --   -0.62980  -0.62478  -0.61948  -0.61069  -0.60926
 Alpha  occ. eigenvalues --   -0.60412  -0.59719  -0.59507  -0.59398  -0.59213
 Alpha  occ. eigenvalues --   -0.58719  -0.58440  -0.58347  -0.58198  -0.57955
 Alpha  occ. eigenvalues --   -0.57004  -0.56643  -0.56490  -0.55949  -0.55762
 Alpha  occ. eigenvalues --   -0.55361  -0.55061  -0.54727  -0.54500  -0.54139
 Alpha  occ. eigenvalues --   -0.54030  -0.53715  -0.53286  -0.53020  -0.52739
 Alpha  occ. eigenvalues --   -0.52595  -0.52368  -0.52328  -0.51646  -0.51464
 Alpha  occ. eigenvalues --   -0.51251  -0.51205  -0.50795  -0.50454  -0.50299
 Alpha  occ. eigenvalues --   -0.50033  -0.49604  -0.49383  -0.49142  -0.48677
 Alpha  occ. eigenvalues --   -0.48634  -0.48169  -0.48086  -0.47993  -0.47824
 Alpha  occ. eigenvalues --   -0.47292  -0.47116  -0.46363  -0.46194  -0.45655
 Alpha  occ. eigenvalues --   -0.45521  -0.45399  -0.45389  -0.45282  -0.44965
 Alpha  occ. eigenvalues --   -0.44814  -0.44739  -0.44144  -0.43452  -0.43118
 Alpha  occ. eigenvalues --   -0.42753  -0.42684  -0.42522  -0.42454  -0.42059
 Alpha  occ. eigenvalues --   -0.41980  -0.41821  -0.41478  -0.41346  -0.40710
 Alpha  occ. eigenvalues --   -0.40223  -0.39661  -0.38960  -0.38841  -0.38550
 Alpha  occ. eigenvalues --   -0.37945  -0.37794  -0.37649  -0.37388  -0.37162
 Alpha  occ. eigenvalues --   -0.37059  -0.36880  -0.36844  -0.36766  -0.36028
 Alpha  occ. eigenvalues --   -0.35936  -0.35200  -0.34789  -0.34586  -0.33972
 Alpha  occ. eigenvalues --   -0.33198  -0.32480  -0.31437  -0.30641  -0.30070
 Alpha  occ. eigenvalues --   -0.23244  -0.22876  -0.20539
 Alpha virt. eigenvalues --   -0.13695  -0.13388  -0.10626  -0.10437  -0.09648
 Alpha virt. eigenvalues --   -0.09258  -0.08404  -0.07843  -0.06439  -0.05296
 Alpha virt. eigenvalues --   -0.04796  -0.04273  -0.03322  -0.03085  -0.02852

 Mulliken charges:
               1
     1  N   -0.551868
     2  H    0.367775
     3  H    0.336283
     4  H    0.358957
     5  C   -0.081739
     6  H    0.156898
     7  C    0.641667
     8  C   -0.331892
     9  H    0.169521
    10  H    0.144585
    11  H    0.159883
    12  O   -0.526385
    13  N   -0.514651
    14  H    0.290086
    15  C   -0.025706
    16  H    0.156981
    17  C    0.618854
    18  C   -0.245557
    19  H    0.133790
    20  H    0.141577
    21  O   -0.544174
    22  C    0.068273
    23  C   -0.018762
    24  H    0.125611
    25  C    0.131818
    26  C    0.188660
    27  C   -0.124780
    28  H    0.097584
    29  N   -0.652832
    30  H    0.294283
    31  C   -0.097103
    32  H    0.116226
    33  C   -0.123458
    34  H    0.101780
    35  C   -0.088610
    36  H    0.114286
    37  N   -0.539674
    38  H    0.290834
    39  C   -0.018657
    40  H    0.139843
    41  C    0.618364
    42  C   -0.178081
    43  H    0.157507
    44  H    0.126982
    45  O   -0.539296
    46  C   -0.282707
    47  H    0.164410
    48  H    0.139120
    49  C    0.580438
    50  O   -0.482395
    51  O   -0.454844
    52  N   -0.522801
    53  H    0.270957
    54  C   -0.002733
    55  H    0.135044
    56  C    0.648121
    57  C   -0.107339
    58  H    0.125167
    59  O   -0.590567
    60  C   -0.308466
    61  H    0.100161
    62  H    0.130479
    63  H    0.112490
    64  C   -0.343377
    65  H    0.080162
    66  H    0.150743
    67  H    0.137056
    68  N   -0.493452
    69  H    0.287673
    70  C   -0.049701
    71  H    0.125812
    72  C    0.618721
    73  C    0.149517
    74  H    0.121272
    75  O   -0.537214
    76  C   -0.314407
    77  H    0.102524
    78  H    0.111009
    79  H    0.133275
    80  O   -0.562818
    81  H    0.332548
    82  N   -0.553767
    83  H    0.275627
    84  C    0.028364
    85  H    0.142453
    86  C    0.569577
    87  C   -0.061618
    88  H    0.091211
    89  O   -0.642549
    90  C   -0.330282
    91  H    0.114427
    92  H    0.148131
    93  H    0.102447
    94  C   -0.317099
    95  H    0.131339
    96  H    0.104885
    97  H    0.077775
    98  N   -0.495092
    99  H    0.324101
   100  C   -0.060695
   101  H    0.108651
   102  C    0.597832
   103  C   -0.172642
   104  H    0.138045
   105  H    0.099463
   106  O   -0.557651
   107  C   -0.188927
   108  H    0.096549
   109  H    0.086818
   110  C   -0.206220
   111  H    0.127197
   112  H    0.122575
   113  C   -0.092807
   114  H    0.140845
   115  H    0.130662
   116  N   -0.644208
   117  H    0.355422
   118  H    0.400493
   119  H    0.330564
   120  O   -0.614140
   121  H    0.342681
 Sum of Mulliken charges =   1.00000

 Dipole moment (field-independent basis, Debye):
    X=            -37.6225    Y=            -14.1650    Z=            -38.0874  Tot=             55.3782
 Quadrupole moment (field-independent basis, Debye-Ang):
   XX=           -316.0345   YY=           -292.7386   ZZ=           -172.1471
   XY=             51.3848   XZ=             70.7641   YZ=             76.5987

 Normal termination of Gaussian 16 at Sun Sep  4 01:06:04 2022.
