 Gaussian 16, Revision C.01,
 Gaussian 16:  ES64L-G16RevC.01  3-Jul-2019

 ----------------------------------------------------------------------
 # B3LYP/6-31G* empiricaldispersion=gd3 guess=read geom=check nosymm in
 tegral(ultrafinegrid)
 ----------------------------------------------------------------------

 ------------------------------------------------------
 Candidate Structure: Conf:578 Charge calc in gas phase
 ------------------------------------------------------
 Structure from the checkpoint file:  "conf-578.chk"
 Charge =  1 Multiplicity = 1

                          Input orientation:
 ---------------------------------------------------------------------
 Center     Atomic      Atomic             Coordinates (Angstroms)
 Number     Number       Type             X           Y           Z
 ---------------------------------------------------------------------
      1          7           0       -9.497308    4.001000    7.491356
      2          1           0      -10.391668    3.599007    7.783867
      3          1           0       -8.713529    3.405420    7.880297
      4          1           0       -9.435915    4.961802    7.838125
      5          6           0       -9.255536    3.899759    5.996099
      6          1           0      -10.220776    3.744821    5.506743
      7          6           0       -8.342317    2.658904    5.882168
      8          6           0       -8.565456    5.180494    5.461668
      9          1           0       -8.285689    4.939659    4.430248
     10          8           0       -7.765424    2.274354    6.905615
     11          6           0       -9.543448    6.364150    5.452767
     12          1           0       -9.840654    6.671069    6.466285
     13          1           0       -9.066316    7.234989    4.994142
     14          1           0      -10.455281    6.141881    4.886797
     15          6           0       -7.262743    5.502249    6.209320
     16          1           0       -7.438318    5.798043    7.254098
     17          1           0       -6.557332    4.670711    6.192326
     18          1           0       -6.766841    6.346874    5.724830
     19          7           0       -8.229383    2.103146    4.666813
     20          1           0       -8.617725    2.636989    3.896863
     21          6           0       -7.014991    1.360767    4.314191
     22          1           0       -6.706039    0.815652    5.210045
     23          6           0       -5.939374    2.419019    3.956143
     24          6           0       -7.256940    0.365742    3.153748
     25          1           0       -6.299603   -0.150377    3.003054
     26          8           0       -6.226658    3.615548    3.896991
     27          6           0       -7.600499    1.078052    1.824719
     28          1           0       -7.055362    2.028499    1.755882
     29          1           0       -8.671200    1.332019    1.811401
     30          6           0       -8.299892   -0.689224    3.543954
     31          1           0       -9.275340   -0.226145    3.731680
     32          1           0       -8.002156   -1.228523    4.450328
     33          1           0       -8.425449   -1.424715    2.744052
     34          6           0       -7.250442    0.231725    0.594868
     35          1           0       -7.507427    0.758495   -0.330053
     36          1           0       -6.175199    0.021775    0.575600
     37          1           0       -7.784817   -0.724474    0.592138
     38          7           0       -4.718669    1.917165    3.694940
     39          1           0       -4.601521    0.916595    3.558606
     40          6           0       -3.677342    2.690688    3.039929
     41          1           0       -4.126632    3.621931    2.683093
     42          6           0       -3.195900    1.833819    1.851340
     43          6           0       -2.516879    3.026959    4.011740
     44          1           0       -1.742453    3.567915    3.455349
     45          1           0       -2.069487    2.084415    4.349158
     46          8           0       -3.442681    0.623527    1.817387
     47          6           0       -2.995645    3.843360    5.190500
     48          6           0       -3.018599    5.242139    5.126902
     49          1           0       -2.648943    5.743551    4.235096
     50          6           0       -3.472375    3.216162    6.349001
     51          1           0       -3.457468    2.131297    6.412366
     52          6           0       -3.496052    5.998572    6.197635
     53          1           0       -3.489503    7.083642    6.137239
     54          6           0       -3.955113    3.967820    7.421513
     55          1           0       -4.309519    3.463219    8.316633
     56          6           0       -3.964177    5.362789    7.350058
     57          1           0       -4.321233    5.951601    8.191139
     58          7           0       -2.519893    2.507025    0.907551
     59          1           0       -2.221347    3.467578    1.066482
     60          6           0       -1.830691    1.888583   -0.216224
     61          1           0       -1.593548    0.854109    0.050374
     62          6           0       -0.535884    2.707021   -0.406657
     63          6           0       -2.675850    1.932362   -1.509309
     64          1           0       -2.067783    1.540289   -2.335988
     65          1           0       -2.867580    2.989298   -1.738540
     66          8           0       -0.419929    3.822239    0.109929
     67          6           0       -4.009006    1.164157   -1.453764
     68          1           0       -4.564217    1.515923   -0.573259
     69          6           0       -4.846146    1.486310   -2.700199
     70          1           0       -4.333221    1.156671   -3.612729
     71          1           0       -5.034228    2.562684   -2.793280
     72          1           0       -5.815444    0.975010   -2.662893
     73          6           0       -3.799372   -0.349930   -1.313519
     74          1           0       -3.197626   -0.737924   -2.145976
     75          1           0       -4.761837   -0.875017   -1.330952
     76          1           0       -3.306353   -0.601475   -0.370780
     77          7           0        0.394427    2.138704   -1.190707
     78          1           0        0.256602    1.222314   -1.606221
     79          6           0        1.621867    2.809920   -1.598949
     80          1           0        1.404449    3.866219   -1.770433
     81          6           0        2.047626    2.146833   -2.918924
     82          6           0        2.696014    2.703455   -0.481657
     83          1           0        2.671474    1.669689   -0.114847
     84          1           0        2.345076    3.341637    0.336609
     85          8           0        1.728531    0.990861   -3.209234
     86          6           0        4.160199    3.028517   -0.825307
     87          1           0        4.766118    2.871886    0.073090
     88          1           0        4.528965    2.312773   -1.573784
     89          6           0        4.519925    4.408312   -1.390435
     90          8           0        3.698992    5.008899   -2.143666
     91          8           0        5.691345    4.828909   -1.143798
     92          7           0        2.795943    2.955966   -3.692040
     93          1           0        3.081606    3.838896   -3.246311
     94          6           0        3.513581    2.505722   -4.863840
     95          1           0        2.820053    2.354809   -5.700823
     96          6           0        4.299298    1.216217   -4.575988
     97          6           0        4.542482    3.588015   -5.250136
     98          1           0        5.214476    3.751178   -4.402690
     99          1           0        5.131464    3.224092   -6.096599
    100          8           0        5.062070    1.137060   -3.604547
    101          6           0        3.865087    4.880032   -5.718804
    102          7           0        3.950251    5.938409   -4.857478
    103          1           0        3.378447    6.733640   -5.118295
    104          1           0        4.048735    5.773574   -3.849706
    105          8           0        3.328416    4.931010   -6.817764
    106          7           0        4.194543    0.240441   -5.505594
    107          1           0        3.546305    0.358789   -6.272829
    108          6           0        4.947800   -1.018181   -5.430908
    109          1           0        5.004681   -1.298319   -4.374475
    110          6           0        6.364427   -0.715957   -5.971398
    111          6           0        4.248569   -2.124179   -6.230734
    112          1           0        3.188403   -2.118607   -5.950674
    113          1           0        4.319750   -1.878085   -7.296089
    114          8           0        6.686666   -0.890875   -7.137678
    115          6           0        4.850621   -3.486782   -5.959909
    116          6           0        5.930272   -3.970742   -6.714122
    117          1           0        6.330496   -3.359271   -7.516633
    118          6           0        4.363815   -4.281779   -4.916440
    119          1           0        3.524917   -3.930848   -4.318830
    120          6           0        6.502874   -5.208472   -6.439530
    121          1           0        7.335028   -5.586834   -7.024559
    122          6           0        4.928279   -5.524189   -4.628992
    123          1           0        4.531376   -6.131338   -3.817309
    124          8           0        6.603658   -7.198962   -5.170391
    125          1           0        6.157277   -7.647212   -4.435482
    126          6           0        6.002623   -5.991599   -5.393412
    127          7           0        7.184122   -0.141609   -5.030415
    128          1           0        6.695912    0.210847   -4.204340
    129          6           0        8.330008    0.648428   -5.472544
    130          1           0        8.731408    0.159307   -6.363411
    131          6           0        9.369173    0.568046   -4.358158
    132          6           0        7.891893    2.089944   -5.776525
    133          1           0        7.131115    2.021509   -6.560013
    134          1           0        7.383678    2.463562   -4.881957
    135          8           0        9.492707    1.376338   -3.448878
    136          6           0        9.011613    3.062394   -6.204722
    137          1           0       10.003011    2.647816   -5.974362
    138          1           0        9.000087    3.217343   -7.288875
    139          6           0        8.891166    4.428473   -5.508486
    140          1           0        9.659811    5.117459   -5.874492
    141          1           0        7.914003    4.873634   -5.720899
    142          7           0        9.030032    4.258846   -4.054457
    143          1           0        9.634372    3.485839   -3.794527
    144          7           0        7.124682    5.425607   -3.327914
    145          1           0        6.411988    5.520271   -2.572000
    146          1           0        7.297577    6.186113   -3.967779
    147          7           0        7.969404    3.682821   -2.073190
    148          1           0        7.185921    3.864917   -1.426177
    149          1           0        8.383297    2.759960   -2.125995
    150          6           0        8.032453    4.460032   -3.160881
    151          8           0       10.131612   -0.524354   -4.456886
    152          1           0       10.727509   -0.544780   -3.682826
 ---------------------------------------------------------------------

 SCF Done:  E(RB3LYP) =  -3586.86673466     A.U. after    2 cycles

 Alpha  occ. eigenvalues --  -19.27563 -19.26469 -19.22641 -19.21210 -19.20792
 Alpha  occ. eigenvalues --  -19.18994 -19.17946 -19.17377 -19.16951 -19.16087
 Alpha  occ. eigenvalues --  -19.14389 -19.14123 -19.14037 -14.59547 -14.48834
 Alpha  occ. eigenvalues --  -14.44200 -14.43769 -14.42629 -14.42519 -14.42322
 Alpha  occ. eigenvalues --  -14.41800 -14.41204 -14.40804 -14.38953 -14.37754
 Alpha  occ. eigenvalues --  -10.42945 -10.40370 -10.39737 -10.39387 -10.37744
 Alpha  occ. eigenvalues --  -10.35929 -10.34815 -10.34105 -10.34006 -10.33286
 Alpha  occ. eigenvalues --  -10.32744 -10.32646 -10.32201 -10.31906 -10.30998
 Alpha  occ. eigenvalues --  -10.30218 -10.30204 -10.29883 -10.29100 -10.28905
 Alpha  occ. eigenvalues --  -10.28812 -10.28743 -10.28318 -10.28081 -10.27040
 Alpha  occ. eigenvalues --  -10.26722 -10.26630 -10.26377 -10.26289 -10.25898
 Alpha  occ. eigenvalues --  -10.25656 -10.25599 -10.25590 -10.25521 -10.25428
 Alpha  occ. eigenvalues --  -10.25364 -10.24482 -10.24399 -10.24115 -10.23930
 Alpha  occ. eigenvalues --  -10.23873 -10.22778 -10.22686 -10.22680 -10.22485
 Alpha  occ. eigenvalues --  -10.22162 -10.22046 -10.21673 -10.21563 -10.21555
 Alpha  occ. eigenvalues --   -1.18862  -1.18837  -1.13553  -1.12690  -1.10729
 Alpha  occ. eigenvalues --   -1.10016  -1.09695  -1.09226  -1.08980  -1.08801
 Alpha  occ. eigenvalues --   -1.08237  -1.07524  -1.07049  -1.06145  -1.05596
 Alpha  occ. eigenvalues --   -1.01179  -0.99252  -0.98864  -0.98771  -0.98319
 Alpha  occ. eigenvalues --   -0.97710  -0.97383  -0.96646  -0.95439  -0.94165
 Alpha  occ. eigenvalues --   -0.92779  -0.92163  -0.90581  -0.88905  -0.87001
 Alpha  occ. eigenvalues --   -0.86763  -0.85913  -0.85616  -0.84634  -0.83297
 Alpha  occ. eigenvalues --   -0.82470  -0.81862  -0.81561  -0.81046  -0.80875
 Alpha  occ. eigenvalues --   -0.80228  -0.79735  -0.78371  -0.78096  -0.77168
 Alpha  occ. eigenvalues --   -0.75735  -0.75506  -0.73760  -0.73513  -0.73119
 Alpha  occ. eigenvalues --   -0.72795  -0.72207  -0.71806  -0.71568  -0.71072
 Alpha  occ. eigenvalues --   -0.70531  -0.69986  -0.69932  -0.68638  -0.67675
 Alpha  occ. eigenvalues --   -0.67193  -0.66952  -0.66503  -0.66063  -0.65582
 Alpha  occ. eigenvalues --   -0.65429  -0.65209  -0.64988  -0.64558  -0.64069
 Alpha  occ. eigenvalues --   -0.63624  -0.63464  -0.62373  -0.62149  -0.61742
 Alpha  occ. eigenvalues --   -0.61572  -0.61421  -0.61049  -0.60731  -0.59512
 Alpha  occ. eigenvalues --   -0.58769  -0.58078  -0.57992  -0.57734  -0.57652
 Alpha  occ. eigenvalues --   -0.57254  -0.57188  -0.56958  -0.56632  -0.56267
 Alpha  occ. eigenvalues --   -0.55857  -0.55615  -0.55260  -0.55235  -0.54802
 Alpha  occ. eigenvalues --   -0.54658  -0.54525  -0.54106  -0.53844  -0.53379
 Alpha  occ. eigenvalues --   -0.53287  -0.52932  -0.52693  -0.52289  -0.52190
 Alpha  occ. eigenvalues --   -0.52046  -0.51827  -0.51663  -0.51619  -0.51460
 Alpha  occ. eigenvalues --   -0.51134  -0.50806  -0.50666  -0.50236  -0.50154
 Alpha  occ. eigenvalues --   -0.49900  -0.49793  -0.49520  -0.49381  -0.49235
 Alpha  occ. eigenvalues --   -0.49072  -0.48879  -0.48484  -0.48223  -0.48196
 Alpha  occ. eigenvalues --   -0.47882  -0.47777  -0.47538  -0.47051  -0.46988
 Alpha  occ. eigenvalues --   -0.46599  -0.46485  -0.46369  -0.46303  -0.46263
 Alpha  occ. eigenvalues --   -0.46178  -0.46087  -0.45863  -0.45742  -0.45687
 Alpha  occ. eigenvalues --   -0.45650  -0.45428  -0.45148  -0.45023  -0.44868
 Alpha  occ. eigenvalues --   -0.44806  -0.44549  -0.44359  -0.43953  -0.43637
 Alpha  occ. eigenvalues --   -0.43543  -0.43388  -0.43114  -0.42888  -0.42858
 Alpha  occ. eigenvalues --   -0.42752  -0.42285  -0.42020  -0.41950  -0.41804
 Alpha  occ. eigenvalues --   -0.41776  -0.41501  -0.41305  -0.41155  -0.41059
 Alpha  occ. eigenvalues --   -0.40932  -0.40792  -0.40676  -0.40502  -0.40475
 Alpha  occ. eigenvalues --   -0.40197  -0.40094  -0.39964  -0.39604  -0.38975
 Alpha  occ. eigenvalues --   -0.38807  -0.38798  -0.37740  -0.37597  -0.37408
 Alpha  occ. eigenvalues --   -0.37302  -0.36967  -0.36293  -0.36085  -0.34739
 Alpha  occ. eigenvalues --   -0.34651  -0.34053  -0.33479  -0.33315  -0.33078
 Alpha  occ. eigenvalues --   -0.32514  -0.32410  -0.31460  -0.31407  -0.31215
 Alpha  occ. eigenvalues --   -0.30701  -0.30614  -0.30364  -0.29936  -0.29730
 Alpha  occ. eigenvalues --   -0.29317  -0.29111  -0.28750  -0.28496  -0.28091
 Alpha  occ. eigenvalues --   -0.27769  -0.25195
 Alpha virt. eigenvalues --   -0.12081  -0.10765  -0.08045  -0.07209  -0.06738
 Alpha virt. eigenvalues --   -0.06652  -0.06255  -0.04909  -0.04582  -0.04442
 Alpha virt. eigenvalues --   -0.04263  -0.03712  -0.03091  -0.02922  -0.02262

 Mulliken charges:
               1
     1  N   -0.755081
     2  H    0.415170
     3  H    0.432967
     4  H    0.411982
     5  C   -0.121231
     6  H    0.202138
     7  C    0.664288
     8  C   -0.121428
     9  H    0.204556
    10  O   -0.533666
    11  C   -0.461211
    12  H    0.132119
    13  H    0.197814
    14  H    0.165088
    15  C   -0.477505
    16  H    0.114527
    17  H    0.222211
    18  H    0.192470
    19  N   -0.568346
    20  H    0.354439
    21  C   -0.106137
    22  H    0.202010
    23  C    0.636614
    24  C   -0.102025
    25  H    0.161341
    26  O   -0.551106
    27  C   -0.290881
    28  H    0.155111
    29  H    0.128632
    30  C   -0.452162
    31  H    0.144744
    32  H    0.155022
    33  H    0.172375
    34  C   -0.471096
    35  H    0.159951
    36  H    0.187052
    37  H    0.154861
    38  N   -0.593681
    39  H    0.360627
    40  C   -0.079145
    41  H    0.189644
    42  C    0.632220
    43  C   -0.367335
    44  H    0.174875
    45  H    0.164476
    46  O   -0.551012
    47  C    0.183240
    48  C   -0.173035
    49  H    0.136480
    50  C   -0.173098
    51  H    0.127445
    52  C   -0.131463
    53  H    0.138439
    54  C   -0.136587
    55  H    0.131358
    56  C   -0.136130
    57  H    0.128131
    58  N   -0.600199
    59  H    0.357632
    60  C   -0.078517
    61  H    0.180399
    62  C    0.626534
    63  C   -0.252547
    64  H    0.147934
    65  H    0.144347
    66  O   -0.549656
    67  C   -0.070745
    68  H    0.127010
    69  C   -0.446930
    70  H    0.148974
    71  H    0.140898
    72  H    0.141535
    73  C   -0.463607
    74  H    0.137824
    75  H    0.140554
    76  H    0.173802
    77  N   -0.617366
    78  H    0.351300
    79  C   -0.052709
    80  H    0.200659
    81  C    0.602223
    82  C   -0.253719
    83  H    0.139190
    84  H    0.170895
    85  O   -0.563043
    86  C   -0.403761
    87  H    0.152370
    88  H    0.199778
    89  C    0.614360
    90  O   -0.587534
    91  O   -0.606397
    92  N   -0.650240
    93  H    0.404666
    94  C   -0.014717
    95  H    0.172207
    96  C    0.663454
    97  C   -0.411587
    98  H    0.181412
    99  H    0.170780
   100  O   -0.567176
   101  C    0.566187
   102  N   -0.778760
   103  H    0.331378
   104  H    0.386417
   105  O   -0.508544
   106  N   -0.606932
   107  H    0.349706
   108  C   -0.045054
   109  H    0.185425
   110  C    0.633027
   111  C   -0.386982
   112  H    0.159330
   113  H    0.172926
   114  O   -0.514995
   115  C    0.143940
   116  C   -0.186829
   117  H    0.162781
   118  C   -0.188106
   119  H    0.128121
   120  C   -0.161037
   121  H    0.145351
   122  C   -0.193211
   123  H    0.120203
   124  O   -0.639444
   125  H    0.408245
   126  C    0.351641
   127  N   -0.623517
   128  H    0.375537
   129  C   -0.042872
   130  H    0.208991
   131  C    0.592797
   132  C   -0.291135
   133  H    0.179694
   134  H    0.164476
   135  O   -0.507566
   136  C   -0.300309
   137  H    0.150866
   138  H    0.175038
   139  C   -0.163443
   140  H    0.176776
   141  H    0.176366
   142  N   -0.591501
   143  H    0.368784
   144  N   -0.769268
   145  H    0.419876
   146  H    0.355563
   147  N   -0.782676
   148  H    0.404807
   149  H    0.377148
   150  C    0.735961
   151  O   -0.530217
   152  H    0.423699
 Sum of Mulliken charges =   1.00000

 Dipole moment (field-independent basis, Debye):
    X=            -23.9997    Y=             14.7847    Z=             20.5587  Tot=             34.8889
 Quadrupole moment (field-independent basis, Debye-Ang):
   XX=             52.1717   YY=           -360.0090   ZZ=           -271.7205
   XY=           -110.0582   XZ=           -289.9953   YZ=             81.4457

 Normal termination of Gaussian 16 at Sun Aug 14 21:11:37 2022.
