 Gaussian 16, Revision C.01,
 Gaussian 16:  ES64L-G16RevC.01  3-Jul-2019

 ----------------------------------------------------------------------
 # B3LYP/6-31G* empiricaldispersion=gd3 guess=read geom=check nosymm in
 tegral(ultrafinegrid)
 ----------------------------------------------------------------------

 ------------------------------------------------------
 Candidate Structure: Conf:746 Charge calc in gas phase
 ------------------------------------------------------
 Structure from the checkpoint file:  "conf-746.chk"
 Charge =  1 Multiplicity = 1

                          Input orientation:
 ---------------------------------------------------------------------
 Center     Atomic      Atomic             Coordinates (Angstroms)
 Number     Number       Type             X           Y           Z
 ---------------------------------------------------------------------
      1          7           0       -7.662216   -4.035093    1.989532
      2          1           0       -7.220274   -4.428454    1.154145
      3          1           0       -7.054121   -4.281437    2.836047
      4          1           0       -8.612100   -4.403869    2.068651
      5          6           0       -7.590204   -2.519693    2.034688
      6          1           0       -7.486476   -2.146391    1.012336
      7          6           0       -6.292238   -2.315431    2.863954
      8          6           0       -8.857716   -1.936457    2.702149
      9          1           0       -8.920889   -2.373236    3.709455
     10          8           0       -5.944358   -3.261981    3.593884
     11          6           0       -8.744789   -0.408377    2.840568
     12          1           0       -8.620194    0.067688    1.859785
     13          1           0       -9.664956   -0.014546    3.281661
     14          1           0       -7.912214   -0.100071    3.476194
     15          6           0      -10.126093   -2.298096    1.909221
     16          1           0      -10.079234   -1.895000    0.890625
     17          1           0      -10.316786   -3.377726    1.836045
     18          1           0      -11.004317   -1.867558    2.398836
     19          7           0       -5.657693   -1.168695    2.720574
     20          1           0       -6.034154   -0.400256    2.164387
     21          6           0       -4.435205   -0.809752    3.431104
     22          1           0       -4.514104   -1.211093    4.446372
     23          6           0       -4.459199    0.731352    3.453089
     24          6           0       -3.091336   -1.331641    2.773705
     25          1           0       -2.639588   -0.472084    2.270639
     26          8           0       -5.280686    1.363688    2.785648
     27          6           0       -3.286248   -2.421381    1.698019
     28          1           0       -4.165919   -2.184246    1.081890
     29          1           0       -3.494899   -3.381527    2.190139
     30          6           0       -2.140013   -1.807355    3.883881
     31          1           0       -2.563263   -2.684914    4.390764
     32          1           0       -1.964983   -1.041703    4.651857
     33          1           0       -1.155981   -2.068423    3.476012
     34          6           0       -2.064811   -2.537782    0.774379
     35          1           0       -2.165937   -3.381978    0.083017
     36          1           0       -1.960957   -1.626037    0.171943
     37          1           0       -1.132388   -2.658134    1.335654
     38          7           0       -3.512531    1.307074    4.230434
     39          1           0       -2.799272    0.691129    4.606127
     40          6           0       -3.057510    2.662330    3.985981
     41          1           0       -3.930944    3.323229    3.978867
     42          6           0       -2.432107    2.745854    2.570313
     43          6           0       -2.090029    3.096797    5.128232
     44          1           0       -2.702691    3.388378    5.987151
     45          1           0       -1.542397    3.991952    4.811693
     46          8           0       -2.345259    1.758549    1.838508
     47          6           0       -1.127989    1.999730    5.542099
     48          6           0       -1.370047    1.271118    6.715706
     49          1           0       -2.208507    1.545932    7.352320
     50          6           0       -0.046630    1.628814    4.728860
     51          1           0        0.147563    2.179068    3.811039
     52          6           0       -0.552573    0.194698    7.068080
     53          1           0       -0.755346   -0.360336    7.980130
     54          6           0        0.771361    0.551475    5.075457
     55          1           0        1.590293    0.236846    4.434487
     56          6           0        0.513106   -0.168762    6.244600
     57          1           0        1.140466   -1.018456    6.496069
     58          7           0       -2.022193    3.970546    2.160906
     59          1           0       -2.095804    4.758624    2.789633
     60          6           0       -1.641514    4.244869    0.767650
     61          1           0       -2.242265    3.561934    0.155858
     62          6           0       -0.161031    3.887581    0.485108
     63          6           0       -1.953638    5.695010    0.397016
     64          1           0       -1.678311    5.825717   -0.655656
     65          1           0       -1.282117    6.358989    0.956925
     66          8           0        0.627851    4.694926   -0.015135
     67          6           0       -3.419541    6.122881    0.606904
     68          1           0       -3.641341    6.098447    1.685044
     69          6           0       -3.604906    7.570732    0.130882
     70          1           0       -3.429674    7.648850   -0.949694
     71          1           0       -2.905424    8.250431    0.631675
     72          1           0       -4.622428    7.924886    0.330827
     73          6           0       -4.413440    5.182462   -0.090617
     74          1           0       -4.186004    5.101156   -1.161738
     75          1           0       -5.436512    5.563661    0.003496
     76          1           0       -4.398806    4.174021    0.338173
     77          7           0        0.175709    2.621424    0.817532
     78          1           0       -0.555468    1.969871    1.095881
     79          6           0        1.541007    2.133845    0.677879
     80          1           0        2.194591    2.984139    0.901372
     81          6           0        1.820036    1.720684   -0.771850
     82          6           0        1.859736    0.989917    1.648753
     83          1           0        1.978822    1.429842    2.644036
     84          1           0        2.845442    0.588505    1.396585
     85          8           0        1.636941    0.582493   -1.205990
     86          6           0        0.868440   -0.176672    1.700332
     87          1           0       -0.062784    0.107722    2.208216
     88          1           0        0.594979   -0.497202    0.691365
     89          6           0        1.459608   -1.416165    2.450792
     90          8           0        0.697424   -2.420870    2.518398
     91          8           0        2.628361   -1.300312    2.893840
     92          7           0        2.371530    2.696482   -1.554025
     93          1           0        2.338330    3.657118   -1.227550
     94          6           0        2.824548    2.358394   -2.895768
     95          1           0        2.124298    1.605256   -3.277560
     96          6           0        4.221452    1.694546   -2.817286
     97          6           0        2.835992    3.565216   -3.821896
     98          1           0        1.852119    4.048191   -3.806140
     99          1           0        3.559073    4.309529   -3.473516
    100          8           0        5.255130    2.250417   -3.221485
    101          6           0        3.161880    3.297503   -5.286075
    102          7           0        3.261323    2.023155   -5.725089
    103          1           0        3.485764    1.896256   -6.703034
    104          1           0        3.422542    1.211428   -5.133626
    105          8           0        3.310896    4.266187   -6.051057
    106          7           0        4.212542    0.458299   -2.297472
    107          1           0        3.315673    0.052489   -2.020643
    108          6           0        5.358327   -0.407688   -2.411277
    109          1           0        6.247131    0.141832   -2.079176
    110          6           0        5.590298   -0.728492   -3.908523
    111          6           0        5.184335   -1.661706   -1.508402
    112          1           0        5.987599   -2.370968   -1.748859
    113          1           0        5.356916   -1.339457   -0.476828
    114          8           0        4.790907   -0.431714   -4.800184
    115          6           0        3.826108   -2.329242   -1.594903
    116          6           0        3.010130   -2.417939   -0.454898
    117          1           0        3.338718   -2.010268    0.499318
    118          6           0        3.349216   -2.870033   -2.796808
    119          1           0        3.953103   -2.824512   -3.699544
    120          6           0        1.760655   -3.032139   -0.501817
    121          1           0        1.154946   -3.098355    0.397734
    122          6           0        2.094347   -3.471962   -2.862755
    123          1           0        1.736105   -3.884448   -3.805088
    124          8           0        0.057614   -4.133805   -1.723961
    125          1           0       -0.122209   -4.468488   -2.615896
    126          6           0        1.298817   -3.552444   -1.712870
    127          7           0        6.775186   -1.336359   -4.155608
    128          1           0        7.352377   -1.642507   -3.378847
    129          6           0        7.195609   -1.833471   -5.454421
    130          1           0        6.326904   -2.240891   -5.984770
    131          6           0        8.171029   -2.978382   -5.194785
    132          6           0        7.859391   -0.735756   -6.332675
    133          1           0        8.372009   -0.051811   -5.644162
    134          1           0        8.630250   -1.182478   -6.969859
    135          8           0        8.642514   -3.244930   -4.111770
    136          6           0        6.847421    0.009488   -7.218952
    137          1           0        6.603606   -0.622079   -8.082446
    138          1           0        5.916800    0.172349   -6.667792
    139          6           0        7.372253    1.357164   -7.730619
    140          1           0        8.404523    1.279458   -8.088277
    141          1           0        6.772794    1.695654   -8.577710
    142          7           0        7.333218    2.395642   -6.689680
    143          1           0        7.932693    2.260213   -5.884644
    144          7           0        5.586294    3.711726   -7.533363
    145          1           0        4.662417    4.102288   -7.300409
    146          1           0        5.848780    3.560259   -8.495149
    147          7           0        6.176660    3.842194   -5.300437
    148          1           0        5.489482    4.587501   -5.262336
    149          1           0        6.122553    3.219723   -4.483844
    150          6           0        6.353859    3.299163   -6.517280
    151          8           0        8.458661   -3.640454   -6.329523
    152          1           0        9.093617   -4.347012   -6.102540
 ---------------------------------------------------------------------

 SCF Done:  E(RB3LYP) =  -3586.81026218     A.U. after    3 cycles

 Alpha  occ. eigenvalues --  -19.28627 -19.23652 -19.23208 -19.20915 -19.20661
 Alpha  occ. eigenvalues --  -19.20452 -19.20084 -19.18971 -19.18754 -19.17336
 Alpha  occ. eigenvalues --  -19.16949 -19.05152 -19.05044 -14.57336 -14.49030
 Alpha  occ. eigenvalues --  -14.47605 -14.46153 -14.45931 -14.44530 -14.44475
 Alpha  occ. eigenvalues --  -14.43226 -14.42289 -14.42227 -14.41934 -14.40128
 Alpha  occ. eigenvalues --  -10.44173 -10.41179 -10.40272 -10.38702 -10.38091
 Alpha  occ. eigenvalues --  -10.37120 -10.36354 -10.35663 -10.35552 -10.34000
 Alpha  occ. eigenvalues --  -10.33991 -10.33686 -10.33193 -10.32537 -10.30991
 Alpha  occ. eigenvalues --  -10.30438 -10.30328 -10.29966 -10.29590 -10.29165
 Alpha  occ. eigenvalues --  -10.28921 -10.28339 -10.28128 -10.27931 -10.27422
 Alpha  occ. eigenvalues --  -10.26952 -10.25923 -10.25145 -10.24599 -10.23970
 Alpha  occ. eigenvalues --  -10.23950 -10.23689 -10.23168 -10.22894 -10.22541
 Alpha  occ. eigenvalues --  -10.22507 -10.22490 -10.22456 -10.22333 -10.22302
 Alpha  occ. eigenvalues --  -10.22061 -10.21806 -10.21658 -10.21341 -10.20852
 Alpha  occ. eigenvalues --  -10.19783 -10.19608 -10.19034 -10.17872 -10.16674
 Alpha  occ. eigenvalues --   -1.19671  -1.16338  -1.13106  -1.12396  -1.12152
 Alpha  occ. eigenvalues --   -1.11446  -1.11154  -1.10998  -1.10784  -1.10171
 Alpha  occ. eigenvalues --   -1.09406  -1.08541  -1.08233  -1.02941  -1.02719
 Alpha  occ. eigenvalues --   -1.01370  -1.00191  -0.99751  -0.99445  -0.99418
 Alpha  occ. eigenvalues --   -0.99322  -0.98474  -0.98225  -0.96784  -0.93136
 Alpha  occ. eigenvalues --   -0.90041  -0.89635  -0.89430  -0.88341  -0.86958
 Alpha  occ. eigenvalues --   -0.86464  -0.86309  -0.85654  -0.84232  -0.83274
 Alpha  occ. eigenvalues --   -0.83190  -0.81981  -0.79810  -0.79624  -0.79140
 Alpha  occ. eigenvalues --   -0.78943  -0.77870  -0.77757  -0.77159  -0.77045
 Alpha  occ. eigenvalues --   -0.75453  -0.74835  -0.73910  -0.73434  -0.72742
 Alpha  occ. eigenvalues --   -0.72718  -0.71785  -0.71387  -0.71221  -0.70689
 Alpha  occ. eigenvalues --   -0.70247  -0.69745  -0.69259  -0.68708  -0.68061
 Alpha  occ. eigenvalues --   -0.67734  -0.66911  -0.66874  -0.66064  -0.65557
 Alpha  occ. eigenvalues --   -0.65531  -0.65037  -0.64997  -0.64750  -0.64002
 Alpha  occ. eigenvalues --   -0.63373  -0.63162  -0.62790  -0.62255  -0.62073
 Alpha  occ. eigenvalues --   -0.61935  -0.61731  -0.61650  -0.61238  -0.61037
 Alpha  occ. eigenvalues --   -0.60559  -0.59821  -0.59440  -0.58840  -0.58433
 Alpha  occ. eigenvalues --   -0.57970  -0.57760  -0.56906  -0.56434  -0.56324
 Alpha  occ. eigenvalues --   -0.56168  -0.56096  -0.55991  -0.55694  -0.55462
 Alpha  occ. eigenvalues --   -0.54823  -0.54770  -0.54225  -0.54090  -0.53873
 Alpha  occ. eigenvalues --   -0.53494  -0.53315  -0.52794  -0.52686  -0.52194
 Alpha  occ. eigenvalues --   -0.52030  -0.51951  -0.51750  -0.51270  -0.51207
 Alpha  occ. eigenvalues --   -0.50792  -0.50334  -0.50116  -0.49994  -0.49897
 Alpha  occ. eigenvalues --   -0.49541  -0.49429  -0.49117  -0.48953  -0.48702
 Alpha  occ. eigenvalues --   -0.48424  -0.48327  -0.48212  -0.48014  -0.47921
 Alpha  occ. eigenvalues --   -0.47632  -0.47460  -0.47382  -0.47294  -0.46919
 Alpha  occ. eigenvalues --   -0.46798  -0.46761  -0.46473  -0.46159  -0.45880
 Alpha  occ. eigenvalues --   -0.45711  -0.45453  -0.45273  -0.45160  -0.44957
 Alpha  occ. eigenvalues --   -0.44812  -0.44547  -0.44375  -0.44299  -0.44196
 Alpha  occ. eigenvalues --   -0.44172  -0.43954  -0.43830  -0.43790  -0.43379
 Alpha  occ. eigenvalues --   -0.43155  -0.43040  -0.42918  -0.42704  -0.42598
 Alpha  occ. eigenvalues --   -0.42465  -0.42078  -0.41797  -0.41277  -0.40741
 Alpha  occ. eigenvalues --   -0.40530  -0.40219  -0.39772  -0.39435  -0.38969
 Alpha  occ. eigenvalues --   -0.38483  -0.38331  -0.38269  -0.38084  -0.38021
 Alpha  occ. eigenvalues --   -0.37897  -0.37788  -0.37741  -0.37445  -0.37396
 Alpha  occ. eigenvalues --   -0.37305  -0.36800  -0.36774  -0.36443  -0.36220
 Alpha  occ. eigenvalues --   -0.35910  -0.35665  -0.35552  -0.35270  -0.34971
 Alpha  occ. eigenvalues --   -0.34860  -0.34628  -0.34360  -0.34109  -0.34002
 Alpha  occ. eigenvalues --   -0.33813  -0.33163  -0.33005  -0.32644  -0.32423
 Alpha  occ. eigenvalues --   -0.31716  -0.31538  -0.31026  -0.29736  -0.28544
 Alpha  occ. eigenvalues --   -0.28383  -0.28133  -0.27455  -0.24663  -0.21091
 Alpha  occ. eigenvalues --   -0.19662  -0.19161
 Alpha virt. eigenvalues --   -0.09829  -0.09722  -0.08627  -0.08214  -0.07333
 Alpha virt. eigenvalues --   -0.06633  -0.05950  -0.05538  -0.04698  -0.04371
 Alpha virt. eigenvalues --   -0.03988  -0.03797  -0.03587  -0.03290  -0.02921

 Mulliken charges:
               1
     1  N   -0.760516
     2  H    0.414448
     3  H    0.432614
     4  H    0.403463
     5  C   -0.104985
     6  H    0.201078
     7  C    0.656990
     8  C   -0.105403
     9  H    0.168410
    10  O   -0.551198
    11  C   -0.474294
    12  H    0.164275
    13  H    0.181239
    14  H    0.192071
    15  C   -0.469859
    16  H    0.172506
    17  H    0.135222
    18  H    0.196229
    19  N   -0.597938
    20  H    0.369242
    21  C   -0.064921
    22  H    0.191939
    23  C    0.626302
    24  C   -0.113983
    25  H    0.201726
    26  O   -0.554880
    27  C   -0.253911
    28  H    0.077072
    29  H    0.130859
    30  C   -0.529927
    31  H    0.134459
    32  H    0.138810
    33  H    0.259962
    34  C   -0.489129
    35  H    0.128066
    36  H    0.131621
    37  H    0.243946
    38  N   -0.610726
    39  H    0.378145
    40  C   -0.073082
    41  H    0.187668
    42  C    0.653162
    43  C   -0.370734
    44  H    0.167592
    45  H    0.156115
    46  O   -0.537064
    47  C    0.107884
    48  C   -0.191645
    49  H    0.124507
    50  C   -0.192627
    51  H    0.131856
    52  C   -0.124717
    53  H    0.135592
    54  C   -0.135464
    55  H    0.204578
    56  C   -0.133459
    57  H    0.160662
    58  N   -0.606226
    59  H    0.339850
    60  C   -0.072641
    61  H    0.190566
    62  C    0.626670
    63  C   -0.283477
    64  H    0.159655
    65  H    0.151553
    66  O   -0.553824
    67  C   -0.071801
    68  H    0.110656
    69  C   -0.442182
    70  H    0.145376
    71  H    0.146495
    72  H    0.147723
    73  C   -0.457536
    74  H    0.141669
    75  H    0.148198
    76  H    0.158840
    77  N   -0.630170
    78  H    0.404033
    79  C   -0.060364
    80  H    0.158541
    81  C    0.631841
    82  C   -0.269532
    83  H    0.143183
    84  H    0.160715
    85  O   -0.528552
    86  C   -0.417526
    87  H    0.132156
    88  H    0.174356
    89  C    0.599142
    90  O   -0.587525
    91  O   -0.597694
    92  N   -0.624185
    93  H    0.364266
    94  C   -0.055032
    95  H    0.192843
    96  C    0.628921
    97  C   -0.376028
    98  H    0.209072
    99  H    0.182623
   100  O   -0.591255
   101  C    0.617947
   102  N   -0.762468
   103  H    0.337546
   104  H    0.405034
   105  O   -0.574596
   106  N   -0.607490
   107  H    0.417673
   108  C   -0.058929
   109  H    0.180253
   110  C    0.649476
   111  C   -0.382707
   112  H    0.159094
   113  H    0.189206
   114  O   -0.559615
   115  C    0.117037
   116  C   -0.213423
   117  H    0.188146
   118  C   -0.186618
   119  H    0.111580
   120  C   -0.172140
   121  H    0.220170
   122  C   -0.194100
   123  H    0.106040
   124  O   -0.639731
   125  H    0.399100
   126  C    0.342691
   127  N   -0.621328
   128  H    0.365602
   129  C   -0.022824
   130  H    0.202020
   131  C    0.573040
   132  C   -0.279197
   133  H    0.142116
   134  H    0.179201
   135  O   -0.449229
   136  C   -0.289350
   137  H    0.164899
   138  H    0.196551
   139  C   -0.172437
   140  H    0.187894
   141  H    0.159704
   142  N   -0.581005
   143  H    0.365677
   144  N   -0.773192
   145  H    0.413326
   146  H    0.365005
   147  N   -0.759448
   148  H    0.370336
   149  H    0.412135
   150  C    0.747162
   151  O   -0.560500
   152  H    0.431421
 Sum of Mulliken charges =   1.00000

 Dipole moment (field-independent basis, Debye):
    X=             -9.5647    Y=              1.1947    Z=            -20.0688  Tot=             22.2636
 Quadrupole moment (field-independent basis, Debye-Ang):
   XX=            -55.3917   YY=           -368.1780   ZZ=           -260.2253
   XY=            101.0784   XZ=           -223.9223   YZ=             -3.4313

 Normal termination of Gaussian 16 at Sun Aug 14 21:11:55 2022.
