 Gaussian 16, Revision C.01,
 Gaussian 16:  ES64L-G16RevC.01  3-Jul-2019

 ----------------------------------------------------------------------
 # B3LYP/6-31G* empiricaldispersion=gd3 guess=read geom=check nosymm in
 tegral(ultrafinegrid)
 ----------------------------------------------------------------------

 ------------------------------------------------------
 Candidate Structure: Conf:234 Charge calc in gas phase
 ------------------------------------------------------
 Structure from the checkpoint file:  "conf-234.chk"
 Charge =  1 Multiplicity = 1

                          Input orientation:
 ---------------------------------------------------------------------
 Center     Atomic      Atomic             Coordinates (Angstroms)
 Number     Number       Type             X           Y           Z
 ---------------------------------------------------------------------
      1          7           0       -2.785707   -1.773475    4.463406
      2          1           0       -3.271249   -2.579983    4.065704
      3          1           0       -2.072294   -1.369569    3.655133
      4          1           0       -2.234690   -2.073248    5.268261
      5          6           0       -3.760530   -0.694943    4.841939
      6          1           0       -4.260792   -0.994610    5.771620
      7          6           0       -4.763121   -0.638977    3.678452
      8          6           0       -3.010341    0.649673    5.064751
      9          1           0       -2.600361    0.959429    4.097892
     10          8           0       -4.432906   -1.061576    2.568787
     11          6           0       -3.963723    1.742393    5.572815
     12          1           0       -4.463060    1.439616    6.503790
     13          1           0       -3.390868    2.648336    5.792400
     14          1           0       -4.724494    2.020995    4.839338
     15          6           0       -1.836972    0.464967    6.041584
     16          1           0       -2.175718    0.063757    7.006539
     17          1           0       -1.051052   -0.179476    5.635877
     18          1           0       -1.359477    1.430854    6.228193
     19          7           0       -5.979084   -0.120794    3.960525
     20          1           0       -6.124741    0.300220    4.868447
     21          6           0       -6.902070    0.290489    2.890076
     22          1           0       -6.750739   -0.429431    2.083610
     23          6           0       -6.424394    1.684390    2.419734
     24          6           0       -8.376999    0.228001    3.339815
     25          1           0       -8.596859   -0.842358    3.467749
     26          8           0       -6.820912    2.731443    2.932310
     27          6           0       -9.308295    0.772834    2.236098
     28          1           0       -9.172171    1.858272    2.166576
     29          1           0      -10.341210    0.608664    2.567806
     30          6           0       -8.654987    0.935689    4.677087
     31          1           0       -8.373358    1.989508    4.624398
     32          1           0       -8.122998    0.466834    5.515703
     33          1           0       -9.721959    0.869991    4.915426
     34          6           0       -9.114465    0.133460    0.855219
     35          1           0       -9.894654    0.467359    0.163226
     36          1           0       -8.150763    0.404046    0.407980
     37          1           0       -9.165247   -0.961460    0.910004
     38          7           0       -5.468542    1.636305    1.463739
     39          1           0       -5.125529    0.746723    1.114559
     40          6           0       -4.724407    2.807287    1.036331
     41          1           0       -5.438885    3.589659    0.751488
     42          6           0       -3.946987    2.394550   -0.229167
     43          6           0       -3.850529    3.357519    2.212162
     44          1           0       -3.246799    2.529198    2.579520
     45          1           0       -4.565421    3.651051    2.986300
     46          8           0       -3.992549    1.245266   -0.680918
     47          6           0       -2.959620    4.520621    1.847888
     48          6           0       -1.573921    4.339711    1.720086
     49          1           0       -1.142474    3.371775    1.955816
     50          6           0       -3.514308    5.769653    1.522847
     51          1           0       -4.586345    5.922848    1.630279
     52          6           0       -0.768413    5.375103    1.244030
     53          1           0        0.296962    5.206418    1.119292
     54          6           0       -2.707263    6.804802    1.044764
     55          1           0       -3.151309    7.763297    0.789420
     56          6           0       -1.331644    6.605396    0.895966
     57          1           0       -0.704317    7.406673    0.514592
     58          7           0       -3.274530    3.391330   -0.846276
     59          1           0       -3.159945    4.268901   -0.355001
     60          6           0       -2.413403    3.169999   -2.003107
     61          1           0       -2.935182    2.472084   -2.664238
     62          6           0       -1.091039    2.522077   -1.538487
     63          6           0       -2.141440    4.500034   -2.712522
     64          1           0       -1.534436    4.287757   -3.603275
     65          1           0       -1.512789    5.109939   -2.052696
     66          8           0       -0.095709    3.208800   -1.273653
     67          6           0       -3.396127    5.291662   -3.123423
     68          1           0       -3.958061    5.538059   -2.211449
     69          6           0       -2.976105    6.613990   -3.780293
     70          1           0       -2.415885    6.430439   -4.706576
     71          1           0       -2.337068    7.204109   -3.112566
     72          1           0       -3.850886    7.222308   -4.036084
     73          6           0       -4.321947    4.486237   -4.045062
     74          1           0       -3.788288    4.162718   -4.948790
     75          1           0       -5.177138    5.092324   -4.364356
     76          1           0       -4.719181    3.594085   -3.548397
     77          7           0       -1.104479    1.169128   -1.469009
     78          1           0       -2.032754    0.756842   -1.507685
     79          6           0       -0.085247    0.388165   -0.748013
     80          1           0        0.173838    0.941872    0.165011
     81          6           0        1.244954    0.225886   -1.519200
     82          6           0       -0.640805   -0.995612   -0.376376
     83          1           0        0.169330   -1.543092    0.108742
     84          1           0       -0.869133   -1.545348   -1.297806
     85          8           0        1.909913   -0.811728   -1.468023
     86          6           0       -1.890872   -0.985266    0.532885
     87          1           0       -2.763981   -0.590956    0.009418
     88          1           0       -2.108734   -2.013711    0.833855
     89          6           0       -1.653797   -0.120213    1.758755
     90          8           0       -1.802215    1.102711    1.685751
     91          8           0       -1.191320   -0.719745    2.830949
     92          7           0        1.655624    1.320858   -2.216583
     93          1           0        1.213430    2.215280   -1.978056
     94          6           0        2.922406    1.313666   -2.928130
     95          1           0        3.096781    0.286613   -3.261360
     96          6           0        4.056657    1.706605   -1.968775
     97          6           0        2.862030    2.254260   -4.137035
     98          1           0        1.907939    2.101810   -4.650745
     99          1           0        2.896465    3.292538   -3.786387
    100          8           0        4.519493    2.863870   -1.962680
    101          6           0        4.042320    2.040096   -5.075798
    102          7           0        3.763285    2.100026   -6.400043
    103          1           0        4.512025    1.936528   -7.059865
    104          1           0        2.822021    2.179612   -6.754826
    105          8           0        5.188397    1.838915   -4.664516
    106          7           0        4.454977    0.737791   -1.138680
    107          1           0        3.968975   -0.155357   -1.186639
    108          6           0        5.584063    0.889740   -0.236501
    109          1           0        5.610872    1.934829    0.086156
    110          6           0        6.864389    0.504539   -0.992397
    111          6           0        5.432757   -0.019659    1.003317
    112          1           0        5.472165   -1.060854    0.662319
    113          1           0        6.317907    0.139219    1.632641
    114          8           0        6.921455   -0.523024   -1.654890
    115          6           0        4.158278    0.249463    1.765570
    116          6           0        4.023574    1.379769    2.585568
    117          1           0        4.868516    2.056147    2.709235
    118          6           0        3.057577   -0.603148    1.638729
    119          1           0        3.125531   -1.482822    1.003475
    120          6           0        2.833935    1.655693    3.251547
    121          1           0        2.731654    2.531007    3.885591
    122          6           0        1.863741   -0.351493    2.310193
    123          1           0        1.030656   -1.039251    2.229145
    124          8           0        0.600661    1.089007    3.793201
    125          1           0       -0.123337    0.477914    3.499075
    126          6           0        1.735755    0.789578    3.120108
    127          7           0        7.917603    1.365632   -0.858366
    128          1           0        7.821948    2.154506   -0.233545
    129          6           0        9.250504    0.999674   -1.313754
    130          1           0        9.198238   -0.073307   -1.539958
    131          6           0       10.297071    1.161095   -0.212859
    132          6           0        9.691155    1.742980   -2.588938
    133          1           0        9.789968    2.808561   -2.347085
    134          1           0       10.701448    1.403138   -2.830519
    135          8           0       11.481860    1.284378   -0.419195
    136          6           0        8.733952    1.531345   -3.787727
    137          1           0        9.283390    1.098967   -4.632074
    138          1           0        7.948086    0.811687   -3.535406
    139          6           0        8.064909    2.813229   -4.301185
    140          1           0        8.811847    3.554272   -4.606253
    141          1           0        7.450888    2.590696   -5.174754
    142          7           0        7.145881    3.399796   -3.314460
    143          1           0        6.228759    2.944306   -3.267623
    144          7           0        8.493848    5.139176   -2.511405
    145          1           0        8.849278    5.601808   -1.687564
    146          1           0        9.132397    5.049114   -3.286132
    147          7           0        6.619428    4.468942   -1.327633
    148          1           0        6.550709    5.389576   -0.913015
    149          1           0        5.762278    3.894255   -1.323124
    150          6           0        7.419206    4.322577   -2.405324
    151          8           0        9.755900    1.137561    1.028750
    152          1           0       10.501944    1.197943    1.656272
 ---------------------------------------------------------------------

 SCF Done:  E(RB3LYP) =  -3586.92149008     A.U. after    1 cycles

 Alpha  occ. eigenvalues --  -19.28228 -19.22275 -19.21409 -19.21068 -19.20791
 Alpha  occ. eigenvalues --  -19.19643 -19.19584 -19.18727 -19.18700 -19.18391
 Alpha  occ. eigenvalues --  -19.17625 -19.17176 -19.16222 -14.50043 -14.49485
 Alpha  occ. eigenvalues --  -14.48016 -14.47315 -14.45245 -14.44876 -14.44838
 Alpha  occ. eigenvalues --  -14.44390 -14.42220 -14.42205 -14.42057 -14.41359
 Alpha  occ. eigenvalues --  -10.44889 -10.40500 -10.38758 -10.37967 -10.37789
 Alpha  occ. eigenvalues --  -10.36722 -10.35506 -10.35279 -10.35192 -10.34360
 Alpha  occ. eigenvalues --  -10.34232 -10.33860 -10.32703 -10.32373 -10.31653
 Alpha  occ. eigenvalues --  -10.31496 -10.29657 -10.29410 -10.29392 -10.29372
 Alpha  occ. eigenvalues --  -10.28897 -10.28503 -10.27749 -10.27694 -10.27361
 Alpha  occ. eigenvalues --  -10.26272 -10.25267 -10.24959 -10.24958 -10.24783
 Alpha  occ. eigenvalues --  -10.24552 -10.24383 -10.24224 -10.24133 -10.24014
 Alpha  occ. eigenvalues --  -10.23979 -10.23965 -10.23932 -10.23718 -10.23591
 Alpha  occ. eigenvalues --  -10.23574 -10.23275 -10.23007 -10.22995 -10.22866
 Alpha  occ. eigenvalues --  -10.22672 -10.22492 -10.22474 -10.22468 -10.22311
 Alpha  occ. eigenvalues --   -1.18983  -1.13585  -1.12967  -1.12929  -1.12428
 Alpha  occ. eigenvalues --   -1.11624  -1.10834  -1.10282  -1.10215  -1.09996
 Alpha  occ. eigenvalues --   -1.09738  -1.08925  -1.08040  -1.05354  -1.02796
 Alpha  occ. eigenvalues --   -1.01586  -1.01253  -1.01165  -1.01158  -1.00865
 Alpha  occ. eigenvalues --   -0.99870  -0.99442  -0.99214  -0.98377  -0.97973
 Alpha  occ. eigenvalues --   -0.90522  -0.90132  -0.88968  -0.88909  -0.87205
 Alpha  occ. eigenvalues --   -0.86875  -0.86653  -0.85685  -0.84842  -0.84004
 Alpha  occ. eigenvalues --   -0.83985  -0.81077  -0.80847  -0.79480  -0.79170
 Alpha  occ. eigenvalues --   -0.79088  -0.78759  -0.78465  -0.77988  -0.77744
 Alpha  occ. eigenvalues --   -0.76037  -0.75496  -0.75289  -0.75086  -0.73431
 Alpha  occ. eigenvalues --   -0.71806  -0.71794  -0.71002  -0.70664  -0.70506
 Alpha  occ. eigenvalues --   -0.69524  -0.68733  -0.68242  -0.68020  -0.67516
 Alpha  occ. eigenvalues --   -0.67101  -0.66809  -0.66578  -0.66276  -0.66012
 Alpha  occ. eigenvalues --   -0.65937  -0.65745  -0.65398  -0.64786  -0.64438
 Alpha  occ. eigenvalues --   -0.63832  -0.63639  -0.62934  -0.62835  -0.62663
 Alpha  occ. eigenvalues --   -0.62426  -0.62361  -0.62062  -0.61685  -0.61590
 Alpha  occ. eigenvalues --   -0.60637  -0.60173  -0.58872  -0.58752  -0.58313
 Alpha  occ. eigenvalues --   -0.58284  -0.57926  -0.57543  -0.56766  -0.56542
 Alpha  occ. eigenvalues --   -0.56519  -0.56007  -0.55888  -0.55670  -0.55454
 Alpha  occ. eigenvalues --   -0.54818  -0.54628  -0.54400  -0.54392  -0.54127
 Alpha  occ. eigenvalues --   -0.53283  -0.53178  -0.52926  -0.52634  -0.52253
 Alpha  occ. eigenvalues --   -0.51908  -0.51686  -0.51623  -0.51472  -0.51206
 Alpha  occ. eigenvalues --   -0.50973  -0.50705  -0.50297  -0.50205  -0.50020
 Alpha  occ. eigenvalues --   -0.49922  -0.49659  -0.49579  -0.49489  -0.49274
 Alpha  occ. eigenvalues --   -0.49088  -0.48943  -0.48743  -0.48599  -0.48367
 Alpha  occ. eigenvalues --   -0.48140  -0.47767  -0.47674  -0.47601  -0.47407
 Alpha  occ. eigenvalues --   -0.47286  -0.47018  -0.46888  -0.46778  -0.46618
 Alpha  occ. eigenvalues --   -0.46462  -0.46300  -0.46067  -0.45904  -0.45791
 Alpha  occ. eigenvalues --   -0.45658  -0.45555  -0.45452  -0.45242  -0.44987
 Alpha  occ. eigenvalues --   -0.44605  -0.44555  -0.44461  -0.44227  -0.44093
 Alpha  occ. eigenvalues --   -0.44022  -0.43779  -0.43646  -0.43501  -0.43353
 Alpha  occ. eigenvalues --   -0.43097  -0.43015  -0.42066  -0.41942  -0.41809
 Alpha  occ. eigenvalues --   -0.41614  -0.41559  -0.41401  -0.41134  -0.40901
 Alpha  occ. eigenvalues --   -0.40537  -0.40364  -0.40202  -0.40113  -0.40099
 Alpha  occ. eigenvalues --   -0.39925  -0.39541  -0.38679  -0.38334  -0.38186
 Alpha  occ. eigenvalues --   -0.38128  -0.37955  -0.37805  -0.37750  -0.37679
 Alpha  occ. eigenvalues --   -0.37516  -0.37404  -0.36899  -0.36718  -0.36556
 Alpha  occ. eigenvalues --   -0.36336  -0.35545  -0.35351  -0.34759  -0.34538
 Alpha  occ. eigenvalues --   -0.34474  -0.34130  -0.33451  -0.33080  -0.32898
 Alpha  occ. eigenvalues --   -0.32496  -0.32163  -0.32068  -0.31651  -0.31035
 Alpha  occ. eigenvalues --   -0.30270  -0.29925  -0.29701  -0.29590  -0.29484
 Alpha  occ. eigenvalues --   -0.28828  -0.25704
 Alpha virt. eigenvalues --   -0.09851  -0.07979  -0.07686  -0.07566  -0.06478
 Alpha virt. eigenvalues --   -0.06095  -0.06063  -0.05387  -0.05246  -0.05117
 Alpha virt. eigenvalues --   -0.04914  -0.04205  -0.03762  -0.03507  -0.03113

 Mulliken charges:
               1
     1  N   -0.779465
     2  H    0.385752
     3  H    0.478997
     4  H    0.380599
     5  C   -0.093566
     6  H    0.170412
     7  C    0.629688
     8  C   -0.110881
     9  H    0.210802
    10  O   -0.532159
    11  C   -0.491429
    12  H    0.140666
    13  H    0.178803
    14  H    0.180014
    15  C   -0.472465
    16  H    0.139138
    17  H    0.156337
    18  H    0.189682
    19  N   -0.610228
    20  H    0.351906
    21  C   -0.073874
    22  H    0.184450
    23  C    0.635284
    24  C   -0.077017
    25  H    0.133285
    26  O   -0.545205
    27  C   -0.269333
    28  H    0.167703
    29  H    0.141871
    30  C   -0.485836
    31  H    0.196834
    32  H    0.120420
    33  H    0.158529
    34  C   -0.462697
    35  H    0.157348
    36  H    0.148565
    37  H    0.145054
    38  N   -0.614869
    39  H    0.376296
    40  C   -0.048033
    41  H    0.183515
    42  C    0.651572
    43  C   -0.376885
    44  H    0.203485
    45  H    0.184871
    46  O   -0.562321
    47  C    0.084006
    48  C   -0.183025
    49  H    0.185450
    50  C   -0.203911
    51  H    0.140342
    52  C   -0.115175
    53  H    0.137873
    54  C   -0.130806
    55  H    0.138483
    56  C   -0.139006
    57  H    0.129908
    58  N   -0.613392
    59  H    0.372761
    60  C   -0.065124
    61  H    0.173367
    62  C    0.650294
    63  C   -0.290433
    64  H    0.131286
    65  H    0.171101
    66  O   -0.566362
    67  C   -0.072268
    68  H    0.130090
    69  C   -0.442900
    70  H    0.137100
    71  H    0.142979
    72  H    0.150003
    73  C   -0.452660
    74  H    0.136559
    75  H    0.151795
    76  H    0.153803
    77  N   -0.612502
    78  H    0.374214
    79  C   -0.065448
    80  H    0.215278
    81  C    0.637589
    82  C   -0.320772
    83  H    0.185279
    84  H    0.156484
    85  O   -0.548230
    86  C   -0.346215
    87  H    0.193672
    88  H    0.142155
    89  C    0.634569
    90  O   -0.522880
    91  O   -0.706991
    92  N   -0.641470
    93  H    0.392052
    94  C   -0.053126
    95  H    0.196408
    96  C    0.679050
    97  C   -0.386829
    98  H    0.165346
    99  H    0.204233
   100  O   -0.605170
   101  C    0.627527
   102  N   -0.738371
   103  H    0.354018
   104  H    0.355866
   105  O   -0.542353
   106  N   -0.575182
   107  H    0.387283
   108  C   -0.063187
   109  H    0.149796
   110  C    0.639309
   111  C   -0.399705
   112  H    0.179197
   113  H    0.163642
   114  O   -0.517598
   115  C    0.180344
   116  C   -0.190242
   117  H    0.105578
   118  C   -0.198235
   119  H    0.139002
   120  C   -0.165048
   121  H    0.133240
   122  C   -0.224837
   123  H    0.156587
   124  O   -0.701022
   125  H    0.468741
   126  C    0.349275
   127  N   -0.610934
   128  H    0.336750
   129  C   -0.067719
   130  H    0.230528
   131  C    0.580492
   132  C   -0.271446
   133  H    0.114976
   134  H    0.191893
   135  O   -0.447297
   136  C   -0.285274
   137  H    0.165378
   138  H    0.208504
   139  C   -0.179293
   140  H    0.145575
   141  H    0.202699
   142  N   -0.610216
   143  H    0.435330
   144  N   -0.749884
   145  H    0.371096
   146  H    0.375785
   147  N   -0.800598
   148  H    0.355597
   149  H    0.431323
   150  C    0.764742
   151  O   -0.570433
   152  H    0.424355
 Sum of Mulliken charges =   1.00000

 Dipole moment (field-independent basis, Debye):
    X=             14.0300    Y=             12.2739    Z=             -3.2414  Tot=             18.9207
 Quadrupole moment (field-independent basis, Debye-Ang):
   XX=           -215.3585   YY=           -358.4176   ZZ=           -312.1587
   XY=            119.6734   XZ=            -90.2449   YZ=            -68.2456

 Normal termination of Gaussian 16 at Sun Aug 14 21:11:15 2022.
