 Gaussian 16, Revision C.01,
 Gaussian 16:  ES64L-G16RevC.01  3-Jul-2019

 ----------------------------------------------------------------------
 # B3LYP/6-31G* empiricaldispersion=gd3 guess=read geom=check nosymm in
 tegral(ultrafinegrid)
 ----------------------------------------------------------------------

 ------------------------------------------------------
 Candidate Structure: Conf:137 Charge calc in gas phase
 ------------------------------------------------------
 Structure from the checkpoint file:  "conf-137.chk"
 Charge =  1 Multiplicity = 1

                          Input orientation:
 ---------------------------------------------------------------------
 Center     Atomic      Atomic             Coordinates (Angstroms)
 Number     Number       Type             X           Y           Z
 ---------------------------------------------------------------------
      1          7           0       -9.635322    1.121367    4.577137
      2          1           0      -10.502934    0.822818    4.126470
      3          1           0       -9.086293    0.268489    4.923615
      4          1           0       -9.869052    1.736565    5.360555
      5          6           0       -8.634997    1.738497    3.617801
      6          1           0       -9.099148    1.763596    2.628436
      7          6           0       -7.472750    0.706618    3.642643
      8          6           0       -8.215685    3.160943    4.047684
      9          1           0       -7.475795    3.473891    3.299787
     10          8           0       -7.565197   -0.246513    4.436859
     11          6           0       -9.398214    4.138397    3.973790
     12          1           0      -10.172350    3.910779    4.719616
     13          1           0       -9.056125    5.156699    4.179488
     14          1           0       -9.868166    4.135233    2.984114
     15          6           0       -7.530872    3.180517    5.423350
     16          1           0       -8.214965    2.902659    6.237159
     17          1           0       -6.667907    2.508681    5.463545
     18          1           0       -7.179723    4.191955    5.645390
     19          7           0       -6.468128    0.940440    2.817494
     20          1           0       -6.395146    1.800437    2.268374
     21          6           0       -5.231207    0.154719    2.764702
     22          1           0       -4.910975   -0.034112    3.794235
     23          6           0       -4.227373    1.119028    2.098233
     24          6           0       -5.462557   -1.201831    2.040618
     25          1           0       -6.385269   -1.586095    2.495727
     26          8           0       -4.604848    2.237476    1.721608
     27          6           0       -4.370132   -2.259260    2.311460
     28          1           0       -3.485416   -2.062590    1.698812
     29          1           0       -4.767018   -3.208593    1.929776
     30          6           0       -5.694442   -0.999960    0.536789
     31          1           0       -4.793000   -0.626244    0.039880
     32          1           0       -6.506182   -0.288543    0.344596
     33          1           0       -5.961775   -1.950070    0.063603
     34          6           0       -3.979662   -2.439125    3.784670
     35          1           0       -3.377998   -3.344950    3.911621
     36          1           0       -3.372032   -1.607717    4.164165
     37          1           0       -4.863745   -2.531562    4.427764
     38          7           0       -2.953795    0.714555    1.981984
     39          1           0       -2.675959   -0.229041    2.219140
     40          6           0       -1.960409    1.617763    1.413609
     41          1           0       -1.994881    2.545444    1.996454
     42          6           0       -2.315727    1.912976   -0.050678
     43          6           0       -0.531679    1.020991    1.491434
     44          1           0        0.165288    1.828747    1.239865
     45          1           0       -0.418052    0.253556    0.723785
     46          8           0       -2.605196    0.994762   -0.836176
     47          6           0       -0.232351    0.446181    2.857521
     48          6           0        0.062057    1.283456    3.941313
     49          1           0        0.141480    2.357329    3.783965
     50          6           0       -0.317888   -0.936512    3.072295
     51          1           0       -0.525388   -1.593972    2.232440
     52          6           0        0.262057    0.752534    5.215448
     53          1           0        0.498719    1.412986    6.045217
     54          6           0       -0.122024   -1.469209    4.349050
     55          1           0       -0.186031   -2.543500    4.499796
     56          6           0        0.164920   -0.626201    5.423737
     57          1           0        0.322597   -1.039752    6.415885
     58          7           0       -2.246596    3.197481   -0.418099
     59          1           0       -2.013538    3.899183    0.273495
     60          6           0       -2.371262    3.668248   -1.803199
     61          1           0       -2.653419    2.795207   -2.393192
     62          6           0       -0.944209    4.140625   -2.154164
     63          6           0       -3.420382    4.774785   -1.918833
     64          1           0       -3.559593    4.990301   -2.987050
     65          1           0       -3.003023    5.686857   -1.475120
     66          8           0       -0.550902    5.257808   -1.828650
     67          6           0       -4.777779    4.438250   -1.271082
     68          1           0       -4.611539    4.287733   -0.195101
     69          6           0       -5.741527    5.619923   -1.447150
     70          1           0       -5.958000    5.794124   -2.508823
     71          1           0       -5.321008    6.546030   -1.037686
     72          1           0       -6.696521    5.429418   -0.941966
     73          6           0       -5.390384    3.141374   -1.822016
     74          1           0       -5.527807    3.203522   -2.909673
     75          1           0       -6.376332    2.962504   -1.374878
     76          1           0       -4.767922    2.267247   -1.605736
     77          7           0       -0.163596    3.173475   -2.678440
     78          1           0       -0.535399    2.254728   -2.901152
     79          6           0        1.286708    3.263308   -2.743229
     80          1           0        1.568978    4.097147   -3.397747
     81          6           0        1.752719    1.949451   -3.392367
     82          6           0        1.945631    3.483170   -1.338834
     83          1           0        2.590147    2.631418   -1.098131
     84          1           0        1.137224    3.494505   -0.599459
     85          8           0        0.968099    1.018892   -3.611940
     86          6           0        2.742677    4.789243   -1.239184
     87          1           0        2.117009    5.635303   -1.537019
     88          1           0        3.015819    4.957682   -0.187386
     89          6           0        4.066089    4.836947   -2.034871
     90          8           0        4.535939    5.914672   -2.371360
     91          8           0        4.619461    3.664300   -2.247353
     92          7           0        3.068614    1.902447   -3.702797
     93          1           0        3.696176    2.585640   -3.227453
     94          6           0        3.629948    0.638019   -4.115637
     95          1           0        2.949321    0.195254   -4.850798
     96          6           0        3.706876   -0.339194   -2.915581
     97          6           0        5.013167    0.885664   -4.774475
     98          1           0        4.846253    1.371450   -5.742496
     99          1           0        5.595075    1.565465   -4.153055
    100          8           0        3.873883    0.039818   -1.758063
    101          6           0        5.829421   -0.389757   -4.933827
    102          7           0        5.389938   -1.278773   -5.858486
    103          1           0        5.764827   -2.219984   -5.828690
    104          1           0        4.621228   -1.075413   -6.480471
    105          8           0        6.808643   -0.632495   -4.224925
    106          7           0        3.545074   -1.639936   -3.256847
    107          1           0        3.582561   -1.894019   -4.235913
    108          6           0        3.710596   -2.747678   -2.331114
    109          1           0        3.732767   -2.313342   -1.329142
    110          6           0        5.063312   -3.388334   -2.680051
    111          6           0        2.521844   -3.731587   -2.436999
    112          1           0        2.389498   -3.992828   -3.495212
    113          1           0        2.795716   -4.660796   -1.923008
    114          8           0        5.370438   -3.629635   -3.847259
    115          6           0        1.254729   -3.162700   -1.828387
    116          6           0        0.692453   -3.747774   -0.685789
    117          1           0        1.140982   -4.646282   -0.267168
    118          6           0        0.641723   -2.008656   -2.340990
    119          1           0        1.037322   -1.512502   -3.218289
    120          6           0       -0.433574   -3.205418   -0.068211
    121          1           0       -0.871828   -3.673353    0.808804
    122          6           0       -0.468318   -1.440057   -1.722376
    123          1           0       -0.902333   -0.529091   -2.122482
    124          8           0       -2.086615   -1.508477    0.079046
    125          1           0       -2.343095   -0.646765   -0.334641
    126          6           0       -1.011672   -2.039614   -0.580105
    127          7           0        5.888723   -3.593729   -1.626388
    128          1           0        5.563154   -3.444150   -0.680000
    129          6           0        7.283757   -3.964073   -1.782004
    130          1           0        7.373972   -4.586606   -2.676012
    131          6           0        7.694729   -4.768530   -0.560445
    132          6           0        8.211177   -2.727479   -1.950398
    133          1           0        9.222077   -3.109915   -2.129317
    134          1           0        7.893973   -2.218344   -2.865855
    135          8           0        7.101359   -4.759139    0.498282
    136          6           0        8.244467   -1.762231   -0.742554
    137          1           0        8.207315   -2.336654    0.191368
    138          1           0        9.206048   -1.236222   -0.736048
    139          6           0        7.139219   -0.695662   -0.669555
    140          1           0        6.146458   -1.135566   -0.822839
    141          1           0        7.151459   -0.240684    0.326014
    142          7           0        7.372408    0.377409   -1.640538
    143          1           0        7.534357    0.067139   -2.600199
    144          7           0        5.800273    1.808121   -0.621595
    145          1           0        5.232504    2.638555   -0.862125
    146          1           0        5.214577    1.011988   -0.393259
    147          7           0        7.000021    2.522699   -2.454609
    148          1           0        6.287908    3.280155   -2.562777
    149          1           0        7.792827    2.432058   -3.072434
    150          6           0        6.715079    1.555716   -1.577138
    151          8           0        8.839689   -5.441532   -0.773161
    152          1           0        9.072711   -5.889061    0.062887
 ---------------------------------------------------------------------

 SCF Done:  E(RB3LYP) =  -3586.88202144     A.U. after    2 cycles

 Alpha  occ. eigenvalues --  -19.26819 -19.26809 -19.22273 -19.21822 -19.21302
 Alpha  occ. eigenvalues --  -19.20682 -19.19664 -19.18572 -19.18296 -19.17468
 Alpha  occ. eigenvalues --  -19.16301 -19.12638 -19.10317 -14.59656 -14.48990
 Alpha  occ. eigenvalues --  -14.45688 -14.44678 -14.43204 -14.43091 -14.42756
 Alpha  occ. eigenvalues --  -14.42321 -14.41429 -14.40439 -14.40421 -14.39701
 Alpha  occ. eigenvalues --  -10.43276 -10.40461 -10.39185 -10.39001 -10.38122
 Alpha  occ. eigenvalues --  -10.37420 -10.37008 -10.35464 -10.35455 -10.34663
 Alpha  occ. eigenvalues --  -10.33848 -10.33822 -10.33476 -10.32502 -10.31064
 Alpha  occ. eigenvalues --  -10.30903 -10.30523 -10.30305 -10.29792 -10.29474
 Alpha  occ. eigenvalues --  -10.29251 -10.29101 -10.28732 -10.28286 -10.27768
 Alpha  occ. eigenvalues --  -10.27125 -10.26733 -10.26672 -10.25717 -10.25669
 Alpha  occ. eigenvalues --  -10.25660 -10.25519 -10.25477 -10.25435 -10.25398
 Alpha  occ. eigenvalues --  -10.25382 -10.25333 -10.25111 -10.24954 -10.24459
 Alpha  occ. eigenvalues --  -10.24062 -10.23994 -10.23883 -10.23418 -10.23193
 Alpha  occ. eigenvalues --  -10.22950 -10.22853 -10.22675 -10.22578 -10.20186
 Alpha  occ. eigenvalues --   -1.19167  -1.17800  -1.14422  -1.13493  -1.12201
 Alpha  occ. eigenvalues --   -1.11244  -1.10663  -1.09984  -1.09790  -1.09023
 Alpha  occ. eigenvalues --   -1.08853  -1.08054  -1.07066  -1.05926  -1.04225
 Alpha  occ. eigenvalues --   -1.02336  -1.00895  -0.99729  -0.99622  -0.98179
 Alpha  occ. eigenvalues --   -0.97591  -0.97072  -0.96972  -0.95485  -0.95339
 Alpha  occ. eigenvalues --   -0.94413  -0.92429  -0.90543  -0.90029  -0.87521
 Alpha  occ. eigenvalues --   -0.86804  -0.86549  -0.86274  -0.85613  -0.83947
 Alpha  occ. eigenvalues --   -0.82869  -0.82503  -0.82084  -0.81624  -0.81374
 Alpha  occ. eigenvalues --   -0.81023  -0.79979  -0.79270  -0.79176  -0.78458
 Alpha  occ. eigenvalues --   -0.75999  -0.74662  -0.74245  -0.73915  -0.73756
 Alpha  occ. eigenvalues --   -0.73589  -0.73433  -0.73063  -0.71531  -0.71248
 Alpha  occ. eigenvalues --   -0.71104  -0.70016  -0.69537  -0.68960  -0.68286
 Alpha  occ. eigenvalues --   -0.67610  -0.67530  -0.66976  -0.66530  -0.66225
 Alpha  occ. eigenvalues --   -0.66087  -0.65985  -0.65381  -0.65287  -0.64661
 Alpha  occ. eigenvalues --   -0.64285  -0.64135  -0.63948  -0.63374  -0.62467
 Alpha  occ. eigenvalues --   -0.62099  -0.61935  -0.61087  -0.60732  -0.60419
 Alpha  occ. eigenvalues --   -0.59921  -0.59845  -0.59238  -0.58933  -0.58585
 Alpha  occ. eigenvalues --   -0.58298  -0.57718  -0.57550  -0.57040  -0.56574
 Alpha  occ. eigenvalues --   -0.56347  -0.56152  -0.55909  -0.55454  -0.55118
 Alpha  occ. eigenvalues --   -0.54931  -0.54839  -0.54569  -0.54082  -0.53732
 Alpha  occ. eigenvalues --   -0.53554  -0.53152  -0.52940  -0.52882  -0.52772
 Alpha  occ. eigenvalues --   -0.52450  -0.52376  -0.52198  -0.52045  -0.51867
 Alpha  occ. eigenvalues --   -0.51695  -0.51483  -0.51210  -0.51099  -0.50692
 Alpha  occ. eigenvalues --   -0.50424  -0.50340  -0.50097  -0.49788  -0.49623
 Alpha  occ. eigenvalues --   -0.49353  -0.49043  -0.48933  -0.48772  -0.48597
 Alpha  occ. eigenvalues --   -0.48434  -0.48386  -0.48192  -0.48007  -0.47891
 Alpha  occ. eigenvalues --   -0.47857  -0.47628  -0.47545  -0.47484  -0.47329
 Alpha  occ. eigenvalues --   -0.47265  -0.46935  -0.46764  -0.46547  -0.46100
 Alpha  occ. eigenvalues --   -0.45917  -0.45831  -0.45724  -0.45690  -0.45596
 Alpha  occ. eigenvalues --   -0.45306  -0.44969  -0.44851  -0.44661  -0.44529
 Alpha  occ. eigenvalues --   -0.44359  -0.44039  -0.43715  -0.43650  -0.43183
 Alpha  occ. eigenvalues --   -0.42971  -0.42761  -0.42668  -0.42478  -0.42244
 Alpha  occ. eigenvalues --   -0.42040  -0.41812  -0.41694  -0.41650  -0.41498
 Alpha  occ. eigenvalues --   -0.41046  -0.40725  -0.40676  -0.40493  -0.40326
 Alpha  occ. eigenvalues --   -0.40245  -0.39998  -0.39569  -0.39510  -0.38875
 Alpha  occ. eigenvalues --   -0.38198  -0.38147  -0.38099  -0.37958  -0.37759
 Alpha  occ. eigenvalues --   -0.37702  -0.37389  -0.36735  -0.36288  -0.36122
 Alpha  occ. eigenvalues --   -0.34985  -0.34798  -0.34369  -0.34069  -0.33967
 Alpha  occ. eigenvalues --   -0.33818  -0.33327  -0.32780  -0.32436  -0.31730
 Alpha  occ. eigenvalues --   -0.31565  -0.31455  -0.31155  -0.30916  -0.30657
 Alpha  occ. eigenvalues --   -0.29908  -0.29685  -0.29365  -0.27749  -0.27451
 Alpha  occ. eigenvalues --   -0.26547  -0.24042
 Alpha virt. eigenvalues --   -0.12194  -0.11239  -0.07932  -0.07829  -0.07105
 Alpha virt. eigenvalues --   -0.06798  -0.06306  -0.05926  -0.05753  -0.05615
 Alpha virt. eigenvalues --   -0.05140  -0.04367  -0.04241  -0.04154  -0.03290

 Mulliken charges:
               1
     1  N   -0.764741
     2  H    0.415540
     3  H    0.435556
     4  H    0.408858
     5  C   -0.099181
     6  H    0.215788
     7  C    0.654214
     8  C   -0.127796
     9  H    0.192894
    10  O   -0.553627
    11  C   -0.462173
    12  H    0.138638
    13  H    0.199891
    14  H    0.172929
    15  C   -0.475581
    16  H    0.141405
    17  H    0.187084
    18  H    0.199038
    19  N   -0.611335
    20  H    0.379849
    21  C   -0.074320
    22  H    0.198429
    23  C    0.634412
    24  C   -0.086792
    25  H    0.152091
    26  O   -0.558400
    27  C   -0.311940
    28  H    0.199358
    29  H    0.152989
    30  C   -0.473228
    31  H    0.183062
    32  H    0.132469
    33  H    0.165930
    34  C   -0.473593
    35  H    0.162288
    36  H    0.146056
    37  H    0.153793
    38  N   -0.619109
    39  H    0.386361
    40  C   -0.043746
    41  H    0.163973
    42  C    0.686755
    43  C   -0.419251
    44  H    0.180128
    45  H    0.200053
    46  O   -0.584599
    47  C    0.158379
    48  C   -0.180162
    49  H    0.130730
    50  C   -0.216587
    51  H    0.168279
    52  C   -0.129697
    53  H    0.142812
    54  C   -0.133867
    55  H    0.140381
    56  C   -0.131229
    57  H    0.142751
    58  N   -0.580772
    59  H    0.349824
    60  C   -0.084398
    61  H    0.187745
    62  C    0.627751
    63  C   -0.275137
    64  H    0.151213
    65  H    0.165550
    66  O   -0.526190
    67  C   -0.078279
    68  H    0.134618
    69  C   -0.440326
    70  H    0.149231
    71  H    0.146881
    72  H    0.124042
    73  C   -0.459007
    74  H    0.142869
    75  H    0.118947
    76  H    0.169776
    77  N   -0.639516
    78  H    0.360613
    79  C   -0.010251
    80  H    0.197045
    81  C    0.592201
    82  C   -0.289981
    83  H    0.159864
    84  H    0.131992
    85  O   -0.555642
    86  C   -0.366642
    87  H    0.187691
    88  H    0.143187
    89  C    0.573088
    90  O   -0.504048
    91  O   -0.668959
    92  N   -0.634561
    93  H    0.420190
    94  C   -0.061411
    95  H    0.164373
    96  C    0.635781
    97  C   -0.387330
    98  H    0.185461
    99  H    0.198621
   100  O   -0.558567
   101  C    0.596979
   102  N   -0.737230
   103  H    0.381427
   104  H    0.348342
   105  O   -0.528010
   106  N   -0.577393
   107  H    0.340922
   108  C   -0.075668
   109  H    0.178060
   110  C    0.652641
   111  C   -0.360232
   112  H    0.162322
   113  H    0.157013
   114  O   -0.557088
   115  C    0.166910
   116  C   -0.199980
   117  H    0.125589
   118  C   -0.179869
   119  H    0.155532
   120  C   -0.172274
   121  H    0.127499
   122  C   -0.212591
   123  H    0.160585
   124  O   -0.734279
   125  H    0.474991
   126  C    0.356294
   127  N   -0.608513
   128  H    0.350498
   129  C   -0.038652
   130  H    0.205471
   131  C    0.588861
   132  C   -0.307169
   133  H    0.169019
   134  H    0.204725
   135  O   -0.471732
   136  C   -0.310976
   137  H    0.162065
   138  H    0.167150
   139  C   -0.151070
   140  H    0.161302
   141  H    0.176511
   142  N   -0.615258
   143  H    0.383683
   144  N   -0.752910
   145  H    0.387799
   146  H    0.372362
   147  N   -0.769346
   148  H    0.410028
   149  H    0.350102
   150  C    0.729522
   151  O   -0.557213
   152  H    0.423504
 Sum of Mulliken charges =   1.00000

 Dipole moment (field-independent basis, Debye):
    X=            -26.0108    Y=             -3.4361    Z=             14.8243  Tot=             30.1352
 Quadrupole moment (field-independent basis, Debye-Ang):
   XX=            -34.5593   YY=           -460.3839   ZZ=           -326.1951
   XY=           -124.0535   XZ=           -168.6603   YZ=             51.4560

 Normal termination of Gaussian 16 at Sun Aug 14 21:12:25 2022.
