 Gaussian 16, Revision C.01,
 Gaussian 16:  ES64L-G16RevC.01  3-Jul-2019

 ----------------------------------------------------------------------
 # B3LYP/6-31G* empiricaldispersion=gd3 guess=read geom=check nosymm in
 tegral(ultrafinegrid)
 ----------------------------------------------------------------------

 ------------------------------------------------------
 Candidate Structure: Conf:961 Charge calc in gas phase
 ------------------------------------------------------
 Structure from the checkpoint file:  "conf-961.chk"
 Charge =  1 Multiplicity = 1

                          Input orientation:
 ---------------------------------------------------------------------
 Center     Atomic      Atomic             Coordinates (Angstroms)
 Number     Number       Type             X           Y           Z
 ---------------------------------------------------------------------
      1          7           0       -8.216062   -4.185301    4.843822
      2          1           0       -8.701021   -4.560674    4.025213
      3          1           0       -7.197265   -4.541190    4.841213
      4          1           0       -8.723379   -4.465614    5.685301
      5          6           0       -7.963419   -2.691616    4.756592
      6          1           0       -8.646749   -2.263059    4.018492
      7          6           0       -6.487679   -2.673082    4.259697
      8          6           0       -8.176650   -2.028163    6.138921
      9          1           0       -7.495307   -2.527357    6.843587
     10          8           0       -5.832708   -3.721742    4.429902
     11          6           0       -7.821985   -0.531866    6.098637
     12          1           0       -8.425005   -0.002271    5.350543
     13          1           0       -8.038698   -0.082763    7.072253
     14          1           0       -6.769233   -0.350112    5.875614
     15          6           0       -9.627953   -2.205968    6.620635
     16          1           0      -10.330276   -1.728577    5.927020
     17          1           0       -9.936132   -3.253518    6.742125
     18          1           0       -9.753702   -1.735263    7.599883
     19          7           0       -6.055069   -1.561535    3.705537
     20          1           0       -6.623199   -0.712027    3.633888
     21          6           0       -4.677943   -1.310555    3.264874
     22          1           0       -3.995848   -1.800921    3.962800
     23          6           0       -4.562199    0.225159    3.357124
     24          6           0       -4.461121   -1.878555    1.828070
     25          1           0       -4.949196   -2.864253    1.854029
     26          8           0       -5.607012    0.900219    3.366189
     27          6           0       -2.979440   -2.121788    1.494461
     28          1           0       -2.445747   -1.166896    1.467694
     29          1           0       -2.938075   -2.510563    0.469688
     30          6           0       -5.149617   -1.012005    0.764652
     31          1           0       -4.631612   -0.054183    0.652075
     32          1           0       -6.197958   -0.806706    1.013044
     33          1           0       -5.124688   -1.523677   -0.203486
     34          6           0       -2.276807   -3.101641    2.441606
     35          1           0       -1.322170   -3.418546    2.018408
     36          1           0       -2.028197   -2.629738    3.396455
     37          1           0       -2.897678   -3.989512    2.623586
     38          7           0       -3.331176    0.735529    3.433973
     39          1           0       -2.481191    0.149110    3.360037
     40          6           0       -3.101756    2.163593    3.312072
     41          1           0       -4.015169    2.680497    3.621763
     42          6           0       -2.861010    2.497041    1.816420
     43          6           0       -1.936622    2.551731    4.274465
     44          1           0       -1.087483    1.898858    4.055625
     45          1           0       -2.282722    2.283812    5.279748
     46          8           0       -2.796809    1.607092    0.962595
     47          6           0       -1.544433    4.009257    4.228471
     48          6           0       -0.398171    4.420952    3.535775
     49          1           0        0.242804    3.675169    3.074975
     50          6           0       -2.378093    4.990782    4.787308
     51          1           0       -3.270571    4.686405    5.330702
     52          6           0       -0.105550    5.775503    3.374414
     53          1           0        0.759974    6.067771    2.789142
     54          6           0       -2.083446    6.347403    4.638947
     55          1           0       -2.741261    7.094611    5.074914
     56          6           0       -0.948862    6.743001    3.924592
     57          1           0       -0.726942    7.798706    3.795364
     58          7           0       -2.742576    3.812344    1.509077
     59          1           0       -2.680847    4.477985    2.268779
     60          6           0       -2.301229    4.284604    0.189417
     61          1           0       -2.851517    3.698238   -0.551490
     62          6           0       -0.789388    3.994215    0.033642
     63          6           0       -2.621172    5.771241    0.036278
     64          1           0       -2.149682    6.316301    0.864487
     65          1           0       -3.708738    5.888209    0.141294
     66          8           0        0.084717    4.824721    0.273829
     67          6           0       -2.156927    6.398570   -1.294143
     68          1           0       -1.062058    6.439245   -1.266120
     69          6           0       -2.569136    5.567408   -2.519063
     70          1           0       -3.651588    5.380323   -2.526608
     71          1           0       -2.051814    4.601522   -2.550938
     72          1           0       -2.318335    6.097654   -3.445049
     73          6           0       -2.690216    7.833990   -1.396508
     74          1           0       -3.786640    7.842505   -1.456935
     75          1           0       -2.303837    8.334675   -2.291863
     76          1           0       -2.398808    8.431830   -0.524300
     77          7           0       -0.532296    2.716675   -0.345995
     78          1           0       -1.315795    2.069379   -0.352590
     79          6           0        0.801881    2.167690   -0.372575
     80          1           0        1.431746    2.839192    0.229007
     81          6           0        1.376434    2.255916   -1.799349
     82          6           0        0.794403    0.762091    0.264102
     83          1           0        1.740585    0.238844    0.096467
     84          1           0        0.033678    0.155411   -0.239233
     85          8           0        0.793316    2.765360   -2.739479
     86          6           0        0.491148    0.848635    1.767399
     87          1           0        1.389685    1.177926    2.309456
     88          1           0       -0.274136    1.605844    1.943025
     89          6           0        0.006777   -0.470787    2.408533
     90          8           0       -0.794258   -0.369548    3.374782
     91          8           0        0.469097   -1.547770    1.931324
     92          7           0        2.673032    1.772054   -1.927852
     93          1           0        3.152913    1.520939   -1.071174
     94          6           0        3.509115    2.247724   -3.019591
     95          1           0        2.846254    2.383756   -3.880336
     96          6           0        4.581864    1.213122   -3.390362
     97          6           0        4.147021    3.606962   -2.682577
     98          1           0        3.329260    4.309188   -2.481938
     99          1           0        4.751023    3.521765   -1.772904
    100          8           0        5.737421    1.552057   -3.670486
    101          6           0        4.960889    4.173493   -3.825756
    102          7           0        6.125813    4.774635   -3.500750
    103          1           0        6.740997    5.080896   -4.242631
    104          1           0        6.540150    4.635070   -2.590945
    105          8           0        4.529456    4.158616   -4.992534
    106          7           0        4.156663   -0.064243   -3.413755
    107          1           0        3.217268   -0.276413   -3.091121
    108          6           0        5.053205   -1.184180   -3.615619
    109          1           0        5.726138   -1.265342   -2.750189
    110          6           0        5.873587   -0.995410   -4.892537
    111          6           0        4.235822   -2.506220   -3.768698
    112          1           0        3.900406   -2.571874   -4.808932
    113          1           0        4.930031   -3.337977   -3.596119
    114          8           0        5.351836   -0.578389   -5.932654
    115          6           0        3.036964   -2.564819   -2.852165
    116          6           0        1.740334   -2.510638   -3.384803
    117          1           0        1.607119   -2.503575   -4.464792
    118          6           0        3.174897   -2.559887   -1.454767
    119          1           0        4.169953   -2.598844   -1.013023
    120          6           0        0.620591   -2.454097   -2.561453
    121          1           0       -0.381297   -2.404504   -2.976096
    122          6           0        2.068362   -2.491382   -0.615680
    123          1           0        2.176836   -2.456560    0.463058
    124          8           0       -0.334293   -2.325551   -0.410806
    125          1           0       -0.073861   -2.087243    0.534011
    126          6           0        0.770591   -2.428847   -1.166462
    127          7           0        7.154288   -1.419996   -4.836026
    128          1           0        7.521480   -1.783740   -3.967294
    129          6           0        7.982750   -1.549836   -6.032763
    130          1           0        7.454824   -2.216059   -6.731885
    131          6           0        9.288726   -2.280860   -5.724358
    132          6           0        8.256101   -0.202768   -6.760904
    133          1           0        7.962392    0.606702   -6.086012
    134          1           0        9.330025   -0.104052   -6.944642
    135          8           0       10.236178   -2.295559   -6.471987
    136          6           0        7.495457   -0.113365   -8.089611
    137          1           0        7.870087   -0.885115   -8.774355
    138          1           0        6.442458   -0.345541   -7.920227
    139          6           0        7.639375    1.222885   -8.827840
    140          1           0        8.628543    1.282772   -9.289694
    141          1           0        6.898446    1.278016   -9.634633
    142          7           0        7.549465    2.445143   -8.004711
    143          1           0        8.277631    3.127657   -8.160826
    144          7           0        5.568436    2.093574   -6.784576
    145          1           0        4.887723    2.530643   -6.165161
    146          1           0        5.678027    1.084977   -6.644535
    147          7           0        6.501185    4.203062   -6.927156
    148          1           0        5.730103    4.495728   -6.310264
    149          1           0        6.847768    4.872051   -7.601115
    150          6           0        6.526941    2.886663   -7.248000
    151          8           0        9.255143   -2.947807   -4.546622
    152          1           0       10.112316   -3.405381   -4.450200
 ---------------------------------------------------------------------

 SCF Done:  E(RB3LYP) =  -3586.85717186     A.U. after    1 cycles

 Alpha  occ. eigenvalues --  -19.28854 -19.23089 -19.22623 -19.21318 -19.20137
 Alpha  occ. eigenvalues --  -19.19464 -19.17405 -19.17353 -19.16772 -19.16291
 Alpha  occ. eigenvalues --  -19.14937 -19.10477 -19.10458 -14.56490 -14.48151
 Alpha  occ. eigenvalues --  -14.46203 -14.45463 -14.45181 -14.45007 -14.44909
 Alpha  occ. eigenvalues --  -14.43026 -14.42375 -14.40279 -14.39300 -14.38795
 Alpha  occ. eigenvalues --  -10.43335 -10.41091 -10.39612 -10.38754 -10.37430
 Alpha  occ. eigenvalues --  -10.37380 -10.36166 -10.34115 -10.33589 -10.33164
 Alpha  occ. eigenvalues --  -10.33104 -10.32791 -10.31896 -10.31800 -10.31127
 Alpha  occ. eigenvalues --  -10.30767 -10.28951 -10.28925 -10.28862 -10.27632
 Alpha  occ. eigenvalues --  -10.27597 -10.27487 -10.27444 -10.27434 -10.27255
 Alpha  occ. eigenvalues --  -10.27151 -10.26803 -10.25916 -10.23617 -10.23437
 Alpha  occ. eigenvalues --  -10.23166 -10.23143 -10.22986 -10.22976 -10.22902
 Alpha  occ. eigenvalues --  -10.22857 -10.22827 -10.22631 -10.22452 -10.22408
 Alpha  occ. eigenvalues --  -10.21811 -10.21610 -10.21469 -10.21347 -10.20568
 Alpha  occ. eigenvalues --  -10.20340 -10.20215 -10.20046 -10.19572 -10.17813
 Alpha  occ. eigenvalues --   -1.19544  -1.15651  -1.12865  -1.12346  -1.11673
 Alpha  occ. eigenvalues --   -1.10785  -1.10542  -1.10260  -1.09385  -1.08764
 Alpha  occ. eigenvalues --   -1.07889  -1.06482  -1.06321  -1.03492  -1.01937
 Alpha  occ. eigenvalues --   -1.01753  -1.01405  -1.00434  -0.99764  -0.99096
 Alpha  occ. eigenvalues --   -0.98521  -0.96830  -0.96665  -0.95974  -0.94824
 Alpha  occ. eigenvalues --   -0.92389  -0.89536  -0.89350  -0.88909  -0.86153
 Alpha  occ. eigenvalues --   -0.85985  -0.85140  -0.84461  -0.83432  -0.83004
 Alpha  occ. eigenvalues --   -0.82540  -0.82176  -0.78990  -0.78904  -0.78688
 Alpha  occ. eigenvalues --   -0.78233  -0.78053  -0.77884  -0.77748  -0.76312
 Alpha  occ. eigenvalues --   -0.75850  -0.74322  -0.74168  -0.73728  -0.72075
 Alpha  occ. eigenvalues --   -0.71082  -0.70991  -0.70788  -0.70567  -0.69861
 Alpha  occ. eigenvalues --   -0.68941  -0.68537  -0.68425  -0.67967  -0.67710
 Alpha  occ. eigenvalues --   -0.67242  -0.66799  -0.65984  -0.65575  -0.65289
 Alpha  occ. eigenvalues --   -0.65139  -0.64577  -0.64448  -0.64373  -0.63889
 Alpha  occ. eigenvalues --   -0.62757  -0.62573  -0.62378  -0.62002  -0.61762
 Alpha  occ. eigenvalues --   -0.61635  -0.61234  -0.60903  -0.60635  -0.60184
 Alpha  occ. eigenvalues --   -0.59681  -0.59654  -0.58718  -0.58133  -0.57825
 Alpha  occ. eigenvalues --   -0.57216  -0.56898  -0.56647  -0.56228  -0.56178
 Alpha  occ. eigenvalues --   -0.55708  -0.55473  -0.55224  -0.55166  -0.54804
 Alpha  occ. eigenvalues --   -0.54381  -0.54107  -0.53625  -0.53117  -0.53018
 Alpha  occ. eigenvalues --   -0.52685  -0.52469  -0.52305  -0.52150  -0.51715
 Alpha  occ. eigenvalues --   -0.51331  -0.51108  -0.50924  -0.50652  -0.50406
 Alpha  occ. eigenvalues --   -0.50189  -0.49707  -0.49684  -0.49549  -0.49475
 Alpha  occ. eigenvalues --   -0.49343  -0.49182  -0.49152  -0.48869  -0.48687
 Alpha  occ. eigenvalues --   -0.48661  -0.48232  -0.48071  -0.47863  -0.47380
 Alpha  occ. eigenvalues --   -0.47074  -0.46890  -0.46581  -0.46544  -0.46379
 Alpha  occ. eigenvalues --   -0.46144  -0.45930  -0.45737  -0.45564  -0.45526
 Alpha  occ. eigenvalues --   -0.45319  -0.45173  -0.45146  -0.44799  -0.44772
 Alpha  occ. eigenvalues --   -0.44486  -0.44450  -0.44246  -0.44147  -0.43987
 Alpha  occ. eigenvalues --   -0.43770  -0.43711  -0.43457  -0.43300  -0.42862
 Alpha  occ. eigenvalues --   -0.42684  -0.42336  -0.42248  -0.42101  -0.41980
 Alpha  occ. eigenvalues --   -0.41690  -0.41579  -0.41383  -0.40890  -0.40496
 Alpha  occ. eigenvalues --   -0.40114  -0.40044  -0.39833  -0.39685  -0.39352
 Alpha  occ. eigenvalues --   -0.38983  -0.38758  -0.38563  -0.38421  -0.38250
 Alpha  occ. eigenvalues --   -0.38134  -0.38055  -0.37682  -0.36930  -0.36853
 Alpha  occ. eigenvalues --   -0.36836  -0.36509  -0.36362  -0.36222  -0.35827
 Alpha  occ. eigenvalues --   -0.35640  -0.35573  -0.35482  -0.35234  -0.35159
 Alpha  occ. eigenvalues --   -0.34854  -0.34519  -0.34497  -0.34238  -0.33788
 Alpha  occ. eigenvalues --   -0.33227  -0.32742  -0.31981  -0.31724  -0.31051
 Alpha  occ. eigenvalues --   -0.30703  -0.30425  -0.29754  -0.29361  -0.28744
 Alpha  occ. eigenvalues --   -0.28493  -0.27970  -0.27264  -0.26703  -0.24857
 Alpha  occ. eigenvalues --   -0.24382  -0.24334
 Alpha virt. eigenvalues --   -0.08854  -0.08716  -0.08116  -0.07961  -0.07075
 Alpha virt. eigenvalues --   -0.06492  -0.05681  -0.04552  -0.04244  -0.04040
 Alpha virt. eigenvalues --   -0.03812  -0.03794  -0.03313  -0.02823  -0.02420

 Mulliken charges:
               1
     1  N   -0.764686
     2  H    0.409409
     3  H    0.432990
     4  H    0.402572
     5  C   -0.100317
     6  H    0.200063
     7  C    0.652671
     8  C   -0.106670
     9  H    0.166330
    10  O   -0.556039
    11  C   -0.473727
    12  H    0.166671
    13  H    0.178988
    14  H    0.193901
    15  C   -0.467799
    16  H    0.172702
    17  H    0.132605
    18  H    0.194918
    19  N   -0.600029
    20  H    0.375752
    21  C   -0.083481
    22  H    0.198937
    23  C    0.638428
    24  C   -0.074048
    25  H    0.125995
    26  O   -0.583790
    27  C   -0.274110
    28  H    0.168634
    29  H    0.148683
    30  C   -0.479409
    31  H    0.199435
    32  H    0.118874
    33  H    0.146626
    34  C   -0.459545
    35  H    0.170142
    36  H    0.165420
    37  H    0.113147
    38  N   -0.622574
    39  H    0.429259
    40  C   -0.097893
    41  H    0.187437
    42  C    0.642651
    43  C   -0.377606
    44  H    0.206681
    45  H    0.160279
    46  O   -0.546940
    47  C    0.115545
    48  C   -0.181589
    49  H    0.143812
    50  C   -0.193895
    51  H    0.128213
    52  C   -0.110855
    53  H    0.149999
    54  C   -0.127967
    55  H    0.136393
    56  C   -0.140143
    57  H    0.136298
    58  N   -0.608386
    59  H    0.358152
    60  C   -0.058393
    61  H    0.175486
    62  C    0.634565
    63  C   -0.281795
    64  H    0.153158
    65  H    0.136280
    66  O   -0.551753
    67  C   -0.078355
    68  H    0.158259
    69  C   -0.461196
    70  H    0.134955
    71  H    0.163487
    72  H    0.142078
    73  C   -0.445405
    74  H    0.137204
    75  H    0.140971
    76  H    0.140205
    77  N   -0.590994
    78  H    0.375264
    79  C   -0.085116
    80  H    0.173080
    81  C    0.627934
    82  C   -0.305771
    83  H    0.144377
    84  H    0.176924
    85  O   -0.491398
    86  C   -0.362257
    87  H    0.141597
    88  H    0.152948
    89  C    0.621692
    90  O   -0.596440
    91  O   -0.614078
    92  N   -0.632065
    93  H    0.331135
    94  C   -0.064434
    95  H    0.226416
    96  C    0.618426
    97  C   -0.356321
    98  H    0.220834
    99  H    0.147969
   100  O   -0.569361
   101  C    0.664861
   102  N   -0.731962
   103  H    0.347154
   104  H    0.358403
   105  O   -0.576630
   106  N   -0.602631
   107  H    0.376374
   108  C   -0.019674
   109  H    0.151573
   110  C    0.667186
   111  C   -0.381423
   112  H    0.175268
   113  H    0.158493
   114  O   -0.572103
   115  C    0.113614
   116  C   -0.198380
   117  H    0.126417
   118  C   -0.192925
   119  H    0.114167
   120  C   -0.165697
   121  H    0.137561
   122  C   -0.200859
   123  H    0.176768
   124  O   -0.704521
   125  H    0.490105
   126  C    0.364951
   127  N   -0.629011
   128  H    0.362926
   129  C   -0.013134
   130  H    0.207101
   131  C    0.572830
   132  C   -0.283143
   133  H    0.171037
   134  H    0.179457
   135  O   -0.441093
   136  C   -0.326866
   137  H    0.171221
   138  H    0.196904
   139  C   -0.144329
   140  H    0.175017
   141  H    0.187743
   142  N   -0.607605
   143  H    0.354036
   144  N   -0.791963
   145  H    0.402397
   146  H    0.444435
   147  N   -0.802436
   148  H    0.402218
   149  H    0.352571
   150  C    0.762944
   151  O   -0.578807
   152  H    0.432242
 Sum of Mulliken charges =   1.00000

 Dipole moment (field-independent basis, Debye):
    X=              1.0280    Y=             -0.5321    Z=             -5.8403  Tot=              5.9539
 Quadrupole moment (field-independent basis, Debye-Ang):
   XX=              8.1896   YY=           -350.2052   ZZ=           -220.5850
   XY=            145.8397   XZ=           -301.3653   YZ=            -86.2489

 Normal termination of Gaussian 16 at Sun Aug 14 21:10:16 2022.
