 Gaussian 16, Revision C.01,
 Gaussian 16:  ES64L-G16RevC.01  3-Jul-2019

 ----------------------------------------------------------------------
 # B3LYP/6-31G* empiricaldispersion=gd3 guess=read geom=check nosymm in
 tegral(ultrafinegrid)
 ----------------------------------------------------------------------

 ------------------------------------------------------
 Candidate Structure: Conf:885 Charge calc in gas phase
 ------------------------------------------------------
 Structure from the checkpoint file:  "conf-885.chk"
 Charge =  1 Multiplicity = 1

                          Input orientation:
 ---------------------------------------------------------------------
 Center     Atomic      Atomic             Coordinates (Angstroms)
 Number     Number       Type             X           Y           Z
 ---------------------------------------------------------------------
      1          7           0      -11.026917    0.658695    4.461263
      2          1           0      -11.281104    0.001427    3.715008
      3          1           0      -10.839513    0.078175    5.298636
      4          1           0      -11.812178    1.298186    4.631199
      5          6           0       -9.745322    1.393328    4.138538
      6          1           0       -9.810697    1.748543    3.105877
      7          6           0       -8.657894    0.305713    4.270188
      8          6           0       -9.522925    2.605569    5.072946
      9          1           0       -8.525768    2.981263    4.814475
     10          8           0       -8.981993   -0.749744    4.832134
     11          6           0      -10.539604    3.728971    4.800240
     12          1           0      -11.561671    3.448122    5.098581
     13          1           0      -10.281401    4.619474    5.380455
     14          1           0      -10.562691    4.013657    3.741550
     15          6           0       -9.516770    2.197882    6.558768
     16          1           0      -10.522173    1.919073    6.905923
     17          1           0       -8.846536    1.353862    6.753713
     18          1           0       -9.192063    3.038375    7.177566
     19          7           0       -7.452654    0.630458    3.817986
     20          1           0       -7.289332    1.483116    3.284754
     21          6           0       -6.311457   -0.288804    3.815935
     22          1           0       -6.298016   -0.808118    4.777147
     23          6           0       -5.086291    0.620109    3.670632
     24          6           0       -6.411357   -1.368527    2.695815
     25          1           0       -7.324631   -1.934631    2.933241
     26          8           0       -5.160591    1.621650    2.950478
     27          6           0       -5.220104   -2.354051    2.736201
     28          1           0       -4.283924   -1.813151    2.554514
     29          1           0       -5.340878   -3.034415    1.883094
     30          6           0       -6.548797   -0.744331    1.297277
     31          1           0       -5.596960   -0.317428    0.963897
     32          1           0       -7.298963    0.056154    1.263782
     33          1           0       -6.842328   -1.513310    0.574571
     34          6           0       -5.110060   -3.197111    4.014578
     35          1           0       -4.247030   -3.866070    3.957326
     36          1           0       -4.974743   -2.602713    4.927602
     37          1           0       -6.009146   -3.808805    4.164011
     38          7           0       -3.990076    0.262683    4.371589
     39          1           0       -3.890508   -0.714660    4.639264
     40          6           0       -2.727572    0.951059    4.154789
     41          1           0       -2.921721    2.025634    4.242216
     42          6           0       -2.238862    0.708297    2.711549
     43          6           0       -1.704572    0.523957    5.247684
     44          1           0       -1.974915    1.062281    6.163293
     45          1           0       -0.709097    0.869365    4.943029
     46          8           0       -2.450563   -0.330046    2.103892
     47          6           0       -1.705238   -0.966099    5.530272
     48          6           0       -2.372455   -1.450885    6.668823
     49          1           0       -2.830365   -0.746722    7.363068
     50          6           0       -1.113102   -1.885225    4.649119
     51          1           0       -0.621554   -1.530569    3.747923
     52          6           0       -2.465980   -2.824561    6.905651
     53          1           0       -2.988263   -3.186154    7.789144
     54          6           0       -1.198819   -3.259589    4.882006
     55          1           0       -0.703750   -3.950381    4.190325
     56          6           0       -1.878634   -3.724624    6.013010
     57          1           0       -1.941214   -4.794147    6.198461
     58          7           0       -1.557044    1.750727    2.175761
     59          1           0       -1.297347    2.529165    2.770743
     60          6           0       -1.130996    1.807164    0.778029
     61          1           0       -1.662673    0.996362    0.273808
     62          6           0        0.375228    1.499215    0.671196
     63          6           0       -1.516655    3.149156    0.151469
     64          1           0       -1.237661    3.112234   -0.911043
     65          1           0       -0.905752    3.941365    0.604356
     66          8           0        1.212231    2.395881    0.484758
     67          6           0       -3.017120    3.503538    0.278862
     68          1           0       -3.230713    3.688255    1.341483
     69          6           0       -3.306181    4.795312   -0.501566
     70          1           0       -3.135385    4.647739   -1.576660
     71          1           0       -2.660932    5.618951   -0.170437
     72          1           0       -4.348547    5.111368   -0.370679
     73          6           0       -3.946428    2.369146   -0.184346
     74          1           0       -3.742022    2.097874   -1.229987
     75          1           0       -4.994494    2.683340   -0.112680
     76          1           0       -3.839723    1.469922    0.429338
     77          7           0        0.683815    0.195863    0.828862
     78          1           0       -0.073308   -0.479540    0.896033
     79          6           0        2.046458   -0.346115    0.913376
     80          1           0        2.649010    0.444785    1.384057
     81          6           0        2.673108   -0.544565   -0.482804
     82          6           0        2.062056   -1.611171    1.780602
     83          1           0        1.775282   -1.314486    2.799296
     84          1           0        3.082856   -1.996091    1.844988
     85          8           0        3.118776   -1.611801   -0.898233
     86          6           0        1.161432   -2.748562    1.287030
     87          1           0        0.088650   -2.505484    1.361358
     88          1           0        1.380526   -2.955303    0.233390
     89          6           0        1.413731   -4.091854    2.069448
     90          8           0        0.415538   -4.866980    2.127876
     91          8           0        2.577131   -4.255075    2.503196
     92          7           0        2.737177    0.606160   -1.225950
     93          1           0        2.496483    1.485786   -0.768554
     94          6           0        3.326402    0.605144   -2.557634
     95          1           0        3.122229   -0.380484   -2.989832
     96          6           0        4.861212    0.774612   -2.516329
     97          6           0        2.687326    1.701399   -3.410256
     98          1           0        1.597777    1.627258   -3.293095
     99          1           0        3.008679    2.683574   -3.048827
    100          8           0        5.428920    1.714419   -3.085607
    101          6           0        2.987815    1.572169   -4.896084
    102          7           0        3.113973    2.752817   -5.567012
    103          1           0        3.341822    2.729195   -6.551100
    104          1           0        3.157384    3.634574   -5.076020
    105          8           0        3.048702    0.486358   -5.479215
    106          7           0        5.498363   -0.176834   -1.785383
    107          1           0        4.955410   -1.007030   -1.536871
    108          6           0        6.949445   -0.301326   -1.802388
    109          1           0        7.365627    0.709544   -1.828565
    110          6           0        7.340192   -1.079165   -3.063922
    111          6           0        7.452952   -1.053454   -0.549938
    112          1           0        7.050605   -0.539849    0.330609
    113          1           0        7.030953   -2.065988   -0.565805
    114          8           0        6.853883   -2.180866   -3.301513
    115          6           0        8.965777   -1.108742   -0.503379
    116          6           0        9.676414   -2.058694   -1.257554
    117          1           0        9.125577   -2.790002   -1.843799
    118          6           0        9.699833   -0.184509    0.247099
    119          1           0        9.175425    0.557568    0.846852
    120          6           0       11.066324   -2.079203   -1.274054
    121          1           0       11.614192   -2.806856   -1.864944
    122          6           0       11.095934   -0.194755    0.246603
    123          1           0       11.647720    0.531975    0.841362
    124          8           0       13.149687   -1.208595   -0.571133
    125          1           0       13.524528   -0.513731   -0.004751
    126          6           0       11.784469   -1.142469   -0.519324
    127          7           0        8.230517   -0.473187   -3.900538
    128          1           0        8.672222    0.400423   -3.644855
    129          6           0        8.621875   -1.111923   -5.133328
    130          1           0        8.379514   -2.173543   -5.026689
    131          6           0       10.121747   -0.963670   -5.341459
    132          6           0        7.825884   -0.569548   -6.349043
    133          1           0        8.174433    0.448726   -6.585995
    134          1           0        8.055802   -1.211263   -7.211898
    135          8           0       10.833896   -0.194899   -4.733852
    136          6           0        6.319011   -0.562626   -6.026226
    137          1           0        6.039826   -1.496064   -5.527267
    138          1           0        6.108841    0.241898   -5.310524
    139          6           0        5.386796   -0.401133   -7.221418
    140          1           0        5.430663   -1.268596   -7.895357
    141          1           0        4.377037   -0.306875   -6.812615
    142          7           0        5.713849    0.816684   -8.008064
    143          1           0        6.697821    0.880364   -8.252592
    144          7           0        3.542404    1.242952   -8.774365
    145          1           0        2.981117    1.494532   -9.580593
    146          1           0        3.193479    0.429038   -8.278662
    147          7           0        5.364701    2.236187   -9.829542
    148          1           0        4.728240    2.908368  -10.242410
    149          1           0        6.306013    2.594049   -9.720252
    150          6           0        4.883687    1.402021   -8.871824
    151          8           0       10.558837   -1.776785   -6.331151
    152          1           0       11.520786   -1.620438   -6.422751
 ---------------------------------------------------------------------

 SCF Done:  E(RB3LYP) =  -3586.72455976     A.U. after    3 cycles

 Alpha  occ. eigenvalues --  -19.26223 -19.24366 -19.20704 -19.20518 -19.19882
 Alpha  occ. eigenvalues --  -19.19125 -19.17477 -19.16455 -19.16248 -19.16178
 Alpha  occ. eigenvalues --  -19.14988 -19.00013 -18.99953 -14.61132 -14.52016
 Alpha  occ. eigenvalues --  -14.51559 -14.51270 -14.47785 -14.43372 -14.43111
 Alpha  occ. eigenvalues --  -14.42071 -14.41515 -14.39803 -14.39488 -14.39058
 Alpha  occ. eigenvalues --  -10.47580 -10.41732 -10.39912 -10.38518 -10.36719
 Alpha  occ. eigenvalues --  -10.36552 -10.34403 -10.34144 -10.33358 -10.33024
 Alpha  occ. eigenvalues --  -10.32966 -10.32399 -10.31722 -10.31625 -10.30836
 Alpha  occ. eigenvalues --  -10.30255 -10.30192 -10.29766 -10.28125 -10.27995
 Alpha  occ. eigenvalues --  -10.27809 -10.27595 -10.27403 -10.26400 -10.26305
 Alpha  occ. eigenvalues --  -10.25837 -10.25359 -10.25104 -10.23816 -10.23716
 Alpha  occ. eigenvalues --  -10.23382 -10.22967 -10.22771 -10.22595 -10.22278
 Alpha  occ. eigenvalues --  -10.22165 -10.22156 -10.22034 -10.21920 -10.21771
 Alpha  occ. eigenvalues --  -10.21755 -10.21754 -10.21718 -10.21329 -10.21047
 Alpha  occ. eigenvalues --  -10.21035 -10.20093 -10.18872 -10.17064 -10.13481
 Alpha  occ. eigenvalues --   -1.17721  -1.16904  -1.16185  -1.13935  -1.11695
 Alpha  occ. eigenvalues --   -1.10546  -1.09625  -1.08793  -1.08634  -1.08039
 Alpha  occ. eigenvalues --   -1.07719  -1.07446  -1.06500  -1.05344  -1.04669
 Alpha  occ. eigenvalues --   -1.04306  -1.00009  -0.98500  -0.98310  -0.97863
 Alpha  occ. eigenvalues --   -0.96689  -0.96163  -0.95257  -0.95030  -0.92845
 Alpha  occ. eigenvalues --   -0.88866  -0.88656  -0.88207  -0.88159  -0.85991
 Alpha  occ. eigenvalues --   -0.85657  -0.84394  -0.84316  -0.83843  -0.83541
 Alpha  occ. eigenvalues --   -0.81868  -0.81616  -0.80744  -0.80162  -0.78794
 Alpha  occ. eigenvalues --   -0.78357  -0.77676  -0.77597  -0.76875  -0.76616
 Alpha  occ. eigenvalues --   -0.76416  -0.75991  -0.74819  -0.73633  -0.73320
 Alpha  occ. eigenvalues --   -0.73094  -0.72850  -0.71753  -0.71323  -0.71091
 Alpha  occ. eigenvalues --   -0.70937  -0.70195  -0.69864  -0.68871  -0.67780
 Alpha  occ. eigenvalues --   -0.67519  -0.67111  -0.66780  -0.65288  -0.64909
 Alpha  occ. eigenvalues --   -0.64778  -0.64589  -0.64421  -0.63937  -0.63549
 Alpha  occ. eigenvalues --   -0.63205  -0.62907  -0.62810  -0.62273  -0.62051
 Alpha  occ. eigenvalues --   -0.61863  -0.61338  -0.61214  -0.60982  -0.60850
 Alpha  occ. eigenvalues --   -0.59404  -0.59205  -0.58925  -0.58693  -0.58447
 Alpha  occ. eigenvalues --   -0.57781  -0.57372  -0.57158  -0.56804  -0.56367
 Alpha  occ. eigenvalues --   -0.55870  -0.55656  -0.55352  -0.54986  -0.54448
 Alpha  occ. eigenvalues --   -0.54223  -0.54104  -0.53931  -0.53432  -0.53266
 Alpha  occ. eigenvalues --   -0.52981  -0.52779  -0.52077  -0.51876  -0.51618
 Alpha  occ. eigenvalues --   -0.51597  -0.51383  -0.51177  -0.50976  -0.50422
 Alpha  occ. eigenvalues --   -0.50335  -0.49839  -0.49690  -0.49485  -0.49216
 Alpha  occ. eigenvalues --   -0.48691  -0.48628  -0.48363  -0.48036  -0.47913
 Alpha  occ. eigenvalues --   -0.47742  -0.47594  -0.47466  -0.47394  -0.47163
 Alpha  occ. eigenvalues --   -0.46935  -0.46905  -0.46791  -0.46417  -0.46338
 Alpha  occ. eigenvalues --   -0.46217  -0.45825  -0.45347  -0.45193  -0.45145
 Alpha  occ. eigenvalues --   -0.45119  -0.44944  -0.44701  -0.44315  -0.44265
 Alpha  occ. eigenvalues --   -0.44080  -0.43819  -0.43475  -0.43435  -0.43362
 Alpha  occ. eigenvalues --   -0.43183  -0.42979  -0.42928  -0.42683  -0.42654
 Alpha  occ. eigenvalues --   -0.42546  -0.42232  -0.42109  -0.42062  -0.41755
 Alpha  occ. eigenvalues --   -0.41641  -0.41599  -0.41089  -0.40853  -0.40550
 Alpha  occ. eigenvalues --   -0.40263  -0.40125  -0.39873  -0.39737  -0.39573
 Alpha  occ. eigenvalues --   -0.38825  -0.38516  -0.38273  -0.38251  -0.38248
 Alpha  occ. eigenvalues --   -0.37977  -0.37400  -0.37371  -0.37138  -0.36996
 Alpha  occ. eigenvalues --   -0.36460  -0.36300  -0.36047  -0.35998  -0.35454
 Alpha  occ. eigenvalues --   -0.34500  -0.34327  -0.34132  -0.34111  -0.33672
 Alpha  occ. eigenvalues --   -0.33345  -0.33004  -0.32729  -0.32348  -0.31895
 Alpha  occ. eigenvalues --   -0.31497  -0.31084  -0.30854  -0.30773  -0.29622
 Alpha  occ. eigenvalues --   -0.29111  -0.28853  -0.27975  -0.27766  -0.27598
 Alpha  occ. eigenvalues --   -0.27267  -0.27181  -0.26640  -0.24564  -0.15788
 Alpha  occ. eigenvalues --   -0.14617  -0.13935
 Alpha virt. eigenvalues --   -0.13124  -0.11618  -0.10604  -0.08493  -0.06367
 Alpha virt. eigenvalues --   -0.06080  -0.05661  -0.04763  -0.04760  -0.04190
 Alpha virt. eigenvalues --   -0.04013  -0.03699  -0.03207  -0.03007  -0.02933

 Mulliken charges:
               1
     1  N   -0.727894
     2  H    0.427104
     3  H    0.430524
     4  H    0.412124
     5  C   -0.137904
     6  H    0.208172
     7  C    0.668491
     8  C   -0.106937
     9  H    0.192064
    10  O   -0.549964
    11  C   -0.467863
    12  H    0.137697
    13  H    0.200407
    14  H    0.171575
    15  C   -0.483672
    16  H    0.138693
    17  H    0.194888
    18  H    0.198112
    19  N   -0.615974
    20  H    0.361831
    21  C   -0.059038
    22  H    0.188024
    23  C    0.635006
    24  C   -0.081390
    25  H    0.142177
    26  O   -0.556785
    27  C   -0.306523
    28  H    0.200832
    29  H    0.154845
    30  C   -0.464257
    31  H    0.191956
    32  H    0.105499
    33  H    0.158568
    34  C   -0.471451
    35  H    0.195180
    36  H    0.132751
    37  H    0.142364
    38  N   -0.607524
    39  H    0.383495
    40  C   -0.073797
    41  H    0.162865
    42  C    0.665192
    43  C   -0.362316
    44  H    0.159300
    45  H    0.169743
    46  O   -0.532984
    47  C    0.113587
    48  C   -0.200272
    49  H    0.112738
    50  C   -0.180510
    51  H    0.158259
    52  C   -0.124500
    53  H    0.127005
    54  C   -0.149391
    55  H    0.229534
    56  C   -0.140158
    57  H    0.146769
    58  N   -0.599772
    59  H    0.334202
    60  C   -0.079093
    61  H    0.189942
    62  C    0.629784
    63  C   -0.267089
    64  H    0.137617
    65  H    0.151224
    66  O   -0.565595
    67  C   -0.067090
    68  H    0.127748
    69  C   -0.440946
    70  H    0.137848
    71  H    0.141870
    72  H    0.136705
    73  C   -0.460528
    74  H    0.131080
    75  H    0.133127
    76  H    0.179609
    77  N   -0.599372
    78  H    0.365018
    79  C   -0.083203
    80  H    0.167090
    81  C    0.629971
    82  C   -0.262321
    83  H    0.121033
    84  H    0.183622
    85  O   -0.518998
    86  C   -0.391597
    87  H    0.101351
    88  H    0.155692
    89  C    0.565297
    90  O   -0.620338
    91  O   -0.586696
    92  N   -0.635214
    93  H    0.370281
    94  C   -0.054358
    95  H    0.210555
    96  C    0.637970
    97  C   -0.375856
    98  H    0.188329
    99  H    0.167121
   100  O   -0.569176
   101  C    0.636602
   102  N   -0.750993
   103  H    0.329304
   104  H    0.351553
   105  O   -0.549522
   106  N   -0.612697
   107  H    0.389169
   108  C   -0.038945
   109  H    0.160329
   110  C    0.640946
   111  C   -0.379566
   112  H    0.165164
   113  H    0.192665
   114  O   -0.538758
   115  C    0.148238
   116  C   -0.194496
   117  H    0.151557
   118  C   -0.191935
   119  H    0.129171
   120  C   -0.154908
   121  H    0.138913
   122  C   -0.192012
   123  H    0.121195
   124  O   -0.641623
   125  H    0.408395
   126  C    0.354244
   127  N   -0.590480
   128  H    0.350708
   129  C   -0.048593
   130  H    0.219291
   131  C    0.582216
   132  C   -0.296468
   133  H    0.128053
   134  H    0.159758
   135  O   -0.450834
   136  C   -0.305809
   137  H    0.213445
   138  H    0.199458
   139  C   -0.219460
   140  H    0.175995
   141  H    0.240636
   142  N   -0.571676
   143  H    0.362707
   144  N   -0.737101
   145  H    0.372933
   146  H    0.400274
   147  N   -0.740889
   148  H    0.373835
   149  H    0.376853
   150  C    0.746351
   151  O   -0.568198
   152  H    0.421893
 Sum of Mulliken charges =   1.00000

 Dipole moment (field-independent basis, Debye):
    X=            -26.1860    Y=             29.6541    Z=            -20.1611  Tot=             44.4020
 Quadrupole moment (field-independent basis, Debye-Ang):
   XX=            131.6822   YY=           -487.4659   ZZ=            -42.8115
   XY=              9.7508   XZ=           -362.7607   YZ=              2.2279

 Normal termination of Gaussian 16 at Sun Aug 14 21:11:15 2022.
