 Gaussian 16, Revision C.01,
 Gaussian 16:  ES64L-G16RevC.01  3-Jul-2019

 ----------------------------------------------------------------------
 # B3LYP/6-31G* empiricaldispersion=gd3 guess=read geom=check nosymm in
 tegral(ultrafinegrid)
 ----------------------------------------------------------------------

 -----------------------------------------------------
 Candidate Structure: Conf:49 Charge calc in gas phase
 -----------------------------------------------------
 Structure from the checkpoint file:  "conf-49.chk"
 Charge =  1 Multiplicity = 1

                          Input orientation:
 ---------------------------------------------------------------------
 Center     Atomic      Atomic             Coordinates (Angstroms)
 Number     Number       Type             X           Y           Z
 ---------------------------------------------------------------------
      1          7           0       -3.332047    4.137340    6.702705
      2          1           0       -3.020360    5.085346    6.472822
      3          1           0       -4.345900    4.045045    6.446483
      4          1           0       -3.178464    3.972424    7.700896
      5          6           0       -2.678041    3.081327    5.824637
      6          1           0       -1.668632    3.392755    5.536682
      7          6           0       -3.622259    3.028468    4.612065
      8          6           0       -2.655753    1.746324    6.613112
      9          1           0       -3.628455    1.663118    7.124584
     10          8           0       -4.834324    3.236437    4.811441
     11          6           0       -2.528232    0.531553    5.683768
     12          1           0       -1.638776    0.611460    5.057268
     13          1           0       -2.434292   -0.374985    6.287997
     14          1           0       -3.410727    0.415027    5.050543
     15          6           0       -1.516297    1.758952    7.645500
     16          1           0       -0.546988    1.707663    7.138471
     17          1           0       -1.522328    2.652032    8.288268
     18          1           0       -1.596318    0.889701    8.305383
     19          7           0       -3.021756    2.726046    3.467339
     20          1           0       -1.964596    2.677376    3.496045
     21          6           0       -3.733845    2.318829    2.255468
     22          1           0       -4.803881    2.323006    2.480035
     23          6           0       -3.227929    0.892906    2.011359
     24          6           0       -3.427704    3.240941    1.059651
     25          1           0       -2.335125    3.272473    0.965300
     26          8           0       -2.091649    0.700029    1.598275
     27          6           0       -3.919133    4.679661    1.318540
     28          1           0       -3.603216    5.293230    0.464731
     29          1           0       -3.392076    5.082946    2.192756
     30          6           0       -3.989904    2.637711   -0.238706
     31          1           0       -5.048257    2.364598   -0.141124
     32          1           0       -3.420094    1.750380   -0.534123
     33          1           0       -3.911072    3.360313   -1.058062
     34          6           0       -5.430003    4.840586    1.535135
     35          1           0       -5.693535    5.901242    1.613139
     36          1           0       -6.007583    4.421045    0.703711
     37          1           0       -5.757588    4.355126    2.461324
     38          7           0       -4.075205   -0.132241    2.330828
     39          1           0       -4.929234    0.108314    2.822921
     40          6           0       -3.536733   -1.466346    2.619153
     41          1           0       -2.848352   -1.402947    3.469643
     42          6           0       -2.676292   -2.031613    1.485034
     43          6           0       -4.684254   -2.434109    2.986810
     44          1           0       -4.232864   -3.417967    3.151410
     45          1           0       -5.367503   -2.521589    2.134215
     46          8           0       -1.721553   -2.755663    1.758974
     47          6           0       -5.416715   -1.962440    4.224212
     48          6           0       -4.855444   -2.163166    5.493236
     49          1           0       -3.929329   -2.726297    5.583988
     50          6           0       -6.613717   -1.239366    4.125578
     51          1           0       -7.076736   -1.099216    3.150279
     52          6           0       -5.470108   -1.647119    6.633400
     53          1           0       -5.026700   -1.821342    7.610129
     54          6           0       -7.228400   -0.714267    5.265758
     55          1           0       -8.156552   -0.157786    5.170709
     56          6           0       -6.655568   -0.914570    6.521862
     57          1           0       -7.136139   -0.514933    7.410464
     58          7           0       -3.050052   -1.737610    0.208610
     59          1           0       -3.701759   -0.969774    0.095909
     60          6           0       -2.081662   -1.921659   -0.880008
     61          1           0       -1.584811   -2.873706   -0.684106
     62          6           0       -1.060763   -0.768822   -0.785378
     63          6           0       -2.790553   -1.953388   -2.233479
     64          1           0       -3.351270   -1.017910   -2.355435
     65          1           0       -3.519195   -2.774450   -2.207673
     66          8           0       -1.224675    0.279151   -1.426075
     67          6           0       -1.856401   -2.126320   -3.447605
     68          1           0       -1.221780   -1.232436   -3.501136
     69          6           0       -0.946537   -3.357556   -3.321425
     70          1           0       -1.536855   -4.270179   -3.167060
     71          1           0       -0.241273   -3.266339   -2.487431
     72          1           0       -0.354582   -3.496188   -4.233309
     73          6           0       -2.690656   -2.193547   -4.734265
     74          1           0       -3.335938   -3.081546   -4.736717
     75          1           0       -2.045884   -2.249266   -5.618909
     76          1           0       -3.333466   -1.311497   -4.840239
     77          7           0       -0.014264   -0.974022    0.048538
     78          1           0       -0.063732   -1.808496    0.625670
     79          6           0        0.809823    0.124932    0.577253
     80          1           0        0.143575    0.989961    0.706156
     81          6           0        1.890212    0.636539   -0.394288
     82          6           0        1.414488   -0.238781    1.940647
     83          1           0        2.189767    0.501894    2.141278
     84          1           0        1.920750   -1.210285    1.891656
     85          8           0        2.968630    1.072873    0.012244
     86          6           0        0.370940   -0.227891    3.072401
     87          1           0       -0.257803    0.654469    2.967137
     88          1           0       -0.272243   -1.111247    3.002969
     89          6           0        1.032831   -0.248176    4.446070
     90          8           0        1.658932   -1.200396    4.856941
     91          8           0        0.878398    0.865519    5.193645
     92          7           0        1.534894    0.693222   -1.716239
     93          1           0        0.530155    0.638824   -1.909224
     94          6           0        2.356269    1.506024   -2.602466
     95          1           0        3.378082    1.401370   -2.225777
     96          6           0        1.942644    2.985656   -2.502868
     97          6           0        2.291483    1.064050   -4.062807
     98          1           0        2.631599    0.025167   -4.147208
     99          1           0        1.268299    1.113656   -4.441818
    100          8           0        1.316563    3.547232   -3.407727
    101          6           0        3.137846    1.904812   -5.010138
    102          7           0        4.205431    2.572925   -4.513082
    103          1           0        4.704044    3.172200   -5.157387
    104          1           0        4.251361    2.896614   -3.552963
    105          8           0        2.886923    1.898785   -6.229123
    106          7           0        2.353690    3.623532   -1.389685
    107          1           0        2.832055    3.098127   -0.662641
    108          6           0        2.243457    5.063423   -1.309794
    109          1           0        1.191578    5.341857   -1.448290
    110          6           0        3.071947    5.659081   -2.467999
    111          6           0        2.716772    5.563494    0.074814
    112          1           0        3.787280    5.346398    0.174920
    113          1           0        2.610577    6.655706    0.088070
    114          8           0        4.101174    5.127393   -2.882735
    115          6           0        1.928724    4.911749    1.189259
    116          6           0        0.590160    5.257580    1.424850
    117          1           0        0.136915    6.068582    0.854582
    118          6           0        2.475474    3.876957    1.960492
    119          1           0        3.513793    3.586063    1.811413
    120          6           0       -0.176995    4.586005    2.370694
    121          1           0       -1.207392    4.881102    2.547343
    122          6           0        1.721202    3.199866    2.914094
    123          1           0        2.174512    2.416977    3.513131
    124          8           0       -0.389463    2.837078    3.991865
    125          1           0        0.398229    1.604121    4.693028
    126          6           0        0.358339    3.514023    3.129009
    127          7           0        2.577125    6.809038   -3.003098
    128          1           0        1.706106    7.183097   -2.652980
    129          6           0        3.166440    7.420088   -4.179310
    130          1           0        4.212537    7.095506   -4.199893
    131          6           0        3.183034    8.944145   -4.125134
    132          6           0        2.489221    6.968293   -5.498076
    133          1           0        1.446353    7.317042   -5.500540
    134          1           0        3.002725    7.490229   -6.314620
    135          8           0        3.581112    9.629802   -5.039184
    136          6           0        2.522184    5.448243   -5.678805
    137          1           0        3.558473    5.094949   -5.638378
    138          1           0        2.001151    4.960431   -4.851350
    139          6           0        1.867859    4.958750   -6.971821
    140          1           0        1.735032    3.875533   -6.946207
    141          1           0        0.874532    5.399737   -7.102677
    142          7           0        2.639204    5.305447   -8.182127
    143          1           0        2.610550    6.277197   -8.463206
    144          7           0        3.963489    3.377543   -8.243222
    145          1           0        4.549253    2.777996   -8.808455
    146          1           0        3.534927    2.912289   -7.408953
    147          7           0        4.271026    5.070918   -9.799863
    148          1           0        5.010247    4.543552  -10.240717
    149          1           0        3.858690    5.808322  -10.352949
    150          6           0        3.612478    4.565998   -8.727567
    151          8           0        2.690629    9.445744   -2.971945
    152          1           0        2.747812   10.418254   -3.042294
 ---------------------------------------------------------------------

 SCF Done:  E(RB3LYP) =  -3586.88009648     A.U. after    3 cycles

 Alpha  occ. eigenvalues --  -19.28143 -19.21995 -19.21357 -19.21222 -19.19478
 Alpha  occ. eigenvalues --  -19.19391 -19.18791 -19.18422 -19.18124 -19.18060
 Alpha  occ. eigenvalues --  -19.17716 -19.14354 -19.13542 -14.55985 -14.50396
 Alpha  occ. eigenvalues --  -14.50167 -14.48514 -14.44308 -14.44109 -14.43966
 Alpha  occ. eigenvalues --  -14.43172 -14.42368 -14.42209 -14.41630 -14.41248
 Alpha  occ. eigenvalues --  -10.46372 -10.40390 -10.38562 -10.37619 -10.36392
 Alpha  occ. eigenvalues --  -10.36267 -10.35285 -10.35222 -10.34588 -10.34446
 Alpha  occ. eigenvalues --  -10.33823 -10.32995 -10.32429 -10.32241 -10.30516
 Alpha  occ. eigenvalues --  -10.30222 -10.30152 -10.30130 -10.29071 -10.28957
 Alpha  occ. eigenvalues --  -10.28208 -10.28204 -10.27117 -10.27068 -10.26857
 Alpha  occ. eigenvalues --  -10.26645 -10.26551 -10.25707 -10.25608 -10.25579
 Alpha  occ. eigenvalues --  -10.25457 -10.25420 -10.25379 -10.25214 -10.25179
 Alpha  occ. eigenvalues --  -10.24342 -10.24082 -10.24000 -10.23926 -10.23169
 Alpha  occ. eigenvalues --  -10.22927 -10.22735 -10.22698 -10.22506 -10.22308
 Alpha  occ. eigenvalues --  -10.22248 -10.22205 -10.21394 -10.21274 -10.20692
 Alpha  occ. eigenvalues --   -1.18881  -1.14666  -1.13539  -1.12552  -1.11917
 Alpha  occ. eigenvalues --   -1.11644  -1.10385  -1.10163  -1.09832  -1.09570
 Alpha  occ. eigenvalues --   -1.09330  -1.09291  -1.09020  -1.04101  -1.02421
 Alpha  occ. eigenvalues --   -1.02233  -1.01071  -1.00887  -1.00596  -1.00151
 Alpha  occ. eigenvalues --   -0.99409  -0.99223  -0.98751  -0.98292  -0.97484
 Alpha  occ. eigenvalues --   -0.92229  -0.89955  -0.89386  -0.88337  -0.87533
 Alpha  occ. eigenvalues --   -0.86665  -0.85902  -0.85781  -0.85118  -0.83495
 Alpha  occ. eigenvalues --   -0.83054  -0.81996  -0.81084  -0.80869  -0.79459
 Alpha  occ. eigenvalues --   -0.79262  -0.78726  -0.77602  -0.77312  -0.76554
 Alpha  occ. eigenvalues --   -0.76358  -0.76004  -0.75931  -0.73763  -0.73204
 Alpha  occ. eigenvalues --   -0.72532  -0.71987  -0.71231  -0.70551  -0.70471
 Alpha  occ. eigenvalues --   -0.70233  -0.69747  -0.69214  -0.68828  -0.68058
 Alpha  occ. eigenvalues --   -0.67664  -0.67657  -0.67072  -0.66863  -0.65881
 Alpha  occ. eigenvalues --   -0.65669  -0.65264  -0.64795  -0.64748  -0.64710
 Alpha  occ. eigenvalues --   -0.63922  -0.63787  -0.63566  -0.63481  -0.62725
 Alpha  occ. eigenvalues --   -0.62338  -0.61928  -0.61540  -0.61187  -0.60961
 Alpha  occ. eigenvalues --   -0.60898  -0.60242  -0.59260  -0.58842  -0.58770
 Alpha  occ. eigenvalues --   -0.58465  -0.57730  -0.57490  -0.57259  -0.56997
 Alpha  occ. eigenvalues --   -0.56746  -0.56251  -0.55716  -0.55574  -0.55165
 Alpha  occ. eigenvalues --   -0.55029  -0.54740  -0.54301  -0.54157  -0.53638
 Alpha  occ. eigenvalues --   -0.53426  -0.53334  -0.52891  -0.52752  -0.52253
 Alpha  occ. eigenvalues --   -0.52064  -0.51876  -0.51694  -0.51518  -0.51384
 Alpha  occ. eigenvalues --   -0.51289  -0.50973  -0.50759  -0.50295  -0.50229
 Alpha  occ. eigenvalues --   -0.49554  -0.49530  -0.49441  -0.49138  -0.48898
 Alpha  occ. eigenvalues --   -0.48650  -0.48493  -0.48382  -0.48183  -0.48134
 Alpha  occ. eigenvalues --   -0.48003  -0.47606  -0.47477  -0.47282  -0.47201
 Alpha  occ. eigenvalues --   -0.47055  -0.47020  -0.46747  -0.46531  -0.46486
 Alpha  occ. eigenvalues --   -0.46280  -0.45901  -0.45676  -0.45511  -0.45372
 Alpha  occ. eigenvalues --   -0.45223  -0.45076  -0.44821  -0.44632  -0.44419
 Alpha  occ. eigenvalues --   -0.44104  -0.44071  -0.43948  -0.43662  -0.43650
 Alpha  occ. eigenvalues --   -0.43528  -0.43411  -0.43282  -0.43027  -0.42849
 Alpha  occ. eigenvalues --   -0.42587  -0.42492  -0.42431  -0.42158  -0.41979
 Alpha  occ. eigenvalues --   -0.41889  -0.41623  -0.41419  -0.41365  -0.41032
 Alpha  occ. eigenvalues --   -0.40907  -0.40778  -0.40489  -0.40408  -0.39858
 Alpha  occ. eigenvalues --   -0.39189  -0.38984  -0.38566  -0.38491  -0.38350
 Alpha  occ. eigenvalues --   -0.38250  -0.38020  -0.37887  -0.37689  -0.37565
 Alpha  occ. eigenvalues --   -0.37413  -0.36584  -0.36341  -0.36177  -0.35556
 Alpha  occ. eigenvalues --   -0.35396  -0.34999  -0.34679  -0.34475  -0.34326
 Alpha  occ. eigenvalues --   -0.33791  -0.33482  -0.33337  -0.33039  -0.32226
 Alpha  occ. eigenvalues --   -0.32146  -0.31622  -0.31583  -0.31393  -0.31114
 Alpha  occ. eigenvalues --   -0.30803  -0.30048  -0.29467  -0.29021  -0.28212
 Alpha  occ. eigenvalues --   -0.27125  -0.23224
 Alpha virt. eigenvalues --   -0.10244  -0.08344  -0.07533  -0.07389  -0.07143
 Alpha virt. eigenvalues --   -0.07034  -0.06896  -0.06789  -0.06244  -0.05536
 Alpha virt. eigenvalues --   -0.05220  -0.04641  -0.03957  -0.03351  -0.02959

 Mulliken charges:
               1
     1  N   -0.751786
     2  H    0.410525
     3  H    0.414868
     4  H    0.404903
     5  C   -0.127865
     6  H    0.249721
     7  C    0.611804
     8  C   -0.101163
     9  H    0.137476
    10  O   -0.572682
    11  C   -0.478302
    12  H    0.190774
    13  H    0.167986
    14  H    0.155175
    15  C   -0.473207
    16  H    0.223134
    17  H    0.110557
    18  H    0.175119
    19  N   -0.632329
    20  H    0.446326
    21  C   -0.068570
    22  H    0.169745
    23  C    0.625968
    24  C   -0.079277
    25  H    0.170095
    26  O   -0.507842
    27  C   -0.263111
    28  H    0.137812
    29  H    0.135717
    30  C   -0.492364
    31  H    0.136634
    32  H    0.183678
    33  H    0.154234
    34  C   -0.471756
    35  H    0.147284
    36  H    0.149247
    37  H    0.165395
    38  N   -0.652250
    39  H    0.348366
    40  C   -0.031816
    41  H    0.196022
    42  C    0.648407
    43  C   -0.387688
    44  H    0.192375
    45  H    0.164183
    46  O   -0.544532
    47  C    0.155925
    48  C   -0.179577
    49  H    0.149344
    50  C   -0.211799
    51  H    0.135964
    52  C   -0.130278
    53  H    0.143641
    54  C   -0.120647
    55  H    0.145164
    56  C   -0.132602
    57  H    0.140544
    58  N   -0.590271
    59  H    0.340375
    60  C   -0.076391
    61  H    0.185534
    62  C    0.659039
    63  C   -0.263228
    64  H    0.143638
    65  H    0.143992
    66  O   -0.574023
    67  C   -0.080465
    68  H    0.139109
    69  C   -0.454231
    70  H    0.147317
    71  H    0.146140
    72  H    0.146282
    73  C   -0.445129
    74  H    0.144467
    75  H    0.142586
    76  H    0.142782
    77  N   -0.612002
    78  H    0.375141
    79  C   -0.063396
    80  H    0.220475
    81  C    0.623145
    82  C   -0.314932
    83  H    0.192474
    84  H    0.165889
    85  O   -0.538616
    86  C   -0.407127
    87  H    0.178430
    88  H    0.180318
    89  C    0.575680
    90  O   -0.467288
    91  O   -0.645284
    92  N   -0.629667
    93  H    0.385478
    94  C   -0.081769
    95  H    0.188313
    96  C    0.619994
    97  C   -0.348018
    98  H    0.196073
    99  H    0.197725
   100  O   -0.554007
   101  C    0.627341
   102  N   -0.733553
   103  H    0.340522
   104  H    0.387029
   105  O   -0.573013
   106  N   -0.609243
   107  H    0.385911
   108  C   -0.027817
   109  H    0.161695
   110  C    0.651748
   111  C   -0.397876
   112  H    0.167314
   113  H    0.154803
   114  O   -0.559777
   115  C    0.166948
   116  C   -0.190659
   117  H    0.098197
   118  C   -0.199752
   119  H    0.129968
   120  C   -0.203024
   121  H    0.101637
   122  C   -0.216287
   123  H    0.140281
   124  O   -0.767805
   125  H    0.471340
   126  C    0.426781
   127  N   -0.602145
   128  H    0.342327
   129  C   -0.059107
   130  H    0.214004
   131  C    0.595473
   132  C   -0.273194
   133  H    0.144685
   134  H    0.152295
   135  O   -0.457599
   136  C   -0.298801
   137  H    0.135107
   138  H    0.239156
   139  C   -0.197990
   140  H    0.216286
   141  H    0.180360
   142  N   -0.591218
   143  H    0.356953
   144  N   -0.798114
   145  H    0.361995
   146  H    0.440290
   147  N   -0.766273
   148  H    0.374437
   149  H    0.374771
   150  C    0.808157
   151  O   -0.566614
   152  H    0.424826
 Sum of Mulliken charges =   1.00000

 Dipole moment (field-independent basis, Debye):
    X=             -4.1462    Y=             25.3762    Z=            -16.3034  Tot=             30.4458
 Quadrupole moment (field-independent basis, Debye-Ang):
   XX=           -352.0398   YY=           -291.5215   ZZ=            -91.7524
   XY=             26.2028   XZ=           -190.0663   YZ=            -63.7588

 Normal termination of Gaussian 16 at Sun Aug 14 21:14:11 2022.
