 Gaussian 16, Revision C.01,
 Gaussian 16:  ES64L-G16RevC.01  3-Jul-2019

 ----------------------------------------------------------------------
 # B3LYP/6-31G* empiricaldispersion=gd3 guess=read geom=check nosymm in
 tegral(ultrafinegrid)
 ----------------------------------------------------------------------

 ------------------------------------------------------
 Candidate Structure: Conf:727 Charge calc in gas phase
 ------------------------------------------------------
 Structure from the checkpoint file:  "conf-727.chk"
 Charge =  1 Multiplicity = 1

                          Input orientation:
 ---------------------------------------------------------------------
 Center     Atomic      Atomic             Coordinates (Angstroms)
 Number     Number       Type             X           Y           Z
 ---------------------------------------------------------------------
      1          7           0       -5.289022   -1.596998    9.275253
      2          1           0       -6.210797   -1.826267    9.650558
      3          1           0       -4.970311   -2.396638    8.718472
      4          1           0       -4.636122   -1.457515   10.045975
      5          6           0       -5.343896   -0.414098    8.389405
      6          1           0       -5.975542    0.349085    8.858135
      7          6           0       -5.990304   -0.849875    7.070775
      8          6           0       -3.948357    0.204666    8.148716
      9          1           0       -4.090222    0.966302    7.372444
     10          8           0       -6.002557   -2.030382    6.733890
     11          6           0       -3.425508    0.910778    9.400157
     12          1           0       -3.229101    0.201688   10.209524
     13          1           0       -2.484919    1.420684    9.179429
     14          1           0       -4.134992    1.655870    9.770413
     15          6           0       -2.937353   -0.818901    7.631958
     16          1           0       -2.677697   -1.538206    8.414072
     17          1           0       -3.321417   -1.372032    6.769434
     18          1           0       -2.018144   -0.314031    7.323221
     19          7           0       -6.495225    0.155120    6.318250
     20          1           0       -6.347245    1.118066    6.586621
     21          6           0       -6.883365   -0.045000    4.925151
     22          1           0       -6.569154   -1.051562    4.640562
     23          6           0       -6.081792    1.004325    4.156728
     24          6           0       -8.401694    0.077049    4.691088
     25          1           0       -8.712580    1.027083    5.139157
     26          8           0       -6.085248    2.179680    4.515153
     27          6           0       -9.134511   -1.066683    5.403901
     28          1           0       -8.695591   -1.220831    6.392102
     29          1           0       -8.938142   -1.987962    4.841607
     30          6           0       -8.730874    0.091322    3.196369
     31          1           0       -8.328174   -0.805673    2.710813
     32          1           0       -8.313851    0.970517    2.698265
     33          1           0       -9.810154    0.097441    3.033579
     34          6           0      -10.636668   -0.845695    5.545073
     35          1           0      -11.107397   -1.696071    6.043527
     36          1           0      -10.839437    0.048174    6.143225
     37          1           0      -11.126628   -0.713619    4.578276
     38          7           0       -5.362993    0.554019    3.110262
     39          1           0       -5.451313   -0.390380    2.758196
     40          6           0       -4.576486    1.431564    2.273945
     41          1           0       -5.171573    2.311388    2.005023
     42          6           0       -4.239893    0.625741    1.012579
     43          6           0       -3.318342    1.955490    3.002583
     44          1           0       -3.677166    2.451425    3.905610
     45          1           0       -2.855097    2.718075    2.368378
     46          8           0       -4.529681   -0.558525    0.906720
     47          6           0       -2.312494    0.891946    3.355928
     48          6           0       -2.482855    0.105607    4.499855
     49          1           0       -3.346665    0.278611    5.134710
     50          6           0       -1.189076    0.664321    2.554512
     51          1           0       -1.034892    1.275163    1.670211
     52          6           0       -1.564719   -0.893138    4.820975
     53          1           0       -1.722625   -1.495480    5.710884
     54          6           0       -0.269972   -0.336142    2.875032
     55          1           0        0.597776   -0.483645    2.240849
     56          6           0       -0.454783   -1.120004    4.011524
     57          1           0        0.259792   -1.896990    4.263797
     58          7           0       -3.611183    1.330825    0.042620
     59          1           0       -3.217023    2.234687    0.256171
     60          6           0       -3.001311    0.685134   -1.098886
     61          1           0       -2.999163   -0.391044   -0.909496
     62          6           0       -1.551400    1.187294   -1.169580
     63          6           0       -3.746191    0.971916   -2.404305
     64          1           0       -3.192924    0.518411   -3.231599
     65          1           0       -3.735367    2.052925   -2.574564
     66          8           0       -1.173890    2.171396   -0.538437
     67          6           0       -5.194150    0.470751   -2.452241
     68          1           0       -5.731591    0.896055   -1.600873
     69          6           0       -5.862118    0.971506   -3.732626
     70          1           0       -5.342059    0.581743   -4.613006
     71          1           0       -5.845639    2.063530   -3.783070
     72          1           0       -6.905188    0.648090   -3.784581
     73          6           0       -5.274295   -1.053303   -2.364408
     74          1           0       -4.741524   -1.508831   -3.206083
     75          1           0       -6.316527   -1.381911   -2.409803
     76          1           0       -4.845164   -1.433196   -1.436093
     77          7           0       -0.729457    0.477071   -1.969720
     78          1           0       -1.064813   -0.271727   -2.558875
     79          6           0        0.629810    0.903528   -2.226313
     80          1           0        0.643777    1.991013   -2.329240
     81          6           0        1.074894    0.220915   -3.513767
     82          6           0        1.605244    0.524185   -1.090256
     83          1           0        1.243255    0.976946   -0.166452
     84          1           0        2.580099    0.971599   -1.315274
     85          8           0        0.493132   -0.748304   -3.967607
     86          6           0        1.763828   -0.980215   -0.911849
     87          1           0        0.802233   -1.441899   -0.681338
     88          1           0        2.160464   -1.452599   -1.804581
     89          6           0        2.703802   -1.329752    0.282275
     90          8           0        3.518393   -2.237661    0.055922
     91          8           0        2.513915   -0.695534    1.331374
     92          7           0        2.215455    0.734563   -4.085055
     93          1           0        2.753539    1.370951   -3.515645
     94          6           0        3.061321   -0.184174   -4.843075
     95          1           0        2.401648   -0.899404   -5.328425
     96          6           0        3.969528   -0.872821   -3.834609
     97          6           0        3.934001    0.531260   -5.874236
     98          1           0        3.307057    0.902194   -6.684417
     99          1           0        4.435956    1.373972   -5.392921
    100          8           0        4.752552   -0.220527   -3.140239
    101          6           0        4.994622   -0.430634   -6.371798
    102          7           0        4.588692   -1.409799   -7.203249
    103          1           0        5.221368   -2.173845   -7.381314
    104          1           0        3.619752   -1.495399   -7.455260
    105          8           0        6.153843   -0.361128   -5.968446
    106          7           0        3.768514   -2.207140   -3.710645
    107          1           0        3.322486   -2.670856   -4.484739
    108          6           0        4.643908   -3.036332   -2.899842
    109          1           0        4.891779   -2.482486   -1.996217
    110          6           0        5.909630   -3.343270   -3.703534
    111          6           0        3.918519   -4.334743   -2.513359
    112          1           0        2.973413   -4.035903   -2.054419
    113          1           0        3.695732   -4.887420   -3.430090
    114          8           0        5.914705   -3.437202   -4.929620
    115          6           0        4.720629   -5.191041   -1.569444
    116          6           0        5.501827   -6.240313   -2.057161
    117          1           0        5.532513   -6.429460   -3.126770
    118          6           0        4.748077   -4.932909   -0.197616
    119          1           0        4.170711   -4.104567    0.190221
    120          6           0        6.282747   -7.019214   -1.206460
    121          1           0        6.891264   -7.831270   -1.585430
    122          6           0        5.519242   -5.708438    0.668880
    123          1           0        5.518943   -5.490648    1.732406
    124          8           0        7.054358   -7.563914    0.951797
    125          1           0        6.965983   -7.283533    1.868750
    126          6           0        6.283153   -6.757700    0.162116
    127          7           0        7.016817   -3.553761   -2.950547
    128          1           0        6.936232   -3.690562   -1.952330
    129          6           0        8.272308   -3.923735   -3.565939
    130          1           0        8.086394   -4.643047   -4.370148
    131          6           0        9.119571   -4.603675   -2.514155
    132          6           0        8.978897   -2.700771   -4.174602
    133          1           0        9.887605   -3.036011   -4.678788
    134          1           0        8.306559   -2.316707   -4.942591
    135          8           0        8.824590   -4.711376   -1.349522
    136          6           0        9.304767   -1.627576   -3.142970
    137          1           0        8.432677   -1.430478   -2.516499
    138          1           0       10.096121   -1.987151   -2.477181
    139          6           0        9.744329   -0.309568   -3.755885
    140          1           0       10.152083    0.336189   -2.970417
    141          1           0       10.537914   -0.470042   -4.493602
    142          7           0        8.599412    0.361411   -4.391449
    143          1           0        7.742915   -0.163688   -4.532116
    144          7           0        9.835435    2.229701   -5.031788
    145          1           0        9.761868    3.226494   -5.176708
    146          1           0       10.544258    1.957662   -4.366731
    147          7           0        7.579286    2.041451   -5.618737
    148          1           0        7.743848    2.696273   -6.369467
    149          1           0        6.873434    1.331624   -5.827107
    150          6           0        8.671106    1.532173   -5.012746
    151          8           0       10.273697   -5.069720   -3.028462
    152          1           0       10.747061   -5.487860   -2.294199
 ---------------------------------------------------------------------

 SCF Done:  E(RB3LYP) =  -3586.77689093     A.U. after    2 cycles

 Alpha  occ. eigenvalues --  -19.25728 -19.24150 -19.21189 -19.20088 -19.19269
 Alpha  occ. eigenvalues --  -19.18358 -19.17190 -19.17105 -19.16259 -19.16217
 Alpha  occ. eigenvalues --  -19.15604 -19.03733 -19.03349 -14.61654 -14.49296
 Alpha  occ. eigenvalues --  -14.48472 -14.47194 -14.47106 -14.44437 -14.42082
 Alpha  occ. eigenvalues --  -14.41288 -14.40515 -14.40262 -14.40251 -14.39312
 Alpha  occ. eigenvalues --  -10.44650 -10.41406 -10.39401 -10.38237 -10.37934
 Alpha  occ. eigenvalues --  -10.35388 -10.33894 -10.33641 -10.33208 -10.33103
 Alpha  occ. eigenvalues --  -10.32870 -10.32716 -10.32445 -10.31067 -10.29866
 Alpha  occ. eigenvalues --  -10.29683 -10.29571 -10.28734 -10.28339 -10.27500
 Alpha  occ. eigenvalues --  -10.26982 -10.26968 -10.26341 -10.26171 -10.26026
 Alpha  occ. eigenvalues --  -10.25835 -10.25642 -10.24651 -10.23846 -10.23550
 Alpha  occ. eigenvalues --  -10.23464 -10.22490 -10.22333 -10.22186 -10.22105
 Alpha  occ. eigenvalues --  -10.21923 -10.21791 -10.21301 -10.20767 -10.20622
 Alpha  occ. eigenvalues --  -10.20434 -10.20359 -10.19968 -10.19893 -10.19748
 Alpha  occ. eigenvalues --  -10.19676 -10.19320 -10.19100 -10.18515 -10.15196
 Alpha  occ. eigenvalues --   -1.18102  -1.17080  -1.14890  -1.13678  -1.12954
 Alpha  occ. eigenvalues --   -1.10811  -1.09761  -1.09305  -1.08565  -1.08006
 Alpha  occ. eigenvalues --   -1.07648  -1.07509  -1.07493  -1.03602  -1.02912
 Alpha  occ. eigenvalues --   -1.01723  -0.99703  -0.98901  -0.98296  -0.97690
 Alpha  occ. eigenvalues --   -0.97678  -0.97456  -0.97101  -0.96175  -0.94732
 Alpha  occ. eigenvalues --   -0.89188  -0.88960  -0.88654  -0.88267  -0.86816
 Alpha  occ. eigenvalues --   -0.86162  -0.86026  -0.85408  -0.83665  -0.83521
 Alpha  occ. eigenvalues --   -0.81313  -0.81037  -0.80986  -0.80682  -0.78600
 Alpha  occ. eigenvalues --   -0.77727  -0.76883  -0.76607  -0.76308  -0.75937
 Alpha  occ. eigenvalues --   -0.75666  -0.75281  -0.75045  -0.74612  -0.73639
 Alpha  occ. eigenvalues --   -0.71480  -0.71444  -0.71320  -0.71160  -0.70930
 Alpha  occ. eigenvalues --   -0.70645  -0.69771  -0.69687  -0.68854  -0.68247
 Alpha  occ. eigenvalues --   -0.67960  -0.66480  -0.66333  -0.65859  -0.65071
 Alpha  occ. eigenvalues --   -0.64360  -0.64109  -0.63462  -0.63441  -0.63007
 Alpha  occ. eigenvalues --   -0.62899  -0.62831  -0.62491  -0.62349  -0.61809
 Alpha  occ. eigenvalues --   -0.61535  -0.60961  -0.60519  -0.60353  -0.60231
 Alpha  occ. eigenvalues --   -0.59812  -0.59376  -0.58869  -0.58680  -0.58268
 Alpha  occ. eigenvalues --   -0.57531  -0.57105  -0.56686  -0.56545  -0.56082
 Alpha  occ. eigenvalues --   -0.55565  -0.55069  -0.54650  -0.54488  -0.54194
 Alpha  occ. eigenvalues --   -0.54078  -0.53965  -0.53389  -0.53329  -0.52879
 Alpha  occ. eigenvalues --   -0.52633  -0.52409  -0.52079  -0.52007  -0.51432
 Alpha  occ. eigenvalues --   -0.51099  -0.50993  -0.50827  -0.50762  -0.50508
 Alpha  occ. eigenvalues --   -0.50292  -0.49789  -0.49713  -0.49242  -0.49121
 Alpha  occ. eigenvalues --   -0.48833  -0.48662  -0.48568  -0.48415  -0.48298
 Alpha  occ. eigenvalues --   -0.48184  -0.47666  -0.47576  -0.47406  -0.47092
 Alpha  occ. eigenvalues --   -0.46813  -0.46636  -0.46452  -0.46362  -0.46280
 Alpha  occ. eigenvalues --   -0.46202  -0.46062  -0.45841  -0.45652  -0.45167
 Alpha  occ. eigenvalues --   -0.44887  -0.44748  -0.44645  -0.44380  -0.44083
 Alpha  occ. eigenvalues --   -0.43883  -0.43711  -0.43589  -0.43370  -0.43359
 Alpha  occ. eigenvalues --   -0.43228  -0.42805  -0.42728  -0.42649  -0.42470
 Alpha  occ. eigenvalues --   -0.42215  -0.42077  -0.42010  -0.41934  -0.41807
 Alpha  occ. eigenvalues --   -0.41406  -0.41235  -0.41116  -0.40707  -0.40533
 Alpha  occ. eigenvalues --   -0.40353  -0.39899  -0.39505  -0.39309  -0.39083
 Alpha  occ. eigenvalues --   -0.39017  -0.38274  -0.38243  -0.38151  -0.37947
 Alpha  occ. eigenvalues --   -0.37584  -0.37495  -0.36939  -0.36741  -0.36539
 Alpha  occ. eigenvalues --   -0.36484  -0.36400  -0.36238  -0.36114  -0.36053
 Alpha  occ. eigenvalues --   -0.35823  -0.35408  -0.35177  -0.34357  -0.34045
 Alpha  occ. eigenvalues --   -0.33659  -0.32792  -0.32475  -0.32280  -0.32080
 Alpha  occ. eigenvalues --   -0.31562  -0.31216  -0.31103  -0.30740  -0.30453
 Alpha  occ. eigenvalues --   -0.30232  -0.29373  -0.29145  -0.29010  -0.28364
 Alpha  occ. eigenvalues --   -0.27220  -0.26848  -0.26095  -0.23091  -0.19853
 Alpha  occ. eigenvalues --   -0.18238  -0.17976
 Alpha virt. eigenvalues --   -0.11700  -0.10323  -0.09753  -0.07164  -0.06398
 Alpha virt. eigenvalues --   -0.05128  -0.04736  -0.04704  -0.04533  -0.03605
 Alpha virt. eigenvalues --   -0.03169  -0.03047  -0.02431  -0.02157  -0.01935

 Mulliken charges:
               1
     1  N   -0.721541
     2  H    0.429204
     3  H    0.431368
     4  H    0.419411
     5  C   -0.141955
     6  H    0.206224
     7  C    0.645817
     8  C   -0.125235
     9  H    0.199169
    10  O   -0.523444
    11  C   -0.463821
    12  H    0.131663
    13  H    0.207968
    14  H    0.168893
    15  C   -0.492952
    16  H    0.124446
    17  H    0.203930
    18  H    0.220535
    19  N   -0.600868
    20  H    0.353350
    21  C   -0.066400
    22  H    0.186963
    23  C    0.618109
    24  C   -0.064853
    25  H    0.139920
    26  O   -0.554684
    27  C   -0.253261
    28  H    0.118604
    29  H    0.145917
    30  C   -0.476087
    31  H    0.153264
    32  H    0.169660
    33  H    0.167556
    34  C   -0.452204
    35  H    0.153258
    36  H    0.144709
    37  H    0.160308
    38  N   -0.607506
    39  H    0.362549
    40  C   -0.037303
    41  H    0.180446
    42  C    0.626258
    43  C   -0.388045
    44  H    0.175131
    45  H    0.162232
    46  O   -0.532662
    47  C    0.170319
    48  C   -0.188167
    49  H    0.076833
    50  C   -0.225099
    51  H    0.170909
    52  C   -0.141392
    53  H    0.102753
    54  C   -0.154687
    55  H    0.230433
    56  C   -0.149621
    57  H    0.140703
    58  N   -0.602254
    59  H    0.349541
    60  C   -0.086964
    61  H    0.196800
    62  C    0.636084
    63  C   -0.252011
    64  H    0.136289
    65  H    0.137680
    66  O   -0.547404
    67  C   -0.067709
    68  H    0.129807
    69  C   -0.442232
    70  H    0.140698
    71  H    0.139573
    72  H    0.144564
    73  C   -0.464880
    74  H    0.132501
    75  H    0.140196
    76  H    0.180574
    77  N   -0.606382
    78  H    0.354131
    79  C   -0.046656
    80  H    0.162415
    81  C    0.613737
    82  C   -0.272820
    83  H    0.190307
    84  H    0.131140
    85  O   -0.526903
    86  C   -0.378613
    87  H    0.126873
    88  H    0.137494
    89  C    0.553359
    90  O   -0.586854
    91  O   -0.573686
    92  N   -0.598482
    93  H    0.343988
    94  C   -0.064334
    95  H    0.168928
    96  C    0.621353
    97  C   -0.358308
    98  H    0.176791
    99  H    0.173392
   100  O   -0.552036
   101  C    0.613014
   102  N   -0.719530
   103  H    0.377835
   104  H    0.357595
   105  O   -0.555976
   106  N   -0.563297
   107  H    0.329427
   108  C   -0.072257
   109  H    0.231355
   110  C    0.628804
   111  C   -0.359034
   112  H    0.198926
   113  H    0.129242
   114  O   -0.576051
   115  C    0.102351
   116  C   -0.196716
   117  H    0.112808
   118  C   -0.201284
   119  H    0.224677
   120  C   -0.160825
   121  H    0.123714
   122  C   -0.204993
   123  H    0.122587
   124  O   -0.649317
   125  H    0.405835
   126  C    0.357927
   127  N   -0.610970
   128  H    0.379671
   129  C   -0.025768
   130  H    0.198822
   131  C    0.578721
   132  C   -0.293597
   133  H    0.164485
   134  H    0.179344
   135  O   -0.445292
   136  C   -0.321541
   137  H    0.198987
   138  H    0.172736
   139  C   -0.152875
   140  H    0.174830
   141  H    0.180528
   142  N   -0.599675
   143  H    0.420735
   144  N   -0.740159
   145  H    0.372426
   146  H    0.377360
   147  N   -0.766023
   148  H    0.356136
   149  H    0.413013
   150  C    0.752711
   151  O   -0.570589
   152  H    0.422455
 Sum of Mulliken charges =   1.00000

 Dipole moment (field-independent basis, Debye):
    X=              3.2246    Y=              3.7509    Z=             10.8138  Tot=             11.8914
 Quadrupole moment (field-independent basis, Debye-Ang):
   XX=            -51.9604   YY=           -430.2975   ZZ=             14.2524
   XY=             61.1825   XZ=           -330.2441   YZ=            -64.6929

 Normal termination of Gaussian 16 at Sun Aug 14 21:10:51 2022.
