 Gaussian 16, Revision C.01,
 Gaussian 16:  ES64L-G16RevC.01  3-Jul-2019

 ----------------------------------------------------------------------
 # B3LYP/6-31G* empiricaldispersion=gd3 guess=read geom=check nosymm in
 tegral(ultrafinegrid)
 ----------------------------------------------------------------------

 ------------------------------------------------------
 Candidate Structure: Conf:448 Charge calc in gas phase
 ------------------------------------------------------
 Structure from the checkpoint file:  "conf-448.chk"
 Charge =  1 Multiplicity = 1

                          Input orientation:
 ---------------------------------------------------------------------
 Center     Atomic      Atomic             Coordinates (Angstroms)
 Number     Number       Type             X           Y           Z
 ---------------------------------------------------------------------
      1          7           0       -4.742880    1.656951    8.087135
      2          1           0       -5.508051    2.215798    8.477389
      3          1           0       -5.078381    0.663938    7.987371
      4          1           0       -3.936072    1.719777    8.714146
      5          6           0       -4.402097    2.026795    6.652283
      6          1           0       -4.626108    3.087062    6.506261
      7          6           0       -5.342115    1.099886    5.849158
      8          6           0       -2.902534    1.730007    6.398009
      9          1           0       -2.718943    0.703955    6.745480
     10          8           0       -5.667074    0.028213    6.378935
     11          6           0       -2.566224    1.761216    4.900090
     12          1           0       -2.853514    2.708845    4.429683
     13          1           0       -1.488201    1.639141    4.772907
     14          1           0       -3.041846    0.941379    4.360121
     15          6           0       -2.011932    2.709346    7.179499
     16          1           0       -2.142425    3.734884    6.815220
     17          1           0       -2.194185    2.715002    8.264048
     18          1           0       -0.961502    2.437065    7.043940
     19          7           0       -5.725258    1.530544    4.645286
     20          1           0       -5.291949    2.367453    4.263552
     21          6           0       -6.260970    0.635522    3.604563
     22          1           0       -6.459246   -0.324613    4.084859
     23          6           0       -5.109194    0.543584    2.593019
     24          6           0       -7.539630    1.192211    2.947084
     25          1           0       -7.248210    2.122040    2.439325
     26          8           0       -4.602353    1.586795    2.166541
     27          6           0       -8.624318    1.540160    3.987652
     28          1           0       -9.490964    1.931212    3.440548
     29          1           0       -8.262664    2.367721    4.611927
     30          6           0       -8.032589    0.206051    1.874907
     31          1           0       -8.288664   -0.768190    2.307760
     32          1           0       -7.280759    0.041271    1.096070
     33          1           0       -8.929469    0.598032    1.385543
     34          6           0       -9.070985    0.385063    4.894099
     35          1           0       -9.876083    0.714743    5.559228
     36          1           0       -9.455669   -0.461938    4.316135
     37          1           0       -8.252657    0.018183    5.525234
     38          7           0       -4.662422   -0.686126    2.287789
     39          1           0       -5.165269   -1.494020    2.629541
     40          6           0       -3.443763   -0.918855    1.508742
     41          1           0       -2.802284   -0.048113    1.687898
     42          6           0       -3.731650   -0.956536   -0.008085
     43          6           0       -2.729359   -2.177520    2.018401
     44          1           0       -1.922235   -2.405531    1.317684
     45          1           0       -3.415939   -3.031875    1.973351
     46          8           0       -3.492996   -1.947426   -0.688908
     47          6           0       -2.193961   -1.962920    3.417205
     48          6           0       -0.922004   -1.401833    3.603373
     49          1           0       -0.308645   -1.168239    2.736031
     50          6           0       -2.966963   -2.254664    4.549390
     51          1           0       -3.948310   -2.708711    4.430677
     52          6           0       -0.430708   -1.150521    4.884868
     53          1           0        0.565481   -0.733776    5.006128
     54          6           0       -2.482681   -2.001670    5.834947
     55          1           0       -3.094100   -2.254176    6.697626
     56          6           0       -1.209327   -1.452430    6.006280
     57          1           0       -0.815999   -1.281122    7.005448
     58          7           0       -4.232531    0.214786   -0.485506
     59          1           0       -4.208915    1.015033    0.142527
     60          6           0       -4.183462    0.538749   -1.921781
     61          1           0       -4.358449   -0.394420   -2.460706
     62          6           0       -2.731566    1.037446   -2.117075
     63          6           0       -5.219868    1.602013   -2.286126
     64          1           0       -5.261709    1.662098   -3.382123
     65          1           0       -4.843897    2.572055   -1.940237
     66          8           0       -2.429236    2.205565   -1.888201
     67          6           0       -6.632826    1.357638   -1.726572
     68          1           0       -6.566232    1.405621   -0.629457
     69          6           0       -7.579360    2.475762   -2.184029
     70          1           0       -7.698311    2.464342   -3.274807
     71          1           0       -7.197113    3.463790   -1.901420
     72          1           0       -8.575432    2.356803   -1.740736
     73          6           0       -7.187539   -0.022291   -2.105564
     74          1           0       -7.231341   -0.137874   -3.196180
     75          1           0       -8.205310   -0.154587   -1.718726
     76          1           0       -6.570059   -0.834408   -1.706107
     77          7           0       -1.833514    0.054868   -2.378653
     78          1           0       -2.149598   -0.907743   -2.444163
     79          6           0       -0.422049    0.213536   -2.052019
     80          1           0       -0.111059    1.221822   -2.325920
     81          6           0        0.361759   -0.824951   -2.865949
     82          6           0       -0.236169    0.024555   -0.521360
     83          1           0       -0.746376   -0.912861   -0.259616
     84          1           0       -0.790453    0.843912   -0.045361
     85          8           0       -0.129714   -1.902268   -3.200371
     86          6           0        1.192740   -0.040568    0.043386
     87          1           0        1.136759   -0.196524    1.126657
     88          1           0        1.720018   -0.905477   -0.379153
     89          6           0        2.118517    1.159057   -0.202240
     90          8           0        2.742675    1.622642    0.781686
     91          8           0        2.262495    1.559623   -1.410087
     92          7           0        1.619918   -0.416971   -3.168322
     93          1           0        1.966647    0.383728   -2.608050
     94          6           0        2.572633   -1.285161   -3.803307
     95          1           0        2.005430   -1.986092   -4.423791
     96          6           0        3.384514   -2.116362   -2.778242
     97          6           0        3.519162   -0.422701   -4.709604
     98          1           0        3.073035   -0.330912   -5.704927
     99          1           0        3.590543    0.581177   -4.285829
    100          8           0        3.681551   -1.722271   -1.655221
    101          6           0        4.930330   -0.985113   -4.760354
    102          7           0        5.206218   -1.912750   -5.707784
    103          1           0        5.976586   -2.546435   -5.502790
    104          1           0        4.469885   -2.273323   -6.299507
    105          8           0        5.766756   -0.644614   -3.914397
    106          7           0        3.756341   -3.325048   -3.278178
    107          1           0        3.536636   -3.536892   -4.242172
    108          6           0        4.669207   -4.244088   -2.630143
    109          1           0        4.442608   -4.225435   -1.559825
    110          6           0        6.132669   -3.813277   -2.848964
    111          6           0        4.426021   -5.686009   -3.173911
    112          1           0        5.251303   -6.321556   -2.834591
    113          1           0        3.514525   -6.057936   -2.693435
    114          8           0        6.652936   -3.769994   -3.966046
    115          6           0        4.268531   -5.763229   -4.679435
    116          6           0        3.002274   -5.597062   -5.266582
    117          1           0        2.126674   -5.491005   -4.629349
    118          6           0        5.367794   -5.927248   -5.531829
    119          1           0        6.359325   -6.043672   -5.108941
    120          6           0        2.836339   -5.562186   -6.650111
    121          1           0        1.856118   -5.436875   -7.098523
    122          6           0        5.217025   -5.907573   -6.916413
    123          1           0        6.085293   -6.038061   -7.559562
    124          8           0        3.736032   -5.673409   -8.829712
    125          1           0        4.570724   -5.838450   -9.295474
    126          6           0        3.949875   -5.716845   -7.482821
    127          7           0        6.823588   -3.539392   -1.717447
    128          1           0        6.328317   -3.458146   -0.840530
    129          6           0        8.213225   -3.103514   -1.771760
    130          1           0        8.726353   -3.738347   -2.501304
    131          6           0        8.927933   -3.298174   -0.442502
    132          6           0        8.365336   -1.636630   -2.236050
    133          1           0        9.437452   -1.413153   -2.280349
    134          1           0        7.952102   -1.571709   -3.245366
    135          8           0       10.109052   -3.097004   -0.287608
    136          6           0        7.637928   -0.645959   -1.325418
    137          1           0        6.575226   -0.908712   -1.276067
    138          1           0        8.035966   -0.697423   -0.301303
    139          6           0        7.771973    0.794685   -1.834667
    140          1           0        8.823394    1.097368   -1.871119
    141          1           0        7.383134    0.876233   -2.852955
    142          7           0        7.078573    1.767131   -0.984780
    143          1           0        7.559333    2.014448   -0.130418
    144          7           0        4.955169    1.320654   -1.859906
    145          1           0        3.929247    1.464504   -1.772789
    146          1           0        5.295313    0.609213   -2.508545
    147          7           0        5.153512    2.632990    0.018320
    148          1           0        4.158305    2.415643    0.287290
    149          1           0        5.743714    3.034147    0.732440
    150          6           0        5.723395    1.881110   -0.937271
    151          8           0        8.101696   -3.673061    0.567039
    152          1           0        8.656170   -3.746060    1.367059
 ---------------------------------------------------------------------

 SCF Done:  E(RB3LYP) =  -3586.86475346     A.U. after    3 cycles

 Alpha  occ. eigenvalues --  -19.27143 -19.26458 -19.22852 -19.22280 -19.20053
 Alpha  occ. eigenvalues --  -19.18381 -19.18238 -19.17686 -19.17102 -19.14954
 Alpha  occ. eigenvalues --  -19.14915 -19.12839 -19.12626 -14.60879 -14.50197
 Alpha  occ. eigenvalues --  -14.47048 -14.43023 -14.42449 -14.41815 -14.41533
 Alpha  occ. eigenvalues --  -14.41150 -14.39821 -14.39242 -14.38905 -14.38031
 Alpha  occ. eigenvalues --  -10.43944 -10.40839 -10.39289 -10.38416 -10.37531
 Alpha  occ. eigenvalues --  -10.35377 -10.35334 -10.34781 -10.34372 -10.33970
 Alpha  occ. eigenvalues --  -10.33937 -10.32086 -10.31848 -10.31729 -10.30939
 Alpha  occ. eigenvalues --  -10.30661 -10.30194 -10.29884 -10.29607 -10.28919
 Alpha  occ. eigenvalues --  -10.28879 -10.28809 -10.28275 -10.28057 -10.27760
 Alpha  occ. eigenvalues --  -10.27702 -10.27526 -10.27481 -10.27276 -10.27229
 Alpha  occ. eigenvalues --  -10.26991 -10.26914 -10.26087 -10.25960 -10.25757
 Alpha  occ. eigenvalues --  -10.25662 -10.25510 -10.24476 -10.24372 -10.24177
 Alpha  occ. eigenvalues --  -10.24099 -10.24074 -10.23913 -10.23799 -10.23702
 Alpha  occ. eigenvalues --  -10.22923 -10.22684 -10.21970 -10.21906 -10.21245
 Alpha  occ. eigenvalues --   -1.19606  -1.17039  -1.14792  -1.14247  -1.10938
 Alpha  occ. eigenvalues --   -1.10163  -1.09998  -1.09413  -1.08653  -1.07950
 Alpha  occ. eigenvalues --   -1.07069  -1.06680  -1.06501  -1.06342  -1.05629
 Alpha  occ. eigenvalues --   -1.03205  -0.98953  -0.98577  -0.98435  -0.97226
 Alpha  occ. eigenvalues --   -0.96366  -0.96235  -0.95727  -0.95571  -0.95264
 Alpha  occ. eigenvalues --   -0.93922  -0.93086  -0.91356  -0.90547  -0.87761
 Alpha  occ. eigenvalues --   -0.86642  -0.86077  -0.85753  -0.84710  -0.83630
 Alpha  occ. eigenvalues --   -0.83205  -0.82719  -0.81992  -0.81450  -0.80993
 Alpha  occ. eigenvalues --   -0.80986  -0.79930  -0.79772  -0.79208  -0.78251
 Alpha  occ. eigenvalues --   -0.75436  -0.75340  -0.74623  -0.74215  -0.74155
 Alpha  occ. eigenvalues --   -0.72909  -0.72822  -0.72735  -0.72327  -0.70727
 Alpha  occ. eigenvalues --   -0.70251  -0.69864  -0.69569  -0.68992  -0.68443
 Alpha  occ. eigenvalues --   -0.67585  -0.67462  -0.67445  -0.66841  -0.66604
 Alpha  occ. eigenvalues --   -0.65834  -0.65132  -0.64864  -0.64252  -0.64102
 Alpha  occ. eigenvalues --   -0.63771  -0.63690  -0.63384  -0.63116  -0.62140
 Alpha  occ. eigenvalues --   -0.61589  -0.60875  -0.60768  -0.60299  -0.59751
 Alpha  occ. eigenvalues --   -0.59526  -0.59477  -0.59435  -0.58911  -0.58667
 Alpha  occ. eigenvalues --   -0.58560  -0.57762  -0.57191  -0.56575  -0.56007
 Alpha  occ. eigenvalues --   -0.55752  -0.55587  -0.55513  -0.54740  -0.54607
 Alpha  occ. eigenvalues --   -0.54144  -0.53990  -0.53927  -0.53800  -0.53707
 Alpha  occ. eigenvalues --   -0.53580  -0.53157  -0.52789  -0.52639  -0.52508
 Alpha  occ. eigenvalues --   -0.52318  -0.52050  -0.51595  -0.51401  -0.51327
 Alpha  occ. eigenvalues --   -0.51150  -0.51077  -0.50720  -0.50466  -0.50371
 Alpha  occ. eigenvalues --   -0.50155  -0.49898  -0.49740  -0.49565  -0.49296
 Alpha  occ. eigenvalues --   -0.49170  -0.49137  -0.48906  -0.48613  -0.48493
 Alpha  occ. eigenvalues --   -0.48138  -0.47682  -0.47580  -0.47332  -0.47269
 Alpha  occ. eigenvalues --   -0.47104  -0.47023  -0.46878  -0.46779  -0.46643
 Alpha  occ. eigenvalues --   -0.46542  -0.46509  -0.46479  -0.46416  -0.46185
 Alpha  occ. eigenvalues --   -0.45934  -0.45677  -0.45463  -0.45307  -0.45254
 Alpha  occ. eigenvalues --   -0.44820  -0.44616  -0.44380  -0.44313  -0.44101
 Alpha  occ. eigenvalues --   -0.43889  -0.43641  -0.43393  -0.43108  -0.43014
 Alpha  occ. eigenvalues --   -0.42731  -0.42722  -0.42330  -0.42287  -0.42204
 Alpha  occ. eigenvalues --   -0.42129  -0.41885  -0.41806  -0.41530  -0.41417
 Alpha  occ. eigenvalues --   -0.41356  -0.40829  -0.40730  -0.40587  -0.40490
 Alpha  occ. eigenvalues --   -0.40298  -0.39971  -0.39761  -0.39476  -0.39261
 Alpha  occ. eigenvalues --   -0.38615  -0.38147  -0.38099  -0.37887  -0.37248
 Alpha  occ. eigenvalues --   -0.37139  -0.37047  -0.36949  -0.36846  -0.35912
 Alpha  occ. eigenvalues --   -0.34198  -0.33721  -0.33391  -0.33128  -0.33124
 Alpha  occ. eigenvalues --   -0.32742  -0.32344  -0.31831  -0.31656  -0.31410
 Alpha  occ. eigenvalues --   -0.31126  -0.30956  -0.30671  -0.29925  -0.29472
 Alpha  occ. eigenvalues --   -0.28771  -0.28305  -0.28110  -0.27796  -0.27257
 Alpha  occ. eigenvalues --   -0.26834  -0.26584
 Alpha virt. eigenvalues --   -0.13390  -0.11418  -0.09092  -0.08806  -0.08187
 Alpha virt. eigenvalues --   -0.06838  -0.05698  -0.05516  -0.05494  -0.05077
 Alpha virt. eigenvalues --   -0.04852  -0.04613  -0.03751  -0.03232  -0.03072

 Mulliken charges:
               1
     1  N   -0.750840
     2  H    0.418005
     3  H    0.429187
     4  H    0.412839
     5  C   -0.115186
     6  H    0.203828
     7  C    0.658092
     8  C   -0.107842
     9  H    0.167952
    10  O   -0.543256
    11  C   -0.479771
    12  H    0.164155
    13  H    0.193521
    14  H    0.191718
    15  C   -0.469851
    16  H    0.179520
    17  H    0.128612
    18  H    0.201136
    19  N   -0.584096
    20  H    0.366373
    21  C   -0.073746
    22  H    0.185025
    23  C    0.646321
    24  C   -0.095095
    25  H    0.158368
    26  O   -0.559457
    27  C   -0.255768
    28  H    0.159272
    29  H    0.124345
    30  C   -0.486755
    31  H    0.149601
    32  H    0.182675
    33  H    0.174792
    34  C   -0.474081
    35  H    0.160098
    36  H    0.161873
    37  H    0.150801
    38  N   -0.592324
    39  H    0.344164
    40  C   -0.079006
    41  H    0.200111
    42  C    0.643347
    43  C   -0.400393
    44  H    0.207602
    45  H    0.167208
    46  O   -0.523489
    47  C    0.176781
    48  C   -0.189333
    49  H    0.171902
    50  C   -0.188362
    51  H    0.121792
    52  C   -0.140417
    53  H    0.151580
    54  C   -0.136740
    55  H    0.131859
    56  C   -0.145044
    57  H    0.130800
    58  N   -0.620218
    59  H    0.369704
    60  C   -0.068258
    61  H    0.176814
    62  C    0.613474
    63  C   -0.283803
    64  H    0.148989
    65  H    0.168839
    66  O   -0.533609
    67  C   -0.075126
    68  H    0.114631
    69  C   -0.442387
    70  H    0.149543
    71  H    0.144674
    72  H    0.135000
    73  C   -0.454033
    74  H    0.148425
    75  H    0.136903
    76  H    0.153688
    77  N   -0.601042
    78  H    0.359832
    79  C   -0.059957
    80  H    0.207312
    81  C    0.598160
    82  C   -0.289795
    83  H    0.137162
    84  H    0.155184
    85  O   -0.549461
    86  C   -0.386480
    87  H    0.137802
    88  H    0.188455
    89  C    0.624274
    90  O   -0.582585
    91  O   -0.620887
    92  N   -0.635582
    93  H    0.405722
    94  C   -0.059888
    95  H    0.173820
    96  C    0.614697
    97  C   -0.367777
    98  H    0.175087
    99  H    0.191580
   100  O   -0.536284
   101  C    0.586581
   102  N   -0.737018
   103  H    0.391479
   104  H    0.340957
   105  O   -0.530322
   106  N   -0.589152
   107  H    0.346451
   108  C   -0.050611
   109  H    0.163281
   110  C    0.662733
   111  C   -0.369301
   112  H    0.165219
   113  H    0.169372
   114  O   -0.560248
   115  C    0.134314
   116  C   -0.228954
   117  H    0.152306
   118  C   -0.151697
   119  H    0.148280
   120  C   -0.164609
   121  H    0.154630
   122  C   -0.205950
   123  H    0.131958
   124  O   -0.634988
   125  H    0.413415
   126  C    0.345565
   127  N   -0.605027
   128  H    0.360930
   129  C   -0.051300
   130  H    0.205414
   131  C    0.590604
   132  C   -0.282136
   133  H    0.161621
   134  H    0.199438
   135  O   -0.453492
   136  C   -0.282950
   137  H    0.178138
   138  H    0.129379
   139  C   -0.179106
   140  H    0.164308
   141  H    0.201971
   142  N   -0.593632
   143  H    0.329948
   144  N   -0.847338
   145  H    0.429051
   146  H    0.416898
   147  N   -0.791633
   148  H    0.414066
   149  H    0.326196
   150  C    0.769031
   151  O   -0.581272
   152  H    0.420205
 Sum of Mulliken charges =   1.00000

 Dipole moment (field-independent basis, Debye):
    X=             -9.8358    Y=              1.2934    Z=             27.4657  Tot=             29.2024
 Quadrupole moment (field-independent basis, Debye-Ang):
   XX=           -244.6839   YY=           -408.3981   ZZ=           -160.5009
   XY=            -55.0628   XZ=           -161.8726   YZ=             82.3783

 Normal termination of Gaussian 16 at Sun Aug 14 21:13:06 2022.
