 Gaussian 16, Revision C.01,
 Gaussian 16:  ES64L-G16RevC.01  3-Jul-2019

 ----------------------------------------------------------------------
 # B3LYP/6-31G* empiricaldispersion=gd3 guess=read geom=check nosymm in
 tegral(ultrafinegrid)
 ----------------------------------------------------------------------

 ------------------------------------------------------
 Candidate Structure: Conf:876 Charge calc in gas phase
 ------------------------------------------------------
 Structure from the checkpoint file:  "conf-876.chk"
 Charge =  1 Multiplicity = 1

                          Input orientation:
 ---------------------------------------------------------------------
 Center     Atomic      Atomic             Coordinates (Angstroms)
 Number     Number       Type             X           Y           Z
 ---------------------------------------------------------------------
      1          7           0       -3.508372    2.627746    6.379912
      2          1           0       -3.399934    3.115694    7.269989
      3          1           0       -4.364295    2.021605    6.374844
      4          1           0       -2.715930    1.972289    6.265678
      5          6           0       -3.675483    3.546709    5.186342
      6          1           0       -3.803112    4.568019    5.559487
      7          6           0       -4.980665    3.014506    4.541338
      8          6           0       -2.426001    3.443405    4.267051
      9          1           0       -2.381158    2.420400    3.885099
     10          8           0       -5.478854    1.973388    4.990417
     11          6           0       -2.473190    4.385431    3.053176
     12          1           0       -2.690289    5.421804    3.348008
     13          1           0       -1.490350    4.360629    2.578547
     14          1           0       -3.171470    4.058436    2.281249
     15          6           0       -1.126175    3.708525    5.045892
     16          1           0       -1.034678    4.765619    5.325130
     17          1           0       -1.016208    3.106502    5.956082
     18          1           0       -0.301002    3.429724    4.385017
     19          7           0       -5.479411    3.675829    3.483222
     20          1           0       -4.941600    4.455143    3.125682
     21          6           0       -6.248734    2.925063    2.464226
     22          1           0       -6.905086    2.248852    3.013291
     23          6           0       -5.156190    2.127381    1.723638
     24          6           0       -7.108968    3.839304    1.565391
     25          1           0       -7.952981    4.153429    2.195856
     26          8           0       -4.474753    2.661402    0.841724
     27          6           0       -7.677752    3.044984    0.368974
     28          1           0       -6.861566    2.828883   -0.330817
     29          1           0       -8.369676    3.708118   -0.163819
     30          6           0       -6.385832    5.104365    1.073505
     31          1           0       -5.493988    4.849922    0.496146
     32          1           0       -6.100021    5.767598    1.899966
     33          1           0       -7.057956    5.683488    0.432119
     34          6           0       -8.406535    1.745643    0.732695
     35          1           0       -8.881547    1.314115   -0.153887
     36          1           0       -7.722279    0.984852    1.127097
     37          1           0       -9.189645    1.920023    1.480974
     38          7           0       -4.920968    0.879756    2.192464
     39          1           0       -5.491218    0.563180    2.966496
     40          6           0       -3.692518    0.104989    1.927733
     41          1           0       -2.841075    0.801374    1.988244
     42          6           0       -3.627636   -0.529077    0.506657
     43          6           0       -3.552920   -1.008614    2.979599
     44          1           0       -2.815076   -1.708709    2.578034
     45          1           0       -4.493450   -1.573652    3.017241
     46          8           0       -3.137841   -1.647744    0.336706
     47          6           0       -3.133262   -0.606994    4.379412
     48          6           0       -1.862202   -0.058005    4.616308
     49          1           0       -1.225267    0.222845    3.781824
     50          6           0       -3.949819   -0.893063    5.483177
     51          1           0       -4.939539   -1.312684    5.321071
     52          6           0       -1.407066    0.148574    5.923426
     53          1           0       -0.404331    0.537613    6.080256
     54          6           0       -3.502219   -0.685562    6.791555
     55          1           0       -4.144097   -0.946726    7.628697
     56          6           0       -2.217478   -0.181656    7.019426
     57          1           0       -1.847198   -0.058753    8.034252
     58          7           0       -4.072446    0.252303   -0.499267
     59          1           0       -4.206731    1.243366   -0.299257
     60          6           0       -3.919662   -0.121963   -1.907924
     61          1           0       -3.960294   -1.212268   -1.954983
     62          6           0       -2.522914    0.376698   -2.331796
     63          6           0       -5.031437    0.513862   -2.745975
     64          1           0       -4.931053    0.149447   -3.776992
     65          1           0       -4.847997    1.594139   -2.787524
     66          8           0       -2.350314    1.500560   -2.793315
     67          6           0       -6.455556    0.236252   -2.231274
     68          1           0       -6.518537    0.614189   -1.201390
     69          6           0       -7.479203    1.005779   -3.076521
     70          1           0       -7.462160    0.666313   -4.119824
     71          1           0       -7.271100    2.082557   -3.073115
     72          1           0       -8.497079    0.856405   -2.696589
     73          6           0       -6.783981   -1.262751   -2.195265
     74          1           0       -6.682202   -1.709104   -3.192956
     75          1           0       -7.815181   -1.428063   -1.861811
     76          1           0       -6.125081   -1.810311   -1.512001
     77          7           0       -1.505900   -0.486785   -2.048390
     78          1           0       -1.721567   -1.363563   -1.588683
     79          6           0       -0.126729   -0.057689   -2.125654
     80          1           0       -0.143879    0.851717   -2.735260
     81          6           0        0.712996   -1.120175   -2.841105
     82          6           0        0.508093    0.289849   -0.744049
     83          1           0        1.330249    0.992419   -0.914830
     84          1           0        0.951799   -0.609438   -0.296739
     85          8           0        0.266506   -2.222442   -3.157387
     86          6           0       -0.483296    0.905106    0.240193
     87          1           0       -1.061580    1.704398   -0.240130
     88          1           0       -1.207384    0.142289    0.532559
     89          6           0        0.113545    1.489158    1.534365
     90          8           0       -0.713274    1.874856    2.397034
     91          8           0        1.379236    1.549941    1.644757
     92          7           0        2.004265   -0.756747   -3.084989
     93          1           0        2.351623    0.118154   -2.713776
     94          6           0        3.023049   -1.703707   -3.502365
     95          1           0        2.570318   -2.699358   -3.468914
     96          6           0        4.184790   -1.649693   -2.505080
     97          6           0        3.554387   -1.403401   -4.918320
     98          1           0        3.939781   -0.379941   -4.954390
     99          1           0        4.413027   -2.048270   -5.142152
    100          8           0        4.384662   -0.662413   -1.788894
    101          6           0        2.577428   -1.550900   -6.095246
    102          7           0        1.454294   -2.301265   -5.900702
    103          1           0        0.819784   -2.328262   -6.688723
    104          1           0        1.047618   -2.479163   -4.985728
    105          8           0        2.880596   -1.068240   -7.175985
    106          7           0        5.000285   -2.726722   -2.482011
    107          1           0        4.875088   -3.440295   -3.188218
    108          6           0        6.279124   -2.672361   -1.789886
    109          1           0        6.086060   -2.547064   -0.718304
    110          6           0        7.108742   -1.477666   -2.308236
    111          6           0        7.071908   -3.987193   -2.015409
    112          1           0        6.502438   -4.815785   -1.577407
    113          1           0        7.144900   -4.161585   -3.095854
    114          8           0        7.127715   -1.173791   -3.493643
    115          6           0        8.454252   -3.874139   -1.412556
    116          6           0        9.544543   -3.488470   -2.204762
    117          1           0        9.424450   -3.419693   -3.282771
    118          6           0        8.638099   -3.953140   -0.026905
    119          1           0        7.814473   -4.268962    0.609981
    120          6           0       10.761074   -3.126500   -1.633261
    121          1           0       11.592030   -2.789088   -2.243226
    122          6           0        9.848448   -3.587440    0.561297
    123          1           0        9.960766   -3.612902    1.642739
    124          8           0       12.065292   -2.629664    0.274180
    125          1           0       12.040235   -2.697165    1.241937
    126          6           0       10.898243   -3.133046   -0.242430
    127          7           0        7.844217   -0.849232   -1.353337
    128          1           0        7.886066   -1.242579   -0.420300
    129          6           0        8.945916    0.036340   -1.707870
    130          1           0        9.377550   -0.309513   -2.651280
    131          6           0        9.992431   -0.115038   -0.610743
    132          6           0        8.517093    1.510587   -1.895788
    133          1           0        9.422322    2.092227   -2.105923
    134          1           0        7.899620    1.547120   -2.800333
    135          8           0        9.722790   -0.326901    0.555840
    136          6           0        7.762035    2.142066   -0.711440
    137          1           0        8.248623    1.885818    0.237287
    138          1           0        7.821106    3.234637   -0.817569
    139          6           0        6.286756    1.733480   -0.656801
    140          1           0        5.811884    1.892789   -1.635130
    141          1           0        6.195564    0.671658   -0.431527
    142          7           0        5.578209    2.489809    0.382550
    143          1           0        5.883515    3.442087    0.537141
    144          7           0        3.687930    1.114000    0.343353
    145          1           0        2.727560    0.982043    0.712944
    146          1           0        4.022827    0.542691   -0.429185
    147          7           0        3.676172    3.020516    1.628800
    148          1           0        2.738732    2.717098    1.936429
    149          1           0        4.211538    3.640707    2.217605
    150          6           0        4.318487    2.197787    0.774544
    151          8           0       11.241274   -0.001040   -1.082518
    152          1           0       11.850751   -0.262154   -0.362787
 ---------------------------------------------------------------------

 SCF Done:  E(RB3LYP) =  -3586.87695951     A.U. after    2 cycles

 Alpha  occ. eigenvalues --  -19.27094 -19.25463 -19.25283 -19.21836 -19.21500
 Alpha  occ. eigenvalues --  -19.21366 -19.18902 -19.18718 -19.18385 -19.16502
 Alpha  occ. eigenvalues --  -19.15430 -19.14728 -19.14371 -14.56001 -14.48204
 Alpha  occ. eigenvalues --  -14.46080 -14.45813 -14.45116 -14.43955 -14.43254
 Alpha  occ. eigenvalues --  -14.43149 -14.42881 -14.41612 -14.40918 -14.38866
 Alpha  occ. eigenvalues --  -10.42002 -10.41045 -10.39790 -10.38326 -10.37974
 Alpha  occ. eigenvalues --  -10.37780 -10.35854 -10.35821 -10.35397 -10.33617
 Alpha  occ. eigenvalues --  -10.33143 -10.33098 -10.32919 -10.31929 -10.31723
 Alpha  occ. eigenvalues --  -10.31371 -10.31356 -10.31127 -10.30481 -10.30102
 Alpha  occ. eigenvalues --  -10.29181 -10.28682 -10.28518 -10.28354 -10.28292
 Alpha  occ. eigenvalues --  -10.28217 -10.28016 -10.27845 -10.27694 -10.27234
 Alpha  occ. eigenvalues --  -10.27125 -10.27029 -10.26964 -10.26876 -10.26389
 Alpha  occ. eigenvalues --  -10.26324 -10.26125 -10.26089 -10.25911 -10.25738
 Alpha  occ. eigenvalues --  -10.25415 -10.25364 -10.25096 -10.24896 -10.24496
 Alpha  occ. eigenvalues --  -10.23837 -10.23202 -10.23141 -10.22076 -10.22012
 Alpha  occ. eigenvalues --   -1.18281  -1.17696  -1.13374  -1.13306  -1.13018
 Alpha  occ. eigenvalues --   -1.10845  -1.10738  -1.10613  -1.10138  -1.09792
 Alpha  occ. eigenvalues --   -1.09337  -1.08336  -1.07737  -1.06782  -1.04867
 Alpha  occ. eigenvalues --   -1.01804  -1.01597  -1.00169  -0.99932  -0.99877
 Alpha  occ. eigenvalues --   -0.98777  -0.98594  -0.97561  -0.96827  -0.94610
 Alpha  occ. eigenvalues --   -0.93758  -0.92727  -0.91853  -0.89470  -0.88380
 Alpha  occ. eigenvalues --   -0.87532  -0.87167  -0.86101  -0.85514  -0.84078
 Alpha  occ. eigenvalues --   -0.83681  -0.83394  -0.82968  -0.82753  -0.81847
 Alpha  occ. eigenvalues --   -0.80675  -0.80070  -0.79944  -0.78852  -0.77584
 Alpha  occ. eigenvalues --   -0.77506  -0.76404  -0.74573  -0.73787  -0.72967
 Alpha  occ. eigenvalues --   -0.72882  -0.71694  -0.71570  -0.71309  -0.70758
 Alpha  occ. eigenvalues --   -0.70635  -0.70229  -0.69881  -0.69509  -0.69254
 Alpha  occ. eigenvalues --   -0.69104  -0.68347  -0.67792  -0.67461  -0.67028
 Alpha  occ. eigenvalues --   -0.66588  -0.65931  -0.65681  -0.65512  -0.65409
 Alpha  occ. eigenvalues --   -0.64829  -0.64247  -0.63758  -0.63237  -0.63049
 Alpha  occ. eigenvalues --   -0.62859  -0.62067  -0.61656  -0.61434  -0.61162
 Alpha  occ. eigenvalues --   -0.60342  -0.60176  -0.59238  -0.58800  -0.58636
 Alpha  occ. eigenvalues --   -0.58226  -0.57813  -0.57613  -0.57368  -0.57237
 Alpha  occ. eigenvalues --   -0.56781  -0.56508  -0.56092  -0.55928  -0.55704
 Alpha  occ. eigenvalues --   -0.55480  -0.55206  -0.54949  -0.54773  -0.54190
 Alpha  occ. eigenvalues --   -0.53934  -0.53775  -0.53625  -0.53510  -0.53367
 Alpha  occ. eigenvalues --   -0.53104  -0.53018  -0.52808  -0.52285  -0.51872
 Alpha  occ. eigenvalues --   -0.51789  -0.51449  -0.51331  -0.50941  -0.50735
 Alpha  occ. eigenvalues --   -0.50621  -0.50537  -0.50270  -0.50145  -0.49781
 Alpha  occ. eigenvalues --   -0.49721  -0.49583  -0.49343  -0.49291  -0.49178
 Alpha  occ. eigenvalues --   -0.48828  -0.48760  -0.48600  -0.48431  -0.48230
 Alpha  occ. eigenvalues --   -0.48129  -0.48047  -0.47929  -0.47875  -0.47435
 Alpha  occ. eigenvalues --   -0.47263  -0.47057  -0.46773  -0.46639  -0.46538
 Alpha  occ. eigenvalues --   -0.46399  -0.46045  -0.45873  -0.45646  -0.45535
 Alpha  occ. eigenvalues --   -0.45035  -0.44922  -0.44830  -0.44488  -0.44390
 Alpha  occ. eigenvalues --   -0.44193  -0.44008  -0.43876  -0.43742  -0.43383
 Alpha  occ. eigenvalues --   -0.43278  -0.43078  -0.43055  -0.42933  -0.42880
 Alpha  occ. eigenvalues --   -0.42835  -0.42762  -0.42597  -0.42405  -0.42125
 Alpha  occ. eigenvalues --   -0.41719  -0.41474  -0.41251  -0.41037  -0.40936
 Alpha  occ. eigenvalues --   -0.40866  -0.40829  -0.40733  -0.40621  -0.40138
 Alpha  occ. eigenvalues --   -0.39897  -0.39645  -0.39340  -0.39049  -0.38794
 Alpha  occ. eigenvalues --   -0.37423  -0.37230  -0.37219  -0.36248  -0.36141
 Alpha  occ. eigenvalues --   -0.35656  -0.35248  -0.35163  -0.34848  -0.34416
 Alpha  occ. eigenvalues --   -0.34249  -0.33608  -0.33453  -0.33161  -0.32681
 Alpha  occ. eigenvalues --   -0.32492  -0.32279  -0.32094  -0.31375  -0.30792
 Alpha  occ. eigenvalues --   -0.30615  -0.30385  -0.29925  -0.29199  -0.28905
 Alpha  occ. eigenvalues --   -0.28525  -0.28412
 Alpha virt. eigenvalues --   -0.11878  -0.10021  -0.09681  -0.08177  -0.07663
 Alpha virt. eigenvalues --   -0.07206  -0.07186  -0.06792  -0.06236  -0.05634
 Alpha virt. eigenvalues --   -0.05194  -0.04680  -0.04398  -0.02354  -0.02156

 Mulliken charges:
               1
     1  N   -0.786056
     2  H    0.399287
     3  H    0.429831
     4  H    0.423827
     5  C   -0.093600
     6  H    0.196151
     7  C    0.635235
     8  C   -0.107683
     9  H    0.215410
    10  O   -0.542773
    11  C   -0.504614
    12  H    0.131630
    13  H    0.205678
    14  H    0.191060
    15  C   -0.476988
    16  H    0.148905
    17  H    0.113787
    18  H    0.218903
    19  N   -0.594245
    20  H    0.367215
    21  C   -0.073934
    22  H    0.187141
    23  C    0.629908
    24  C   -0.080421
    25  H    0.145572
    26  O   -0.549274
    27  C   -0.281103
    28  H    0.169119
    29  H    0.153419
    30  C   -0.491445
    31  H    0.195892
    32  H    0.130983
    33  H    0.168310
    34  C   -0.466282
    35  H    0.172596
    36  H    0.138680
    37  H    0.149501
    38  N   -0.597587
    39  H    0.357067
    40  C   -0.098831
    41  H    0.235756
    42  C    0.640776
    43  C   -0.408983
    44  H    0.220331
    45  H    0.159016
    46  O   -0.547367
    47  C    0.161224
    48  C   -0.184594
    49  H    0.206861
    50  C   -0.175604
    51  H    0.145616
    52  C   -0.200256
    53  H    0.159691
    54  C   -0.153131
    55  H    0.153312
    56  C   -0.178232
    57  H    0.149105
    58  N   -0.627340
    59  H    0.394436
    60  C   -0.071337
    61  H    0.177693
    62  C    0.627487
    63  C   -0.278765
    64  H    0.149435
    65  H    0.164595
    66  O   -0.531441
    67  C   -0.080791
    68  H    0.127968
    69  C   -0.447630
    70  H    0.149767
    71  H    0.142905
    72  H    0.141515
    73  C   -0.454940
    74  H    0.147030
    75  H    0.142683
    76  H    0.151626
    77  N   -0.593125
    78  H    0.357190
    79  C   -0.069186
    80  H    0.204961
    81  C    0.618592
    82  C   -0.284058
    83  H    0.139380
    84  H    0.145350
    85  O   -0.534675
    86  C   -0.387743
    87  H    0.182472
    88  H    0.160124
    89  C    0.589411
    90  O   -0.571820
    91  O   -0.612018
    92  N   -0.582361
    93  H    0.342260
    94  C   -0.112393
    95  H    0.190877
    96  C    0.656578
    97  C   -0.350851
    98  H    0.187347
    99  H    0.184421
   100  O   -0.564309
   101  C    0.583688
   102  N   -0.780537
   103  H    0.341352
   104  H    0.380960
   105  O   -0.498836
   106  N   -0.597726
   107  H    0.350251
   108  C   -0.023015
   109  H    0.162381
   110  C    0.631494
   111  C   -0.391806
   112  H    0.171794
   113  H    0.171577
   114  O   -0.533173
   115  C    0.147588
   116  C   -0.183909
   117  H    0.155589
   118  C   -0.208755
   119  H    0.136895
   120  C   -0.164860
   121  H    0.159636
   122  C   -0.168666
   123  H    0.137431
   124  O   -0.655724
   125  H    0.418567
   126  C    0.345467
   127  N   -0.615742
   128  H    0.356233
   129  C   -0.005216
   130  H    0.197571
   131  C    0.594296
   132  C   -0.293646
   133  H    0.169711
   134  H    0.184473
   135  O   -0.487196
   136  C   -0.308849
   137  H    0.175056
   138  H    0.144125
   139  C   -0.126874
   140  H    0.171564
   141  H    0.194555
   142  N   -0.623389
   143  H    0.339698
   144  N   -0.845026
   145  H    0.425951
   146  H    0.425902
   147  N   -0.791460
   148  H    0.403797
   149  H    0.342713
   150  C    0.786186
   151  O   -0.565379
   152  H    0.428175
 Sum of Mulliken charges =   1.00000

 Dipole moment (field-independent basis, Debye):
    X=              3.1066    Y=              8.9979    Z=             22.8028  Tot=             24.7099
 Quadrupole moment (field-independent basis, Debye-Ang):
   XX=           -205.2349   YY=           -372.9683   ZZ=           -353.9843
   XY=            -43.9934   XZ=            -41.5393   YZ=             63.7409

 Normal termination of Gaussian 16 at Sun Aug 14 21:11:01 2022.
