 Gaussian 16, Revision C.01,
 Gaussian 16:  ES64L-G16RevC.01  3-Jul-2019

 ----------------------------------------------------------------------
 # B3LYP/6-31G* empiricaldispersion=gd3 guess=read geom=check nosymm in
 tegral(ultrafinegrid)
 ----------------------------------------------------------------------

 ------------------------------------------------------
 Candidate Structure: Conf:538 Charge calc in gas phase
 ------------------------------------------------------
 Structure from the checkpoint file:  "conf-538.chk"
 Charge =  1 Multiplicity = 1

                          Input orientation:
 ---------------------------------------------------------------------
 Center     Atomic      Atomic             Coordinates (Angstroms)
 Number     Number       Type             X           Y           Z
 ---------------------------------------------------------------------
      1          7           0      -11.303968    2.051028    5.109957
      2          1           0      -11.791385    1.157055    5.002468
      3          1           0      -10.780064    2.038203    6.035041
      4          1           0      -11.992301    2.806466    5.069856
      5          6           0      -10.162405    2.226956    4.123026
      6          1           0      -10.352981    1.586238    3.257749
      7          6           0       -8.954117    1.729369    4.964390
      8          6           0      -10.054233    3.709287    3.685333
      9          1           0       -9.883560    4.302060    4.595785
     10          8           0       -9.083359    1.746104    6.199700
     11          6           0       -8.861866    3.916709    2.735291
     12          1           0       -8.959709    3.293323    1.837573
     13          1           0       -8.840887    4.959440    2.406013
     14          1           0       -7.896774    3.697361    3.195505
     15          6           0      -11.350202    4.184222    3.003147
     16          1           0      -11.562843    3.589231    2.107186
     17          1           0      -12.238939    4.153325    3.648826
     18          1           0      -11.241090    5.227072    2.692521
     19          7           0       -7.888102    1.313703    4.296677
     20          1           0       -7.812125    1.450695    3.288708
     21          6           0       -6.588179    1.002344    4.902529
     22          1           0       -6.587665    1.395486    5.923837
     23          6           0       -5.585828    1.756003    4.003255
     24          6           0       -6.325103   -0.534038    4.933768
     25          1           0       -6.299962   -0.872657    3.887497
     26          8           0       -5.893989    1.996137    2.831224
     27          6           0       -7.480486   -1.258184    5.656308
     28          1           0       -8.433753   -0.946507    5.211613
     29          1           0       -7.508854   -0.930851    6.704911
     30          6           0       -4.961442   -0.841241    5.572000
     31          1           0       -4.901222   -0.418691    6.585490
     32          1           0       -4.135862   -0.468634    4.961302
     33          1           0       -4.820978   -1.920878    5.665071
     34          6           0       -7.397740   -2.787486    5.584162
     35          1           0       -8.295602   -3.241641    6.017088
     36          1           0       -7.316639   -3.129117    4.545065
     37          1           0       -6.537488   -3.182002    6.132704
     38          7           0       -4.413352    2.136152    4.549109
     39          1           0       -4.167534    1.751217    5.452252
     40          6           0       -3.303488    2.532974    3.677719
     41          1           0       -3.621093    3.412876    3.111088
     42          6           0       -2.989956    1.368810    2.714198
     43          6           0       -2.063276    2.871346    4.527688
     44          1           0       -1.822238    1.995806    5.143733
     45          1           0       -2.322738    3.695378    5.204866
     46          8           0       -2.996789    0.207863    3.129425
     47          6           0       -0.876289    3.229983    3.659307
     48          6           0        0.186474    2.332796    3.498328
     49          1           0        0.172654    1.387205    4.035913
     50          6           0       -0.857463    4.437898    2.949016
     51          1           0       -1.676127    5.145932    3.068996
     52          6           0        1.255966    2.640124    2.655482
     53          1           0        2.097777    1.965925    2.535596
     54          6           0        0.199806    4.739030    2.089632
     55          1           0        0.195239    5.673906    1.535930
     56          6           0        1.260394    3.842397    1.946174
     57          1           0        2.098727    4.058887    1.292523
     58          7           0       -2.723145    1.728222    1.449182
     59          1           0       -2.568607    2.703320    1.206074
     60          6           0       -2.304675    0.792714    0.418582
     61          1           0       -1.847779   -0.073376    0.905755
     62          6           0       -1.274863    1.540831   -0.445671
     63          6           0       -3.489144    0.355237   -0.475582
     64          1           0       -3.101915   -0.306598   -1.263725
     65          1           0       -3.862395    1.257310   -0.978766
     66          8           0       -1.289794    2.771236   -0.512415
     67          6           0       -4.653177   -0.342957    0.252275
     68          1           0       -4.969118    0.304855    1.080113
     69          6           0       -5.842711   -0.492141   -0.708431
     70          1           0       -5.578585   -1.120528   -1.568913
     71          1           0       -6.172915    0.480284   -1.093953
     72          1           0       -6.695683   -0.965047   -0.205656
     73          6           0       -4.246383   -1.705604    0.830157
     74          1           0       -3.889152   -2.376295    0.037192
     75          1           0       -5.105733   -2.192431    1.309357
     76          1           0       -3.465731   -1.600175    1.587290
     77          7           0       -0.415427    0.756546   -1.125948
     78          1           0       -0.556019   -0.247412   -1.168373
     79          6           0        0.521175    1.287845   -2.107539
     80          1           0       -0.028991    1.959466   -2.783234
     81          6           0        0.985514    0.084224   -2.951528
     82          6           0        1.656754    2.096626   -1.456528
     83          1           0        1.188470    2.905139   -0.887543
     84          1           0        2.255237    2.580044   -2.237496
     85          8           0        0.351469   -0.971133   -2.955375
     86          6           0        2.578230    1.273888   -0.546591
     87          1           0        2.041901    0.954815    0.349795
     88          1           0        2.943418    0.387373   -1.077479
     89          6           0        3.811908    2.094162   -0.164687
     90          8           0        4.541688    2.479711   -1.123620
     91          8           0        4.004611    2.338859    1.064849
     92          7           0        2.085155    0.303400   -3.720272
     93          1           0        2.723785    1.033704   -3.423745
     94          6           0        2.724701   -0.773116   -4.458604
     95          1           0        2.040922   -1.625163   -4.417762
     96          6           0        4.049214   -1.122706   -3.745798
     97          6           0        2.966630   -0.304879   -5.917103
     98          1           0        2.028425    0.134789   -6.278573
     99          1           0        3.724385    0.482585   -5.931431
    100          8           0        4.500994   -0.391924   -2.868637
    101          6           0        3.418212   -1.332242   -6.954083
    102          7           0        3.049631   -2.645232   -6.712079
    103          1           0        3.279424   -3.305055   -7.446779
    104          1           0        2.206958   -2.846004   -6.189190
    105          8           0        4.085030   -1.017546   -7.921838
    106          7           0        4.705633   -2.241172   -4.170409
    107          1           0        4.389740   -2.667472   -5.039811
    108          6           0        6.134894   -2.277575   -3.920998
    109          1           0        6.295064   -2.273798   -2.837211
    110          6           0        6.768779   -0.989024   -4.492109
    111          6           0        6.788995   -3.555871   -4.511105
    112          1           0        7.876986   -3.422250   -4.456148
    113          1           0        6.537721   -4.392490   -3.850285
    114          8           0        6.268824   -0.364062   -5.418485
    115          6           0        6.364812   -3.892666   -5.925985
    116          6           0        5.557810   -5.011112   -6.174966
    117          1           0        5.269833   -5.657088   -5.348505
    118          6           0        6.722807   -3.082667   -7.013813
    119          1           0        7.340863   -2.205134   -6.858451
    120          6           0        5.110323   -5.317222   -7.459161
    121          1           0        4.491917   -6.188581   -7.651026
    122          6           0        6.270882   -3.365979   -8.298209
    123          1           0        6.524068   -2.700621   -9.119758
    124          8           0        4.962651   -4.798568   -9.760490
    125          1           0        5.240237   -4.120758  -10.396554
    126          6           0        5.457634   -4.482029   -8.526174
    127          7           0        7.935916   -0.617551   -3.894979
    128          1           0        8.302395   -1.167740   -3.130331
    129          6           0        8.664857    0.560805   -4.314445
    130          1           0        7.999278    1.066223   -5.026267
    131          6           0        9.930820    0.219158   -5.103582
    132          6           0        8.978625    1.502550   -3.144599
    133          1           0        9.662409    0.994321   -2.448580
    134          1           0        9.537633    2.354507   -3.546292
    135          8           0       10.909093    0.928725   -5.169585
    136          6           0        7.725987    1.971921   -2.394512
    137          1           0        7.007596    2.427692   -3.086261
    138          1           0        7.201871    1.124274   -1.940009
    139          6           0        8.110841    2.983936   -1.310515
    140          1           0        8.925248    2.566842   -0.698219
    141          1           0        8.500291    3.894944   -1.791867
    142          7           0        6.975282    3.298405   -0.452139
    143          1           0        5.994255    2.974392   -0.734770
    144          7           0        8.219031    4.630517    1.020542
    145          1           0        8.439081    4.760983    1.996967
    146          1           0        9.009169    4.596815    0.395090
    147          7           0        6.054716    3.962387    1.551806
    148          1           0        6.025261    4.660265    2.280371
    149          1           0        5.206935    3.336826    1.372682
    150          6           0        7.077514    3.951844    0.697302
    151          8           0        9.824072   -0.959544   -5.761056
    152          1           0       10.646879   -1.061884   -6.276125
 ---------------------------------------------------------------------

 SCF Done:  E(RB3LYP) =  -3586.84423875     A.U. after    2 cycles

 Alpha  occ. eigenvalues --  -19.26245 -19.24679 -19.21387 -19.21378 -19.18868
 Alpha  occ. eigenvalues --  -19.17057 -19.16540 -19.16018 -19.15964 -19.15938
 Alpha  occ. eigenvalues --  -19.15092 -19.12264 -19.11932 -14.59670 -14.48883
 Alpha  occ. eigenvalues --  -14.44963 -14.43385 -14.41161 -14.40906 -14.40267
 Alpha  occ. eigenvalues --  -14.40077 -14.40016 -14.39652 -14.39519 -14.39183
 Alpha  occ. eigenvalues --  -10.43009 -10.40299 -10.38170 -10.37792 -10.36874
 Alpha  occ. eigenvalues --  -10.34296 -10.34164 -10.33495 -10.33448 -10.33004
 Alpha  occ. eigenvalues --  -10.32995 -10.32877 -10.32689 -10.31100 -10.30400
 Alpha  occ. eigenvalues --  -10.29764 -10.29309 -10.28795 -10.28540 -10.28337
 Alpha  occ. eigenvalues --  -10.28115 -10.28088 -10.27860 -10.27818 -10.27352
 Alpha  occ. eigenvalues --  -10.26215 -10.25998 -10.24591 -10.24328 -10.24294
 Alpha  occ. eigenvalues --  -10.24228 -10.24118 -10.23663 -10.23596 -10.23243
 Alpha  occ. eigenvalues --  -10.23051 -10.23035 -10.22929 -10.22875 -10.22721
 Alpha  occ. eigenvalues --  -10.22671 -10.22403 -10.22310 -10.22208 -10.21989
 Alpha  occ. eigenvalues --  -10.21894 -10.21790 -10.21541 -10.20936 -10.19637
 Alpha  occ. eigenvalues --   -1.18801  -1.15438  -1.13720  -1.13163  -1.09411
 Alpha  occ. eigenvalues --   -1.09083  -1.08905  -1.08421  -1.07642  -1.07195
 Alpha  occ. eigenvalues --   -1.06972  -1.06597  -1.06448  -1.05579  -1.04989
 Alpha  occ. eigenvalues --   -1.01284  -0.97823  -0.97699  -0.97090  -0.96653
 Alpha  occ. eigenvalues --   -0.96600  -0.96479  -0.95740  -0.94989  -0.94190
 Alpha  occ. eigenvalues --   -0.94080  -0.90325  -0.89646  -0.89033  -0.86255
 Alpha  occ. eigenvalues --   -0.85919  -0.85436  -0.84810  -0.83891  -0.82658
 Alpha  occ. eigenvalues --   -0.82358  -0.81118  -0.80984  -0.80204  -0.79505
 Alpha  occ. eigenvalues --   -0.78657  -0.78324  -0.78023  -0.77541  -0.76542
 Alpha  occ. eigenvalues --   -0.74903  -0.74696  -0.73649  -0.73555  -0.72325
 Alpha  occ. eigenvalues --   -0.72212  -0.71872  -0.71791  -0.71147  -0.69942
 Alpha  occ. eigenvalues --   -0.69539  -0.69055  -0.68451  -0.67666  -0.66758
 Alpha  occ. eigenvalues --   -0.66209  -0.65984  -0.65845  -0.65201  -0.64449
 Alpha  occ. eigenvalues --   -0.64360  -0.64229  -0.63789  -0.63333  -0.63154
 Alpha  occ. eigenvalues --   -0.62904  -0.62596  -0.62123  -0.61918  -0.61595
 Alpha  occ. eigenvalues --   -0.61277  -0.60926  -0.60590  -0.59785  -0.58789
 Alpha  occ. eigenvalues --   -0.58632  -0.58273  -0.57932  -0.57803  -0.57427
 Alpha  occ. eigenvalues --   -0.57002  -0.56463  -0.55931  -0.55724  -0.55449
 Alpha  occ. eigenvalues --   -0.55338  -0.54906  -0.54714  -0.54269  -0.53822
 Alpha  occ. eigenvalues --   -0.53772  -0.53367  -0.53055  -0.52636  -0.52370
 Alpha  occ. eigenvalues --   -0.52127  -0.52075  -0.51944  -0.51769  -0.51501
 Alpha  occ. eigenvalues --   -0.51386  -0.51193  -0.50928  -0.50667  -0.50511
 Alpha  occ. eigenvalues --   -0.50128  -0.49905  -0.49549  -0.49436  -0.49007
 Alpha  occ. eigenvalues --   -0.48923  -0.48493  -0.48434  -0.48421  -0.48101
 Alpha  occ. eigenvalues --   -0.47952  -0.47718  -0.47624  -0.47513  -0.47386
 Alpha  occ. eigenvalues --   -0.47132  -0.46939  -0.46846  -0.46759  -0.46559
 Alpha  occ. eigenvalues --   -0.46268  -0.46044  -0.45844  -0.45618  -0.45417
 Alpha  occ. eigenvalues --   -0.45368  -0.45251  -0.45159  -0.44840  -0.44828
 Alpha  occ. eigenvalues --   -0.44612  -0.44531  -0.44377  -0.44211  -0.43765
 Alpha  occ. eigenvalues --   -0.43688  -0.43640  -0.43236  -0.43027  -0.42934
 Alpha  occ. eigenvalues --   -0.42772  -0.42684  -0.42568  -0.42379  -0.42294
 Alpha  occ. eigenvalues --   -0.42276  -0.41724  -0.41669  -0.41196  -0.41036
 Alpha  occ. eigenvalues --   -0.40961  -0.40511  -0.40331  -0.40278  -0.40088
 Alpha  occ. eigenvalues --   -0.40071  -0.39615  -0.39501  -0.39214  -0.38979
 Alpha  occ. eigenvalues --   -0.38920  -0.38304  -0.38194  -0.38015  -0.37707
 Alpha  occ. eigenvalues --   -0.37174  -0.36965  -0.36815  -0.36692  -0.36669
 Alpha  occ. eigenvalues --   -0.36646  -0.36230  -0.35928  -0.35355  -0.34821
 Alpha  occ. eigenvalues --   -0.33882  -0.33657  -0.31940  -0.31338  -0.31287
 Alpha  occ. eigenvalues --   -0.30903  -0.30742  -0.30482  -0.30362  -0.29785
 Alpha  occ. eigenvalues --   -0.29651  -0.29442  -0.29287  -0.29008  -0.28636
 Alpha  occ. eigenvalues --   -0.28513  -0.28082  -0.27950  -0.27652  -0.26716
 Alpha  occ. eigenvalues --   -0.26292  -0.25464
 Alpha virt. eigenvalues --   -0.12100  -0.10769  -0.07498  -0.06301  -0.04397
 Alpha virt. eigenvalues --   -0.04198  -0.04093  -0.04059  -0.03955  -0.03351
 Alpha virt. eigenvalues --   -0.03265  -0.02800  -0.02610  -0.02340  -0.01591

 Mulliken charges:
               1
     1  N   -0.758268
     2  H    0.415706
     3  H    0.431770
     4  H    0.408515
     5  C   -0.107113
     6  H    0.205087
     7  C    0.646637
     8  C   -0.107865
     9  H    0.169706
    10  O   -0.545060
    11  C   -0.479899
    12  H    0.167011
    13  H    0.186429
    14  H    0.193701
    15  C   -0.473767
    16  H    0.176817
    17  H    0.137608
    18  H    0.202304
    19  N   -0.588590
    20  H    0.374555
    21  C   -0.094306
    22  H    0.185651
    23  C    0.652470
    24  C   -0.067844
    25  H    0.152289
    26  O   -0.546388
    27  C   -0.248064
    28  H    0.108386
    29  H    0.146463
    30  C   -0.516051
    31  H    0.130734
    32  H    0.215888
    33  H    0.172034
    34  C   -0.452535
    35  H    0.150670
    36  H    0.152225
    37  H    0.164796
    38  N   -0.598308
    39  H    0.346230
    40  C   -0.038901
    41  H    0.171122
    42  C    0.650463
    43  C   -0.386897
    44  H    0.160277
    45  H    0.162101
    46  O   -0.550263
    47  C    0.157787
    48  C   -0.184847
    49  H    0.130380
    50  C   -0.197129
    51  H    0.114778
    52  C   -0.143274
    53  H    0.177508
    54  C   -0.111535
    55  H    0.132913
    56  C   -0.136124
    57  H    0.150717
    58  N   -0.588606
    59  H    0.361459
    60  C   -0.072848
    61  H    0.178518
    62  C    0.632749
    63  C   -0.253510
    64  H    0.142451
    65  H    0.142986
    66  O   -0.545923
    67  C   -0.083295
    68  H    0.151453
    69  C   -0.441215
    70  H    0.146045
    71  H    0.136106
    72  H    0.123605
    73  C   -0.462154
    74  H    0.134579
    75  H    0.123504
    76  H    0.182670
    77  N   -0.616223
    78  H    0.354143
    79  C   -0.026702
    80  H    0.182732
    81  C    0.586109
    82  C   -0.322423
    83  H    0.187195
    84  H    0.158843
    85  O   -0.539182
    86  C   -0.338193
    87  H    0.143642
    88  H    0.174183
    89  C    0.603930
    90  O   -0.600919
    91  O   -0.601017
    92  N   -0.595300
    93  H    0.368398
    94  C   -0.113848
    95  H    0.180208
    96  C    0.635024
    97  C   -0.359511
    98  H    0.183076
    99  H    0.209112
   100  O   -0.517019
   101  C    0.582571
   102  N   -0.777723
   103  H    0.361226
   104  H    0.339912
   105  O   -0.483606
   106  N   -0.619092
   107  H    0.391039
   108  C   -0.054970
   109  H    0.165877
   110  C    0.662264
   111  C   -0.373999
   112  H    0.162132
   113  H    0.161168
   114  O   -0.531159
   115  C    0.122151
   116  C   -0.183879
   117  H    0.129911
   118  C   -0.169639
   119  H    0.162959
   120  C   -0.183087
   121  H    0.142519
   122  C   -0.170541
   123  H    0.137613
   124  O   -0.645211
   125  H    0.414434
   126  C    0.337080
   127  N   -0.605696
   128  H    0.329088
   129  C   -0.064610
   130  H    0.223945
   131  C    0.593759
   132  C   -0.281252
   133  H    0.135604
   134  H    0.173447
   135  O   -0.458474
   136  C   -0.293600
   137  H    0.177917
   138  H    0.183579
   139  C   -0.135758
   140  H    0.144331
   141  H    0.153090
   142  N   -0.643101
   143  H    0.442034
   144  N   -0.771488
   145  H    0.352300
   146  H    0.361244
   147  N   -0.808487
   148  H    0.333447
   149  H    0.434663
   150  C    0.774534
   151  O   -0.562005
   152  H    0.418000
 Sum of Mulliken charges =   1.00000

 Dipole moment (field-independent basis, Debye):
    X=            -28.0438    Y=              9.9004    Z=             17.3736  Tot=             34.4429
 Quadrupole moment (field-independent basis, Debye-Ang):
   XX=            147.5387   YY=           -378.2072   ZZ=           -334.3569
   XY=            -70.2250   XZ=           -185.9846   YZ=             66.3994

 Normal termination of Gaussian 16 at Sun Aug 14 21:11:29 2022.
