 Gaussian 16, Revision C.01,
 Gaussian 16:  ES64L-G16RevC.01  3-Jul-2019

 ----------------------------------------------------------------------
 # B3LYP/6-31G* empiricaldispersion=gd3 guess=read geom=check nosymm in
 tegral(ultrafinegrid)
 ----------------------------------------------------------------------

 ------------------------------------------------------
 Candidate Structure: Conf:102 Charge calc in gas phase
 ------------------------------------------------------
 Structure from the checkpoint file:  "conf-102.chk"
 Charge =  1 Multiplicity = 1

                          Input orientation:
 ---------------------------------------------------------------------
 Center     Atomic      Atomic             Coordinates (Angstroms)
 Number     Number       Type             X           Y           Z
 ---------------------------------------------------------------------
      1          7           0       -5.842537   -1.676184    7.421031
      2          1           0       -6.811082   -1.854550    7.143100
      3          1           0       -5.209091   -2.400099    6.946710
      4          1           0       -5.780211   -1.718467    8.440498
      5          6           0       -5.278289   -0.395355    6.833070
      6          1           0       -6.110578    0.253151    6.546319
      7          6           0       -4.518631   -0.946787    5.591853
      8          6           0       -4.372240    0.314610    7.868392
      9          1           0       -3.590407   -0.403317    8.156929
     10          8           0       -4.227558   -2.158376    5.608441
     11          6           0       -3.692261    1.550587    7.255300
     12          1           0       -4.434389    2.264064    6.875822
     13          1           0       -3.109773    2.062685    8.026546
     14          1           0       -3.013699    1.297708    6.438551
     15          6           0       -5.174124    0.725021    9.116668
     16          1           0       -5.969077    1.433148    8.854563
     17          1           0       -5.636843   -0.116414    9.650391
     18          1           0       -4.513256    1.215944    9.836693
     19          7           0       -4.243675   -0.092889    4.626253
     20          1           0       -4.475326    0.902618    4.675001
     21          6           0       -3.469579   -0.405896    3.420354
     22          1           0       -2.658414   -1.084137    3.695645
     23          6           0       -2.924226    0.969216    2.982828
     24          6           0       -4.385306   -1.081585    2.353310
     25          1           0       -4.961460   -1.825219    2.923052
     26          8           0       -3.499751    1.995430    3.380384
     27          6           0       -3.597059   -1.849263    1.276608
     28          1           0       -2.951615   -1.160575    0.724388
     29          1           0       -4.337453   -2.226866    0.558443
     30          6           0       -5.359110   -0.074321    1.725191
     31          1           0       -4.825101    0.622556    1.071627
     32          1           0       -5.893811    0.510690    2.482445
     33          1           0       -6.103110   -0.603285    1.119925
     34          6           0       -2.762414   -3.018482    1.810212
     35          1           0       -2.423741   -3.651030    0.983444
     36          1           0       -1.857535   -2.671244    2.315727
     37          1           0       -3.343415   -3.645134    2.499184
     38          7           0       -1.845713    0.955536    2.195714
     39          1           0       -1.419738    0.079058    1.845115
     40          6           0       -1.363124    2.147570    1.524408
     41          1           0       -1.755773    3.020172    2.057161
     42          6           0       -1.983878    2.179070    0.106743
     43          6           0        0.190674    2.111832    1.612797
     44          1           0        0.512460    1.123417    1.275248
     45          1           0        0.413695    2.174577    2.684900
     46          8           0       -2.812694    1.342837   -0.257915
     47          6           0        0.996016    3.163249    0.882444
     48          6           0        1.747694    2.786673   -0.241091
     49          1           0        1.666175    1.762051   -0.591215
     50          6           0        1.076460    4.490494    1.333847
     51          1           0        0.498973    4.797278    2.203790
     52          6           0        2.602856    3.697578   -0.861782
     53          1           0        3.189768    3.368989   -1.714086
     54          6           0        1.916603    5.410013    0.701574
     55          1           0        1.981651    6.428968    1.073053
     56          6           0        2.698666    5.008759   -0.385792
     57          1           0        3.389444    5.715113   -0.843087
     58          7           0       -1.623631    3.221296   -0.692057
     59          1           0       -0.820461    3.780865   -0.429719
     60          6           0       -2.099616    3.329551   -2.076934
     61          1           0       -3.143076    3.004509   -2.077672
     62          6           0       -1.246883    2.341801   -2.894741
     63          6           0       -1.979733    4.772555   -2.566982
     64          1           0       -0.935530    5.092759   -2.467222
     65          1           0       -2.566724    5.407600   -1.891295
     66          8           0       -0.193507    2.713451   -3.451013
     67          6           0       -2.445031    4.999532   -4.018630
     68          1           0       -1.937651    4.262019   -4.656833
     69          6           0       -3.959241    4.799303   -4.176746
     70          1           0       -4.511687    5.504903   -3.543432
     71          1           0       -4.276192    3.785599   -3.905808
     72          1           0       -4.267070    4.971164   -5.213847
     73          6           0       -2.019028    6.396906   -4.489978
     74          1           0       -2.476969    7.174893   -3.866129
     75          1           0       -2.330263    6.574323   -5.525196
     76          1           0       -0.930703    6.518401   -4.437483
     77          7           0       -1.654874    1.058017   -2.874222
     78          1           0       -2.472166    0.909083   -2.287599
     79          6           0       -0.732294   -0.104265   -2.859712
     80          1           0        0.153043    0.213689   -2.284033
     81          6           0       -0.082328   -0.556700   -4.172880
     82          6           0       -1.374007   -1.286541   -2.102329
     83          1           0       -1.818254   -1.983714   -2.819334
     84          1           0       -2.175085   -0.907447   -1.458632
     85          8           0        0.296149   -1.716612   -4.290302
     86          6           0       -0.357877   -2.030430   -1.208486
     87          1           0       -0.863259   -2.874472   -0.730824
     88          1           0        0.455944   -2.407981   -1.832345
     89          6           0        0.185141   -1.075108   -0.133061
     90          8           0        1.159844   -0.335210   -0.474852
     91          8           0       -0.420816   -1.043043    0.972979
     92          7           0        0.268120    0.426073   -5.081524
     93          1           0        0.109446    1.367546   -4.715615
     94          6           0        1.634989    0.301289   -5.627870
     95          1           0        1.798321   -0.754681   -5.843751
     96          6           0        2.511350    0.768950   -4.460782
     97          6           0        1.824034    1.158053   -6.898985
     98          1           0        1.762301    0.508250   -7.779456
     99          1           0        0.998235    1.864186   -6.987687
    100          8           0        2.672104    1.973612   -4.237767
    101          6           0        3.113392    1.973691   -7.021831
    102          7           0        4.289742    1.354466   -6.775526
    103          1           0        5.106082    1.953026   -6.751232
    104          1           0        4.360264    0.561899   -6.146724
    105          8           0        3.069820    3.143483   -7.437556
    106          7           0        2.998652   -0.199841   -3.659909
    107          1           0        2.706463   -1.159488   -3.796164
    108          6           0        3.768799    0.165338   -2.484730
    109          1           0        3.144690    0.804504   -1.854627
    110          6           0        4.996444    0.977166   -2.962611
    111          6           0        4.149868   -1.075934   -1.644213
    112          1           0        3.210265   -1.563249   -1.362631
    113          1           0        4.750506   -1.762049   -2.252868
    114          8           0        5.526895    0.787650   -4.054997
    115          6           0        4.909943   -0.611733   -0.421597
    116          6           0        6.310287   -0.608488   -0.399967
    117          1           0        6.861102   -1.108798   -1.192723
    118          6           0        4.218802    0.039042    0.611196
    119          1           0        3.130792    0.022050    0.611909
    120          6           0        7.015727    0.086953    0.579175
    121          1           0        8.099085    0.138783    0.566544
    122          6           0        4.914099    0.751569    1.588781
    123          1           0        4.368209    1.298795    2.355420
    124          8           0        7.045861    1.626925    2.375638
    125          1           0        6.468886    1.964379    3.079214
    126          6           0        6.309687    0.806834    1.544101
    127          7           0        5.400782    1.940562   -2.093553
    128          1           0        4.989591    1.979076   -1.168480
    129          6           0        6.513431    2.843683   -2.372028
    130          1           0        7.106341    2.394638   -3.170019
    131          6           0        7.397623    2.901111   -1.128258
    132          6           0        6.001035    4.237577   -2.805198
    133          1           0        5.452656    4.678319   -1.962052
    134          1           0        6.861872    4.888855   -3.004321
    135          8           0        8.559904    2.580342   -1.084816
    136          6           0        5.085254    4.125727   -4.030511
    137          1           0        5.657464    3.764308   -4.894175
    138          1           0        4.320638    3.370590   -3.841911
    139          6           0        4.368573    5.429839   -4.407287
    140          1           0        4.002897    5.955567   -3.518277
    141          1           0        5.036254    6.135110   -4.910938
    142          7           0        3.235202    5.189696   -5.311791
    143          1           0        3.478919    4.870367   -6.247852
    144          7           0        1.601660    4.910271   -3.636668
    145          1           0        0.888492    4.232463   -3.350888
    146          1           0        2.276257    5.115689   -2.917156
    147          7           0        1.136164    4.362564   -5.827486
    148          1           0        0.308512    3.904605   -5.466279
    149          1           0        1.542243    3.977194   -6.684253
    150          6           0        2.019387    4.789454   -4.907533
    151          8           0        6.685954    3.329096   -0.056458
    152          1           0        7.210488    3.144169    0.751038
 ---------------------------------------------------------------------

 SCF Done:  E(RB3LYP) =  -3586.88500612     A.U. after    1 cycles

 Alpha  occ. eigenvalues --  -19.25047 -19.24906 -19.24225 -19.21915 -19.19942
 Alpha  occ. eigenvalues --  -19.19753 -19.19618 -19.19237 -19.18968 -19.18645
 Alpha  occ. eigenvalues --  -19.17833 -19.12742 -19.12536 -14.58364 -14.47213
 Alpha  occ. eigenvalues --  -14.45591 -14.44160 -14.44112 -14.44063 -14.43987
 Alpha  occ. eigenvalues --  -14.43359 -14.42546 -14.42301 -14.41673 -14.41551
 Alpha  occ. eigenvalues --  -10.41531 -10.41275 -10.39197 -10.37765 -10.37706
 Alpha  occ. eigenvalues --  -10.37415 -10.36573 -10.35854 -10.35847 -10.35388
 Alpha  occ. eigenvalues --  -10.34960 -10.33539 -10.31529 -10.31347 -10.31200
 Alpha  occ. eigenvalues --  -10.30925 -10.30592 -10.30419 -10.30358 -10.30289
 Alpha  occ. eigenvalues --  -10.29936 -10.29418 -10.29402 -10.28883 -10.27550
 Alpha  occ. eigenvalues --  -10.26669 -10.26585 -10.26454 -10.26303 -10.26229
 Alpha  occ. eigenvalues --  -10.26229 -10.26198 -10.26028 -10.25982 -10.25519
 Alpha  occ. eigenvalues --  -10.24963 -10.24917 -10.24896 -10.24408 -10.24252
 Alpha  occ. eigenvalues --  -10.24120 -10.24030 -10.23917 -10.23653 -10.23616
 Alpha  occ. eigenvalues --  -10.23604 -10.23036 -10.22623 -10.21331 -10.21305
 Alpha  occ. eigenvalues --   -1.17466  -1.15914  -1.13110  -1.12179  -1.11810
 Alpha  occ. eigenvalues --   -1.11734  -1.11561  -1.11125  -1.10575  -1.10290
 Alpha  occ. eigenvalues --   -1.09944  -1.09368  -1.07197  -1.05498  -1.03923
 Alpha  occ. eigenvalues --   -1.01008  -1.00161  -0.99847  -0.99809  -0.99110
 Alpha  occ. eigenvalues --   -0.99058  -0.98804  -0.97972  -0.97475  -0.96645
 Alpha  occ. eigenvalues --   -0.94099  -0.92670  -0.90793  -0.88726  -0.88198
 Alpha  occ. eigenvalues --   -0.87308  -0.86034  -0.85504  -0.84862  -0.84742
 Alpha  occ. eigenvalues --   -0.84150  -0.82251  -0.82122  -0.81469  -0.80822
 Alpha  occ. eigenvalues --   -0.80537  -0.79910  -0.78869  -0.78816  -0.77081
 Alpha  occ. eigenvalues --   -0.76961  -0.76067  -0.74840  -0.74280  -0.73784
 Alpha  occ. eigenvalues --   -0.73098  -0.72412  -0.71892  -0.71446  -0.71042
 Alpha  occ. eigenvalues --   -0.70490  -0.68962  -0.68847  -0.68186  -0.67935
 Alpha  occ. eigenvalues --   -0.67725  -0.67515  -0.67305  -0.67128  -0.66850
 Alpha  occ. eigenvalues --   -0.66175  -0.65655  -0.65501  -0.65362  -0.65103
 Alpha  occ. eigenvalues --   -0.64504  -0.64108  -0.63838  -0.63652  -0.63616
 Alpha  occ. eigenvalues --   -0.63123  -0.62752  -0.61868  -0.61187  -0.60583
 Alpha  occ. eigenvalues --   -0.59671  -0.59582  -0.58928  -0.58731  -0.58358
 Alpha  occ. eigenvalues --   -0.58180  -0.57542  -0.57374  -0.57243  -0.56832
 Alpha  occ. eigenvalues --   -0.56700  -0.56058  -0.55881  -0.55698  -0.55420
 Alpha  occ. eigenvalues --   -0.54642  -0.54599  -0.54488  -0.54013  -0.53762
 Alpha  occ. eigenvalues --   -0.53632  -0.53408  -0.53330  -0.53208  -0.52794
 Alpha  occ. eigenvalues --   -0.52783  -0.52713  -0.52255  -0.52028  -0.51832
 Alpha  occ. eigenvalues --   -0.51603  -0.51374  -0.51303  -0.50975  -0.50856
 Alpha  occ. eigenvalues --   -0.50640  -0.50170  -0.50018  -0.49952  -0.49643
 Alpha  occ. eigenvalues --   -0.49474  -0.49167  -0.49085  -0.48822  -0.48731
 Alpha  occ. eigenvalues --   -0.48484  -0.48271  -0.48190  -0.47902  -0.47797
 Alpha  occ. eigenvalues --   -0.47624  -0.47328  -0.47251  -0.47148  -0.47073
 Alpha  occ. eigenvalues --   -0.46943  -0.46859  -0.46665  -0.46336  -0.46225
 Alpha  occ. eigenvalues --   -0.46105  -0.45984  -0.45875  -0.45501  -0.45119
 Alpha  occ. eigenvalues --   -0.44991  -0.44963  -0.44880  -0.44743  -0.44566
 Alpha  occ. eigenvalues --   -0.44531  -0.44477  -0.44287  -0.43874  -0.43766
 Alpha  occ. eigenvalues --   -0.43355  -0.43095  -0.42825  -0.42422  -0.42308
 Alpha  occ. eigenvalues --   -0.42117  -0.41941  -0.41652  -0.41299  -0.41190
 Alpha  occ. eigenvalues --   -0.41116  -0.40874  -0.40699  -0.40402  -0.40221
 Alpha  occ. eigenvalues --   -0.39997  -0.39928  -0.39606  -0.39521  -0.39129
 Alpha  occ. eigenvalues --   -0.39047  -0.38686  -0.38313  -0.38032  -0.37793
 Alpha  occ. eigenvalues --   -0.37338  -0.37294  -0.36855  -0.36639  -0.35784
 Alpha  occ. eigenvalues --   -0.35681  -0.35153  -0.34802  -0.34630  -0.33995
 Alpha  occ. eigenvalues --   -0.33638  -0.33609  -0.33392  -0.33157  -0.33008
 Alpha  occ. eigenvalues --   -0.32591  -0.32172  -0.31750  -0.31537  -0.31196
 Alpha  occ. eigenvalues --   -0.30971  -0.30548  -0.30103  -0.28371  -0.27340
 Alpha  occ. eigenvalues --   -0.26757  -0.26464
 Alpha virt. eigenvalues --   -0.10722  -0.09760  -0.08710  -0.07978  -0.07730
 Alpha virt. eigenvalues --   -0.07294  -0.06495  -0.06043  -0.05628  -0.05412
 Alpha virt. eigenvalues --   -0.05404  -0.05279  -0.04785  -0.04660  -0.04109

 Mulliken charges:
               1
     1  N   -0.762123
     2  H    0.412500
     3  H    0.432771
     4  H    0.405709
     5  C   -0.101537
     6  H    0.201824
     7  C    0.652485
     8  C   -0.107470
     9  H    0.167687
    10  O   -0.553276
    11  C   -0.473515
    12  H    0.167419
    13  H    0.181969
    14  H    0.189455
    15  C   -0.469042
    16  H    0.174693
    17  H    0.135372
    18  H    0.197436
    19  N   -0.602150
    20  H    0.374801
    21  C   -0.080201
    22  H    0.196171
    23  C    0.635837
    24  C   -0.071642
    25  H    0.132449
    26  O   -0.578497
    27  C   -0.284508
    28  H    0.190215
    29  H    0.130483
    30  C   -0.478288
    31  H    0.193630
    32  H    0.124775
    33  H    0.148403
    34  C   -0.454525
    35  H    0.152843
    36  H    0.171405
    37  H    0.128445
    38  N   -0.622052
    39  H    0.430749
    40  C   -0.101413
    41  H    0.193098
    42  C    0.645546
    43  C   -0.391303
    44  H    0.237721
    45  H    0.157198
    46  O   -0.534396
    47  C    0.095585
    48  C   -0.215932
    49  H    0.231240
    50  C   -0.191185
    51  H    0.136896
    52  C   -0.185134
    53  H    0.162025
    54  C   -0.128684
    55  H    0.144913
    56  C   -0.162575
    57  H    0.134287
    58  N   -0.613808
    59  H    0.353143
    60  C   -0.058458
    61  H    0.185181
    62  C    0.633392
    63  C   -0.283892
    64  H    0.141161
    65  H    0.155789
    66  O   -0.586907
    67  C   -0.086096
    68  H    0.122188
    69  C   -0.450764
    70  H    0.150795
    71  H    0.144619
    72  H    0.158098
    73  C   -0.451406
    74  H    0.148447
    75  H    0.154005
    76  H    0.150427
    77  N   -0.605629
    78  H    0.379115
    79  C   -0.078638
    80  H    0.233482
    81  C    0.590089
    82  C   -0.328081
    83  H    0.167756
    84  H    0.168452
    85  O   -0.503324
    86  C   -0.331068
    87  H    0.149092
    88  H    0.156562
    89  C    0.581350
    90  O   -0.582820
    91  O   -0.600511
    92  N   -0.614655
    93  H    0.374857
    94  C   -0.053488
    95  H    0.188291
    96  C    0.596873
    97  C   -0.368714
    98  H    0.203575
    99  H    0.163697
   100  O   -0.561057
   101  C    0.610185
   102  N   -0.709514
   103  H    0.352854
   104  H    0.371043
   105  O   -0.569459
   106  N   -0.605188
   107  H    0.362916
   108  C   -0.038610
   109  H    0.199918
   110  C    0.646041
   111  C   -0.386073
   112  H    0.198480
   113  H    0.156949
   114  O   -0.560423
   115  C    0.113425
   116  C   -0.180001
   117  H    0.144670
   118  C   -0.222079
   119  H    0.201069
   120  C   -0.166695
   121  H    0.165340
   122  C   -0.191621
   123  H    0.124538
   124  O   -0.657892
   125  H    0.413216
   126  C    0.331544
   127  N   -0.620325
   128  H    0.366093
   129  C   -0.028682
   130  H    0.201690
   131  C    0.587517
   132  C   -0.287423
   133  H    0.154790
   134  H    0.160763
   135  O   -0.449653
   136  C   -0.308786
   137  H    0.148551
   138  H    0.230360
   139  C   -0.185765
   140  H    0.156725
   141  H    0.184240
   142  N   -0.592064
   143  H    0.379208
   144  N   -0.796996
   145  H    0.419778
   146  H    0.361162
   147  N   -0.788120
   148  H    0.375533
   149  H    0.392088
   150  C    0.786209
   151  O   -0.592961
   152  H    0.431735
 Sum of Mulliken charges =   1.00000

 Dipole moment (field-independent basis, Debye):
    X=            -15.0121    Y=              9.6191    Z=             17.0524  Tot=             24.6714
 Quadrupole moment (field-independent basis, Debye-Ang):
   XX=           -320.2236   YY=           -383.1345   ZZ=           -187.3088
   XY=             43.7886   XZ=           -156.3178   YZ=            -46.5592

 Normal termination of Gaussian 16 at Sun Aug 14 21:11:44 2022.
