 Gaussian 16, Revision C.01,
 Gaussian 16:  ES64L-G16RevC.01  3-Jul-2019

 ----------------------------------------------------------------------
 # B3LYP/6-31G* empiricaldispersion=gd3 guess=read geom=check nosymm in
 tegral(ultrafinegrid)
 ----------------------------------------------------------------------

 ------------------------------------------------------
 Candidate Structure: Conf:962 Charge calc in gas phase
 ------------------------------------------------------
 Structure from the checkpoint file:  "conf-962.chk"
 Charge =  1 Multiplicity = 1

                          Input orientation:
 ---------------------------------------------------------------------
 Center     Atomic      Atomic             Coordinates (Angstroms)
 Number     Number       Type             X           Y           Z
 ---------------------------------------------------------------------
      1          7           0       -3.047014   -1.143800    8.960744
      2          1           0       -3.220079   -2.013667    9.469816
      3          1           0       -2.128843   -1.224392    8.417452
      4          1           0       -3.009072   -0.373224    9.632491
      5          6           0       -4.030384   -0.902640    7.831651
      6          1           0       -4.837102   -1.633881    7.923973
      7          6           0       -3.163422   -1.170465    6.573310
      8          6           0       -4.598074    0.535537    7.859569
      9          1           0       -5.239322    0.598760    6.971029
     10          8           0       -1.937287   -1.295865    6.736068
     11          6           0       -5.479535    0.766162    9.095754
     12          1           0       -4.900202    0.752132   10.029720
     13          1           0       -5.952773    1.750614    9.038894
     14          1           0       -6.273114    0.015243    9.176935
     15          6           0       -3.500180    1.603030    7.722802
     16          1           0       -2.828157    1.625532    8.591688
     17          1           0       -2.887787    1.457653    6.828273
     18          1           0       -3.956882    2.594105    7.655352
     19          7           0       -3.805865   -1.194580    5.417248
     20          1           0       -4.791362   -0.928691    5.349451
     21          6           0       -3.134673   -1.114486    4.115721
     22          1           0       -2.263825   -0.463787    4.241767
     23          6           0       -4.147586   -0.346198    3.235993
     24          6           0       -2.655909   -2.502270    3.622669
     25          1           0       -2.123045   -2.920074    4.488176
     26          8           0       -5.240176   -0.000256    3.705582
     27          6           0       -1.638959   -2.427693    2.464386
     28          1           0       -2.140660   -2.216764    1.514278
     29          1           0       -1.240498   -3.442447    2.337730
     30          6           0       -3.835968   -3.416955    3.274600
     31          1           0       -4.386015   -3.032904    2.407481
     32          1           0       -4.539032   -3.508721    4.110569
     33          1           0       -3.481056   -4.421179    3.022008
     34          6           0       -0.466337   -1.458153    2.671002
     35          1           0        0.274480   -1.590776    1.877201
     36          1           0       -0.768380   -0.403438    2.643322
     37          1           0        0.029849   -1.627809    3.634366
     38          7           0       -3.729036   -0.010368    2.008788
     39          1           0       -2.821083   -0.309955    1.672886
     40          6           0       -4.343652    1.050100    1.223818
     41          1           0       -5.401540    0.811344    1.061712
     42          6           0       -3.629701    1.027295   -0.142259
     43          6           0       -4.266165    2.424519    1.972982
     44          1           0       -5.002255    2.371923    2.779778
     45          1           0       -4.595134    3.223433    1.298900
     46          8           0       -2.772999    0.168674   -0.387981
     47          6           0       -2.892000    2.721503    2.533554
     48          6           0       -2.556689    2.295248    3.827943
     49          1           0       -3.328086    1.849051    4.452191
     50          6           0       -1.909189    3.353463    1.761875
     51          1           0       -2.145913    3.726868    0.769922
     52          6           0       -1.254257    2.427739    4.311979
     53          1           0       -1.004811    2.066674    5.307804
     54          6           0       -0.609126    3.504050    2.252956
     55          1           0        0.151991    3.978454    1.640677
     56          6           0       -0.267836    3.017164    3.516832
     57          1           0        0.760456    3.083656    3.856513
     58          7           0       -3.987981    1.967511   -1.039111
     59          1           0       -4.574982    2.733730   -0.736415
     60          6           0       -3.192627    2.196855   -2.259248
     61          1           0       -3.022193    1.216180   -2.709265
     62          6           0       -1.863390    2.829066   -1.793761
     63          6           0       -3.944017    3.105238   -3.229986
     64          1           0       -4.218925    4.026399   -2.699825
     65          1           0       -4.872167    2.599911   -3.529429
     66          8           0       -1.825975    4.002496   -1.424182
     67          6           0       -3.126433    3.489637   -4.480732
     68          1           0       -2.301674    4.131026   -4.143316
     69          6           0       -2.521591    2.269869   -5.194435
     70          1           0       -3.293936    1.526471   -5.433281
     71          1           0       -1.744527    1.783871   -4.592805
     72          1           0       -2.050877    2.572088   -6.136123
     73          6           0       -4.005580    4.307717   -5.436249
     74          1           0       -4.833328    3.700011   -5.824477
     75          1           0       -3.424022    4.664817   -6.293133
     76          1           0       -4.436427    5.182155   -4.934357
     77          7           0       -0.829434    1.967064   -1.746726
     78          1           0       -0.977420    1.015572   -2.052076
     79          6           0        0.449758    2.233161   -1.117172
     80          1           0        0.407234    3.234534   -0.687510
     81          6           0        1.549850    2.162936   -2.182002
     82          6           0        0.652554    1.168865   -0.002896
     83          1           0        0.494266    0.185197   -0.459413
     84          1           0       -0.159893    1.317243    0.714648
     85          8           0        1.443727    1.439544   -3.178707
     86          6           0        1.995440    1.105655    0.742328
     87          1           0        1.940681    0.286200    1.464713
     88          1           0        2.791329    0.846455    0.031434
     89          6           0        2.484207    2.357008    1.487292
     90          8           0        2.846198    2.219417    2.682104
     91          8           0        2.592423    3.443085    0.817321
     92          7           0        2.638825    2.909260   -1.891730
     93          1           0        2.675609    3.272653   -0.921849
     94          6           0        3.901257    2.705385   -2.595725
     95          1           0        3.691292    2.542547   -3.654706
     96          6           0        4.551335    1.435060   -2.020580
     97          6           0        4.797076    3.933657   -2.428940
     98          1           0        4.346214    4.765051   -2.983818
     99          1           0        4.846219    4.243775   -1.381324
    100          8           0        5.453979    1.475162   -1.167018
    101          6           0        6.190790    3.669890   -2.990538
    102          7           0        7.215084    4.331920   -2.356399
    103          1           0        8.110095    4.327433   -2.829157
    104          1           0        7.021641    5.117115   -1.750205
    105          8           0        6.376819    2.908619   -3.925144
    106          7           0        4.003257    0.278129   -2.426058
    107          1           0        3.203267    0.328874   -3.050810
    108          6           0        4.408893   -1.003237   -1.867270
    109          1           0        4.156900   -1.017977   -0.797094
    110          6           0        5.935932   -1.147429   -2.031313
    111          6           0        3.651570   -2.153074   -2.568475
    112          1           0        3.769932   -2.029077   -3.650841
    113          1           0        4.155362   -3.089383   -2.302893
    114          8           0        6.499359   -0.916339   -3.088024
    115          6           0        2.192738   -2.226834   -2.164114
    116          6           0        1.822584   -2.932765   -1.008836
    117          1           0        2.585144   -3.459267   -0.438265
    118          6           0        1.182506   -1.578594   -2.883999
    119          1           0        1.421342   -1.033194   -3.790984
    120          6           0        0.500802   -2.981429   -0.576512
    121          1           0        0.219087   -3.540786    0.309604
    122          6           0       -0.147399   -1.611721   -2.457157
    123          1           0       -0.921272   -1.124832   -3.046547
    124          8           0       -1.779925   -2.381965   -0.831204
    125          1           0       -2.243097   -1.538501   -0.992732
    126          6           0       -0.494754   -2.303563   -1.291285
    127          7           0        6.588395   -1.567082   -0.904969
    128          1           0        6.080949   -1.640870   -0.033315
    129          6           0        8.021975   -1.375987   -0.780602
    130          1           0        8.494275   -1.685897   -1.715377
    131          6           0        8.522590   -2.240500    0.361130
    132          6           0        8.384944    0.114913   -0.514111
    133          1           0        9.477083    0.208927   -0.475763
    134          1           0        8.023805    0.682008   -1.378107
    135          8           0        7.834821   -2.642212    1.276818
    136          6           0        7.737665    0.658842    0.765436
    137          1           0        6.655741    0.514982    0.699524
    138          1           0        8.088573    0.102815    1.645673
    139          6           0        7.998183    2.154556    0.984451
    140          1           0        9.060473    2.350876    1.163862
    141          1           0        7.712532    2.737090    0.103679
    142          7           0        7.257677    2.669775    2.147911
    143          1           0        7.575050    2.328178    3.045867
    144          7           0        5.363560    3.293364    0.935147
    145          1           0        4.370848    3.582508    0.967935
    146          1           0        5.599982    2.721355    0.116196
    147          7           0        5.291593    3.356957    3.231515
    148          1           0        4.266686    3.159985    3.180556
    149          1           0        5.743805    3.196102    4.120631
    150          6           0        5.967760    3.076807    2.101921
    151          8           0        9.852350   -2.447525    0.281469
    152          1           0       10.108134   -2.966181    1.068020
 ---------------------------------------------------------------------

 SCF Done:  E(RB3LYP) =  -3586.89191169     A.U. after    3 cycles

 Alpha  occ. eigenvalues --  -19.26558 -19.26061 -19.21744 -19.21619 -19.21566
 Alpha  occ. eigenvalues --  -19.20454 -19.18715 -19.17051 -19.16941 -19.16216
 Alpha  occ. eigenvalues --  -19.15973 -19.14769 -19.14539 -14.59601 -14.48608
 Alpha  occ. eigenvalues --  -14.45286 -14.45191 -14.44962 -14.42470 -14.41707
 Alpha  occ. eigenvalues --  -14.41655 -14.41230 -14.40928 -14.40860 -14.40161
 Alpha  occ. eigenvalues --  -10.42958 -10.40236 -10.39821 -10.38534 -10.38456
 Alpha  occ. eigenvalues --  -10.38318 -10.34927 -10.34373 -10.34294 -10.34100
 Alpha  occ. eigenvalues --  -10.33602 -10.33350 -10.33052 -10.32767 -10.32528
 Alpha  occ. eigenvalues --  -10.30889 -10.30468 -10.30153 -10.29909 -10.29864
 Alpha  occ. eigenvalues --  -10.29401 -10.29148 -10.28943 -10.28077 -10.27917
 Alpha  occ. eigenvalues --  -10.27430 -10.26143 -10.25569 -10.25414 -10.25347
 Alpha  occ. eigenvalues --  -10.25213 -10.25125 -10.25040 -10.25038 -10.24787
 Alpha  occ. eigenvalues --  -10.24668 -10.24499 -10.24429 -10.24345 -10.24263
 Alpha  occ. eigenvalues --  -10.24179 -10.24134 -10.24098 -10.24011 -10.23985
 Alpha  occ. eigenvalues --  -10.23966 -10.23792 -10.23052 -10.22102 -10.21851
 Alpha  occ. eigenvalues --   -1.18931  -1.16975  -1.13991  -1.13456  -1.13054
 Alpha  occ. eigenvalues --   -1.10484  -1.09779  -1.09155  -1.08656  -1.08417
 Alpha  occ. eigenvalues --   -1.08275  -1.08111  -1.07794  -1.07541  -1.05573
 Alpha  occ. eigenvalues --   -1.02009  -1.01316  -0.98992  -0.98730  -0.98496
 Alpha  occ. eigenvalues --   -0.98302  -0.97779  -0.97292  -0.95473  -0.95343
 Alpha  occ. eigenvalues --   -0.95215  -0.91784  -0.90524  -0.90246  -0.87618
 Alpha  occ. eigenvalues --   -0.86302  -0.86261  -0.85952  -0.85196  -0.84165
 Alpha  occ. eigenvalues --   -0.82811  -0.82219  -0.81838  -0.81443  -0.81378
 Alpha  occ. eigenvalues --   -0.80383  -0.79964  -0.79817  -0.78830  -0.78291
 Alpha  occ. eigenvalues --   -0.76943  -0.74946  -0.74263  -0.74121  -0.73647
 Alpha  occ. eigenvalues --   -0.73515  -0.72977  -0.72527  -0.71070  -0.70948
 Alpha  occ. eigenvalues --   -0.70774  -0.70406  -0.69759  -0.68752  -0.68208
 Alpha  occ. eigenvalues --   -0.67802  -0.67216  -0.67029  -0.66563  -0.66441
 Alpha  occ. eigenvalues --   -0.66123  -0.65944  -0.65062  -0.64651  -0.64265
 Alpha  occ. eigenvalues --   -0.64164  -0.63956  -0.62977  -0.62758  -0.62583
 Alpha  occ. eigenvalues --   -0.61901  -0.61477  -0.61362  -0.61161  -0.59729
 Alpha  occ. eigenvalues --   -0.59517  -0.59354  -0.58954  -0.58397  -0.58240
 Alpha  occ. eigenvalues --   -0.57873  -0.57522  -0.57365  -0.56993  -0.56335
 Alpha  occ. eigenvalues --   -0.56146  -0.55941  -0.55619  -0.55172  -0.55076
 Alpha  occ. eigenvalues --   -0.54983  -0.54903  -0.54564  -0.54327  -0.54310
 Alpha  occ. eigenvalues --   -0.53892  -0.53469  -0.52935  -0.52897  -0.52714
 Alpha  occ. eigenvalues --   -0.52337  -0.52206  -0.52157  -0.51970  -0.51868
 Alpha  occ. eigenvalues --   -0.51618  -0.51248  -0.50997  -0.50906  -0.50816
 Alpha  occ. eigenvalues --   -0.50611  -0.50504  -0.50030  -0.49908  -0.49814
 Alpha  occ. eigenvalues --   -0.49580  -0.49116  -0.48989  -0.48805  -0.48583
 Alpha  occ. eigenvalues --   -0.48321  -0.48216  -0.47881  -0.47816  -0.47622
 Alpha  occ. eigenvalues --   -0.47486  -0.47431  -0.47142  -0.47105  -0.46981
 Alpha  occ. eigenvalues --   -0.46842  -0.46634  -0.46325  -0.46278  -0.46051
 Alpha  occ. eigenvalues --   -0.45931  -0.45698  -0.45627  -0.45466  -0.45211
 Alpha  occ. eigenvalues --   -0.45047  -0.44865  -0.44712  -0.44416  -0.44370
 Alpha  occ. eigenvalues --   -0.44335  -0.43891  -0.43729  -0.43654  -0.43061
 Alpha  occ. eigenvalues --   -0.43057  -0.42703  -0.42457  -0.42081  -0.41921
 Alpha  occ. eigenvalues --   -0.41799  -0.41639  -0.41501  -0.41425  -0.41365
 Alpha  occ. eigenvalues --   -0.41129  -0.41080  -0.40863  -0.40432  -0.40249
 Alpha  occ. eigenvalues --   -0.40017  -0.39782  -0.39760  -0.39566  -0.39348
 Alpha  occ. eigenvalues --   -0.38846  -0.38362  -0.38148  -0.38073  -0.37817
 Alpha  occ. eigenvalues --   -0.37720  -0.37284  -0.36622  -0.35964  -0.35676
 Alpha  occ. eigenvalues --   -0.35372  -0.34619  -0.34460  -0.34079  -0.33995
 Alpha  occ. eigenvalues --   -0.33649  -0.32365  -0.32090  -0.31889  -0.30966
 Alpha  occ. eigenvalues --   -0.30811  -0.30686  -0.30513  -0.30402  -0.30281
 Alpha  occ. eigenvalues --   -0.30256  -0.29807  -0.29707  -0.29279  -0.29042
 Alpha  occ. eigenvalues --   -0.28346  -0.27087
 Alpha virt. eigenvalues --   -0.11855  -0.11266  -0.08482  -0.07306  -0.06725
 Alpha virt. eigenvalues --   -0.06465  -0.06057  -0.05986  -0.05572  -0.05244
 Alpha virt. eigenvalues --   -0.04983  -0.04563  -0.03944  -0.03573  -0.02682

 Mulliken charges:
               1
     1  N   -0.762583
     2  H    0.415333
     3  H    0.434178
     4  H    0.409024
     5  C   -0.101929
     6  H    0.212090
     7  C    0.648211
     8  C   -0.129280
     9  H    0.196203
    10  O   -0.551089
    11  C   -0.462266
    12  H    0.137572
    13  H    0.199810
    14  H    0.172648
    15  C   -0.487584
    16  H    0.138942
    17  H    0.201616
    18  H    0.199892
    19  N   -0.600863
    20  H    0.374671
    21  C   -0.088618
    22  H    0.210656
    23  C    0.634735
    24  C   -0.078463
    25  H    0.149049
    26  O   -0.564225
    27  C   -0.301718
    28  H    0.182156
    29  H    0.152133
    30  C   -0.461442
    31  H    0.165142
    32  H    0.136430
    33  H    0.167667
    34  C   -0.492381
    35  H    0.177664
    36  H    0.158142
    37  H    0.151989
    38  N   -0.625075
    39  H    0.387735
    40  C   -0.035169
    41  H    0.199632
    42  C    0.644944
    43  C   -0.399662
    44  H    0.186351
    45  H    0.156762
    46  O   -0.566547
    47  C    0.170610
    48  C   -0.205669
    49  H    0.110479
    50  C   -0.213388
    51  H    0.182929
    52  C   -0.144497
    53  H    0.117379
    54  C   -0.169655
    55  H    0.182959
    56  C   -0.130130
    57  H    0.170798
    58  N   -0.607479
    59  H    0.346998
    60  C   -0.051979
    61  H    0.163249
    62  C    0.631445
    63  C   -0.281137
    64  H    0.151782
    65  H    0.143973
    66  O   -0.545662
    67  C   -0.085301
    68  H    0.160041
    69  C   -0.461395
    70  H    0.139118
    71  H    0.149988
    72  H    0.158565
    73  C   -0.446901
    74  H    0.142031
    75  H    0.153433
    76  H    0.146464
    77  N   -0.564293
    78  H    0.352105
    79  C   -0.094040
    80  H    0.204102
    81  C    0.622912
    82  C   -0.289955
    83  H    0.164589
    84  H    0.164591
    85  O   -0.564976
    86  C   -0.380086
    87  H    0.158351
    88  H    0.158860
    89  C    0.610795
    90  O   -0.583250
    91  O   -0.621182
    92  N   -0.632023
    93  H    0.396472
    94  C   -0.060228
    95  H    0.207103
    96  C    0.691148
    97  C   -0.404067
    98  H    0.193838
    99  H    0.165124
   100  O   -0.595782
   101  C    0.617394
   102  N   -0.757019
   103  H    0.345661
   104  H    0.338670
   105  O   -0.492036
   106  N   -0.615236
   107  H    0.384606
   108  C   -0.024002
   109  H    0.146606
   110  C    0.649050
   111  C   -0.403614
   112  H    0.184866
   113  H    0.170149
   114  O   -0.511780
   115  C    0.166099
   116  C   -0.188477
   117  H    0.128352
   118  C   -0.175542
   119  H    0.157625
   120  C   -0.164964
   121  H    0.139249
   122  C   -0.214341
   123  H    0.132957
   124  O   -0.677974
   125  H    0.437649
   126  C    0.348857
   127  N   -0.608850
   128  H    0.338390
   129  C   -0.041238
   130  H    0.207989
   131  C    0.588623
   132  C   -0.288336
   133  H    0.153965
   134  H    0.207379
   135  O   -0.476883
   136  C   -0.273468
   137  H    0.164852
   138  H    0.138507
   139  C   -0.184819
   140  H    0.167266
   141  H    0.199634
   142  N   -0.586224
   143  H    0.335782
   144  N   -0.842675
   145  H    0.408113
   146  H    0.423144
   147  N   -0.768461
   148  H    0.401705
   149  H    0.332681
   150  C    0.753090
   151  O   -0.562022
   152  H    0.417417
 Sum of Mulliken charges =   1.00000

 Dipole moment (field-independent basis, Debye):
    X=             -5.8089    Y=              0.3964    Z=             34.1416  Tot=             34.6345
 Quadrupole moment (field-independent basis, Debye-Ang):
   XX=           -259.7326   YY=           -419.5385   ZZ=           -158.2796
   XY=             30.7175   XZ=            -63.1092   YZ=            -34.4789

 Normal termination of Gaussian 16 at Sun Aug 14 21:12:35 2022.
