 Gaussian 16, Revision C.01,
 Gaussian 16:  ES64L-G16RevC.01  3-Jul-2019

 ----------------------------------------------------------------------
 # B3LYP/6-31G* empiricaldispersion=gd3 guess=read geom=check nosymm in
 tegral(ultrafinegrid)
 ----------------------------------------------------------------------

 ------------------------------------------------------
 Candidate Structure: Conf:156 Charge calc in gas phase
 ------------------------------------------------------
 Structure from the checkpoint file:  "conf-156.chk"
 Charge =  1 Multiplicity = 1

                          Input orientation:
 ---------------------------------------------------------------------
 Center     Atomic      Atomic             Coordinates (Angstroms)
 Number     Number       Type             X           Y           Z
 ---------------------------------------------------------------------
      1          7           0       -9.014508   -4.026054    6.390150
      2          1           0      -10.023894   -3.910490    6.271257
      3          1           0       -8.602352   -4.426454    5.490718
      4          1           0       -8.845797   -4.645811    7.186163
      5          6           0       -8.270382   -2.707832    6.488699
      6          1           0       -8.999322   -1.920380    6.695197
      7          6           0       -7.662154   -2.564806    5.069947
      8          6           0       -7.186385   -2.746588    7.589944
      9          1           0       -6.636044   -1.802975    7.482070
     10          8           0       -7.649713   -3.574884    4.344068
     11          6           0       -7.812812   -2.778112    8.991136
     12          1           0       -8.353564   -3.714898    9.187786
     13          1           0       -7.029283   -2.705442    9.751179
     14          1           0       -8.508327   -1.945871    9.145309
     15          6           0       -6.181770   -3.890290    7.381006
     16          1           0       -6.641014   -4.881008    7.503389
     17          1           0       -5.712995   -3.851683    6.393982
     18          1           0       -5.389733   -3.818527    8.130443
     19          7           0       -7.163791   -1.377404    4.780093
     20          1           0       -7.172265   -0.598287    5.445274
     21          6           0       -6.353674   -1.058118    3.603260
     22          1           0       -5.691931   -1.906500    3.409332
     23          6           0       -5.540431    0.166562    4.068202
     24          6           0       -7.232088   -0.782700    2.349472
     25          1           0       -7.840699   -1.690436    2.231838
     26          8           0       -5.953219    0.844091    5.015910
     27          6           0       -6.403602   -0.609061    1.059311
     28          1           0       -5.810653    0.312690    1.110991
     29          1           0       -7.119158   -0.454819    0.242112
     30          6           0       -8.165416    0.415933    2.567583
     31          1           0       -7.599111    1.347755    2.673502
     32          1           0       -8.779416    0.296824    3.466864
     33          1           0       -8.840403    0.528604    1.713188
     34          6           0       -5.497224   -1.793010    0.699104
     35          1           0       -5.046641   -1.642974   -0.286551
     36          1           0       -4.668198   -1.926981    1.405503
     37          1           0       -6.061630   -2.733040    0.676024
     38          7           0       -4.406761    0.410786    3.399009
     39          1           0       -4.172927   -0.082600    2.543091
     40          6           0       -3.540157    1.537126    3.691214
     41          1           0       -4.144537    2.314819    4.166661
     42          6           0       -2.985974    2.020511    2.338910
     43          6           0       -2.378946    1.122621    4.644268
     44          1           0       -1.834034    2.028761    4.935240
     45          1           0       -1.681140    0.501258    4.075012
     46          8           0       -3.082902    1.299919    1.339404
     47          6           0       -2.881235    0.377800    5.859105
     48          6           0       -3.418443    1.058661    6.958671
     49          1           0       -3.434319    2.145658    6.958284
     50          6           0       -2.878281   -1.022771    5.874921
     51          1           0       -2.457017   -1.563222    5.030626
     52          6           0       -3.941749    0.360761    8.046193
     53          1           0       -4.346132    0.907290    8.893778
     54          6           0       -3.397615   -1.728547    6.961851
     55          1           0       -3.359910   -2.814698    6.965696
     56          6           0       -3.933004   -1.037280    8.051411
     57          1           0       -4.313247   -1.581079    8.913643
     58          7           0       -2.411467    3.234414    2.362774
     59          1           0       -2.219926    3.684083    3.254608
     60          6           0       -1.569711    3.742071    1.287475
     61          1           0       -1.415251    2.928531    0.578462
     62          6           0       -0.231915    4.146825    1.937553
     63          6           0       -2.201935    4.956341    0.580732
     64          1           0       -1.492390    5.311783   -0.179230
     65          1           0       -2.300476    5.763331    1.319187
     66          8           0       -0.207466    4.520233    3.113744
     67          6           0       -3.565803    4.686191   -0.079282
     68          1           0       -4.246375    4.316682    0.701628
     69          6           0       -4.141574    5.998011   -0.632175
     70          1           0       -3.495937    6.404760   -1.421247
     71          1           0       -4.231894    6.760229    0.150940
     72          1           0       -5.135708    5.839597   -1.066020
     73          6           0       -3.479066    3.618115   -1.180017
     74          1           0       -2.740944    3.903405   -1.941662
     75          1           0       -4.446300    3.505793   -1.684172
     76          1           0       -3.203427    2.640736   -0.773115
     77          7           0        0.812134    4.081949    1.095721
     78          1           0        0.681166    3.669877    0.173849
     79          6           0        2.214772    4.393718    1.358711
     80          1           0        2.345980    5.476778    1.481808
     81          6           0        2.932886    3.997205    0.040783
     82          6           0        2.703110    3.700545    2.661712
     83          1           0        2.451321    2.639805    2.569976
     84          1           0        2.083128    4.118593    3.458080
     85          8           0        2.281802    3.512092   -0.908894
     86          6           0        4.183017    3.831717    3.068920
     87          1           0        4.282851    3.411573    4.074522
     88          1           0        4.813507    3.243534    2.392129
     89          6           0        4.679120    5.298560    3.110125
     90          8           0        5.058458    5.741834    1.944460
     91          8           0        4.655246    5.926649    4.161192
     92          7           0        4.244465    4.233065    0.011156
     93          1           0        4.630606    4.802887    0.835907
     94          6           0        5.081904    4.214734   -1.185698
     95          1           0        4.552828    4.713719   -2.012875
     96          6           0        5.416679    2.797508   -1.724831
     97          6           0        6.370604    4.996305   -0.835716
     98          1           0        6.613520    4.834489    0.217853
     99          1           0        7.199816    4.616737   -1.431735
    100          8           0        6.561314    2.503389   -2.112559
    101          6           0        6.206715    6.474972   -1.147136
    102          7           0        5.803449    7.270892   -0.155076
    103          1           0        5.646572    8.245839   -0.375827
    104          1           0        5.554203    6.904913    0.783901
    105          8           0        6.420658    6.890764   -2.308354
    106          7           0        4.377830    1.949764   -1.779081
    107          1           0        3.450763    2.332177   -1.559826
    108          6           0        4.481867    0.569640   -2.221315
    109          1           0        5.194531    0.048042   -1.569120
    110          6           0        4.969467    0.499306   -3.680962
    111          6           0        3.094772   -0.113037   -2.164927
    112          1           0        2.511353    0.271101   -3.009176
    113          1           0        3.253211   -1.183253   -2.355827
    114          8           0        4.513900    1.241173   -4.541443
    115          6           0        2.311164    0.100109   -0.883829
    116          6           0        0.930909    0.337911   -0.942733
    117          1           0        0.433621    0.347466   -1.909624
    118          6           0        2.921145    0.089663    0.375054
    119          1           0        3.987568   -0.098567    0.464451
    120          6           0        0.180905    0.593205    0.203255
    121          1           0       -0.887975    0.779077    0.159565
    122          6           0        2.189055    0.350282    1.532252
    123          1           0        2.681806    0.346865    2.501364
    124          8           0        0.072114    0.989815    2.539393
    125          1           0        0.656605    1.342299    3.229370
    126          6           0        0.824794    0.641143    1.440861
    127          7           0        5.902359   -0.460747   -3.940280
    128          1           0        6.254477   -1.059350   -3.204742
    129          6           0        6.502750   -0.607194   -5.251833
    130          1           0        5.767231   -0.282932   -5.993475
    131          6           0        6.840275   -2.072931   -5.469210
    132          6           0        7.793692    0.248283   -5.413102
    133          1           0        8.571043   -0.173929   -4.760133
    134          1           0        8.148095    0.153315   -6.445954
    135          8           0        6.910252   -2.902788   -4.589225
    136          6           0        7.527538    1.701142   -5.018659
    137          1           0        6.811279    2.166261   -5.703017
    138          1           0        7.061232    1.696609   -4.034621
    139          6           0        8.778489    2.569649   -4.898542
    140          1           0        9.582560    2.017880   -4.389665
    141          1           0        9.147405    2.880722   -5.882064
    142          7           0        8.433565    3.769729   -4.119503
    143          1           0        7.722183    3.635936   -3.394690
    144          7           0       10.186143    5.038217   -4.956656
    145          1           0       10.621277    5.937005   -5.100717
    146          1           0       10.764173    4.225895   -5.109023
    147          7           0        8.575153    6.034955   -3.617892
    148          1           0        9.154126    6.860511   -3.556979
    149          1           0        7.622921    6.144153   -3.188147
    150          6           0        9.055579    4.945532   -4.210754
    151          8           0        7.112846   -2.327398   -6.765003
    152          1           0        7.363067   -3.269242   -6.825267
 ---------------------------------------------------------------------

 SCF Done:  E(RB3LYP) =  -3586.84621027     A.U. after    2 cycles

 Alpha  occ. eigenvalues --  -19.26222 -19.25681 -19.23045 -19.20621 -19.20294
 Alpha  occ. eigenvalues --  -19.18225 -19.17942 -19.16665 -19.16543 -19.16438
 Alpha  occ. eigenvalues --  -19.15526 -19.10569 -19.08358 -14.59075 -14.47977
 Alpha  occ. eigenvalues --  -14.46932 -14.45581 -14.44190 -14.43898 -14.41793
 Alpha  occ. eigenvalues --  -14.41577 -14.40366 -14.39346 -14.38514 -14.38072
 Alpha  occ. eigenvalues --  -10.42229 -10.42200 -10.39489 -10.38587 -10.37326
 Alpha  occ. eigenvalues --  -10.35170 -10.34317 -10.33973 -10.33520 -10.33347
 Alpha  occ. eigenvalues --  -10.32888 -10.32713 -10.32637 -10.30865 -10.30455
 Alpha  occ. eigenvalues --  -10.30159 -10.30102 -10.29763 -10.29600 -10.29097
 Alpha  occ. eigenvalues --  -10.28860 -10.27770 -10.27445 -10.27354 -10.27060
 Alpha  occ. eigenvalues --  -10.26195 -10.26055 -10.25999 -10.25973 -10.25806
 Alpha  occ. eigenvalues --  -10.25679 -10.25550 -10.25373 -10.25303 -10.24934
 Alpha  occ. eigenvalues --  -10.24872 -10.24493 -10.24453 -10.24078 -10.23960
 Alpha  occ. eigenvalues --  -10.23913 -10.23758 -10.23704 -10.22984 -10.22853
 Alpha  occ. eigenvalues --  -10.22782 -10.21549 -10.21021 -10.20659 -10.19377
 Alpha  occ. eigenvalues --   -1.18085  -1.17139  -1.12995  -1.12323  -1.10713
 Alpha  occ. eigenvalues --   -1.10655  -1.09879  -1.09507  -1.08627  -1.08171
 Alpha  occ. eigenvalues --   -1.08026  -1.07474  -1.07053  -1.04850  -1.02499
 Alpha  occ. eigenvalues --   -1.00733  -1.00146  -0.98473  -0.98399  -0.98306
 Alpha  occ. eigenvalues --   -0.97761  -0.96435  -0.96139  -0.94451  -0.94113
 Alpha  occ. eigenvalues --   -0.93490  -0.92217  -0.90131  -0.89868  -0.86959
 Alpha  occ. eigenvalues --   -0.86220  -0.85752  -0.84915  -0.84501  -0.83127
 Alpha  occ. eigenvalues --   -0.82235  -0.82050  -0.81236  -0.81167  -0.80959
 Alpha  occ. eigenvalues --   -0.80471  -0.79487  -0.79105  -0.78285  -0.77960
 Alpha  occ. eigenvalues --   -0.75947  -0.74422  -0.73600  -0.73163  -0.72845
 Alpha  occ. eigenvalues --   -0.72655  -0.72431  -0.71973  -0.71785  -0.70636
 Alpha  occ. eigenvalues --   -0.70389  -0.69871  -0.69065  -0.68998  -0.67530
 Alpha  occ. eigenvalues --   -0.67330  -0.67013  -0.66751  -0.66298  -0.65734
 Alpha  occ. eigenvalues --   -0.65575  -0.64802  -0.64789  -0.64678  -0.64313
 Alpha  occ. eigenvalues --   -0.64086  -0.63540  -0.63017  -0.62720  -0.62265
 Alpha  occ. eigenvalues --   -0.61248  -0.61082  -0.60249  -0.59876  -0.59467
 Alpha  occ. eigenvalues --   -0.59203  -0.58727  -0.58527  -0.57943  -0.57881
 Alpha  occ. eigenvalues --   -0.57632  -0.57310  -0.57012  -0.56449  -0.56350
 Alpha  occ. eigenvalues --   -0.56064  -0.55831  -0.55408  -0.55134  -0.54704
 Alpha  occ. eigenvalues --   -0.54414  -0.54211  -0.53839  -0.53591  -0.53114
 Alpha  occ. eigenvalues --   -0.52951  -0.52563  -0.52407  -0.52216  -0.52121
 Alpha  occ. eigenvalues --   -0.51823  -0.51794  -0.51629  -0.51490  -0.51029
 Alpha  occ. eigenvalues --   -0.50968  -0.50583  -0.50432  -0.50207  -0.50163
 Alpha  occ. eigenvalues --   -0.49717  -0.49626  -0.49537  -0.49175  -0.48975
 Alpha  occ. eigenvalues --   -0.48723  -0.48620  -0.48300  -0.48196  -0.47780
 Alpha  occ. eigenvalues --   -0.47632  -0.47471  -0.47367  -0.47279  -0.47119
 Alpha  occ. eigenvalues --   -0.46922  -0.46757  -0.46713  -0.46523  -0.46456
 Alpha  occ. eigenvalues --   -0.46305  -0.46167  -0.45792  -0.45693  -0.45567
 Alpha  occ. eigenvalues --   -0.45180  -0.44696  -0.44615  -0.44503  -0.44265
 Alpha  occ. eigenvalues --   -0.44059  -0.43910  -0.43717  -0.43446  -0.43348
 Alpha  occ. eigenvalues --   -0.43046  -0.42768  -0.42648  -0.42410  -0.42384
 Alpha  occ. eigenvalues --   -0.42223  -0.41856  -0.41681  -0.41558  -0.41372
 Alpha  occ. eigenvalues --   -0.41118  -0.41062  -0.40949  -0.40677  -0.40603
 Alpha  occ. eigenvalues --   -0.40447  -0.40290  -0.40182  -0.39891  -0.39755
 Alpha  occ. eigenvalues --   -0.39582  -0.39487  -0.39341  -0.38421  -0.38226
 Alpha  occ. eigenvalues --   -0.38141  -0.37514  -0.37228  -0.37065  -0.36631
 Alpha  occ. eigenvalues --   -0.36577  -0.36328  -0.36269  -0.35406  -0.34742
 Alpha  occ. eigenvalues --   -0.34675  -0.34185  -0.33921  -0.32967  -0.32359
 Alpha  occ. eigenvalues --   -0.32023  -0.31679  -0.31461  -0.31152  -0.31065
 Alpha  occ. eigenvalues --   -0.30837  -0.30641  -0.30495  -0.29979  -0.29646
 Alpha  occ. eigenvalues --   -0.29458  -0.28975  -0.28331  -0.26724  -0.25477
 Alpha  occ. eigenvalues --   -0.25347  -0.22279
 Alpha virt. eigenvalues --   -0.11024  -0.10719  -0.07528  -0.06798  -0.06440
 Alpha virt. eigenvalues --   -0.06117  -0.05833  -0.05470  -0.05431  -0.04216
 Alpha virt. eigenvalues --   -0.03862  -0.03583  -0.03124  -0.02926  -0.02853

 Mulliken charges:
               1
     1  N   -0.760225
     2  H    0.414725
     3  H    0.432287
     4  H    0.408765
     5  C   -0.106555
     6  H    0.207753
     7  C    0.658713
     8  C   -0.126318
     9  H    0.202136
    10  O   -0.557087
    11  C   -0.462717
    12  H    0.135579
    13  H    0.195410
    14  H    0.172264
    15  C   -0.479008
    16  H    0.133765
    17  H    0.191542
    18  H    0.194205
    19  N   -0.607330
    20  H    0.378395
    21  C   -0.066341
    22  H    0.185831
    23  C    0.645460
    24  C   -0.081143
    25  H    0.150229
    26  O   -0.556000
    27  C   -0.283473
    28  H    0.165339
    29  H    0.153831
    30  C   -0.460385
    31  H    0.170027
    32  H    0.133987
    33  H    0.162645
    34  C   -0.460931
    35  H    0.173618
    36  H    0.137328
    37  H    0.153164
    38  N   -0.620205
    39  H    0.373840
    40  C   -0.073140
    41  H    0.191262
    42  C    0.656181
    43  C   -0.385622
    44  H    0.169189
    45  H    0.189562
    46  O   -0.552931
    47  C    0.180219
    48  C   -0.147184
    49  H    0.140000
    50  C   -0.189690
    51  H    0.132313
    52  C   -0.131242
    53  H    0.139998
    54  C   -0.139459
    55  H    0.126257
    56  C   -0.149620
    57  H    0.120641
    58  N   -0.594268
    59  H    0.352087
    60  C   -0.088963
    61  H    0.180313
    62  C    0.639137
    63  C   -0.253496
    64  H    0.146028
    65  H    0.146699
    66  O   -0.558815
    67  C   -0.064649
    68  H    0.123303
    69  C   -0.443001
    70  H    0.144632
    71  H    0.143022
    72  H    0.141763
    73  C   -0.469633
    74  H    0.137474
    75  H    0.138007
    76  H    0.172497
    77  N   -0.647340
    78  H    0.370245
    79  C   -0.032469
    80  H    0.199183
    81  C    0.609767
    82  C   -0.290618
    83  H    0.110616
    84  H    0.201340
    85  O   -0.593733
    86  C   -0.361067
    87  H    0.146134
    88  H    0.127127
    89  C    0.580223
    90  O   -0.651024
    91  O   -0.515318
    92  N   -0.666066
    93  H    0.449623
    94  C   -0.055244
    95  H    0.199105
    96  C    0.635936
    97  C   -0.400855
    98  H    0.202864
    99  H    0.158566
   100  O   -0.568746
   101  C    0.587113
   102  N   -0.739183
   103  H    0.337422
   104  H    0.413570
   105  O   -0.582206
   106  N   -0.622924
   107  H    0.422192
   108  C   -0.033637
   109  H    0.148243
   110  C    0.638814
   111  C   -0.391639
   112  H    0.183735
   113  H    0.167027
   114  O   -0.530131
   115  C    0.157336
   116  C   -0.183106
   117  H    0.135957
   118  C   -0.179333
   119  H    0.133849
   120  C   -0.193061
   121  H    0.178936
   122  C   -0.194143
   123  H    0.138378
   124  O   -0.669470
   125  H    0.421327
   126  C    0.358630
   127  N   -0.609553
   128  H    0.344731
   129  C   -0.038009
   130  H    0.206836
   131  C    0.583364
   132  C   -0.276452
   133  H    0.143160
   134  H    0.165247
   135  O   -0.462976
   136  C   -0.329220
   137  H    0.177975
   138  H    0.222568
   139  C   -0.140459
   140  H    0.161536
   141  H    0.168165
   142  N   -0.635423
   143  H    0.409165
   144  N   -0.765353
   145  H    0.366304
   146  H    0.372746
   147  N   -0.793542
   148  H    0.352829
   149  H    0.428653
   150  C    0.804591
   151  O   -0.562434
   152  H    0.421614
 Sum of Mulliken charges =   1.00000

 Dipole moment (field-independent basis, Debye):
    X=            -13.9106    Y=            -12.1522    Z=              8.4051  Tot=             20.2935
 Quadrupole moment (field-independent basis, Debye-Ang):
   XX=             63.2179   YY=           -387.1623   ZZ=           -233.9392
   XY=            162.7392   XZ=           -361.9274   YZ=           -159.2305

 Normal termination of Gaussian 16 at Sun Aug 14 21:12:01 2022.
