 Gaussian 16, Revision C.01,
 Gaussian 16:  ES64L-G16RevC.01  3-Jul-2019

 ----------------------------------------------------------------------
 # B3LYP/6-31G* empiricaldispersion=gd3 guess=read geom=check nosymm in
 tegral(ultrafinegrid)
 ----------------------------------------------------------------------

 ------------------------------------------------------
 Candidate Structure: Conf:315 Charge calc in gas phase
 ------------------------------------------------------
 Structure from the checkpoint file:  "conf-315.chk"
 Charge =  1 Multiplicity = 1

                          Input orientation:
 ---------------------------------------------------------------------
 Center     Atomic      Atomic             Coordinates (Angstroms)
 Number     Number       Type             X           Y           Z
 ---------------------------------------------------------------------
      1          7           0       -6.486243   -5.579175    2.353397
      2          1           0       -6.528505   -6.046474    1.444009
      3          1           0       -5.531966   -5.769917    2.797104
      4          1           0       -7.248441   -5.928465    2.940019
      5          6           0       -6.457737   -4.064914    2.244543
      6          1           0       -6.778566   -3.790225    1.236848
      7          6           0       -4.951447   -3.760159    2.469236
      8          6           0       -7.394277   -3.430013    3.303762
      9          1           0       -8.375808   -3.905277    3.151174
     10          8           0       -4.252120   -4.670961    2.949180
     11          6           0       -6.922516   -3.708182    4.739745
     12          1           0       -5.964209   -3.217998    4.940211
     13          1           0       -7.655171   -3.316109    5.450623
     14          1           0       -6.798846   -4.776342    4.957924
     15          6           0       -7.579896   -1.924008    3.056457
     16          1           0       -6.671944   -1.352139    3.270938
     17          1           0       -7.884826   -1.714567    2.024506
     18          1           0       -8.367111   -1.545908    3.715215
     19          7           0       -4.539723   -2.543766    2.162207
     20          1           0       -5.175315   -1.823461    1.818742
     21          6           0       -3.200323   -2.018062    2.433172
     22          1           0       -2.848030   -2.468568    3.365472
     23          6           0       -3.434634   -0.505474    2.631760
     24          6           0       -2.214834   -2.392690    1.281147
     25          1           0       -2.240176   -3.492528    1.266538
     26          8           0       -4.484433    0.014543    2.248401
     27          6           0       -0.756583   -1.975392    1.558406
     28          1           0       -0.668672   -0.884795    1.512450
     29          1           0       -0.163717   -2.343697    0.712839
     30          6           0       -2.692948   -1.866602   -0.079732
     31          1           0       -2.727078   -0.775609   -0.088784
     32          1           0       -3.685828   -2.254666   -0.336782
     33          1           0       -1.996984   -2.179350   -0.864560
     34          6           0       -0.157120   -2.531954    2.856148
     35          1           0        0.897274   -2.260709    2.948697
     36          1           0       -0.645102   -2.148490    3.761224
     37          1           0       -0.234651   -3.625873    2.888277
     38          7           0       -2.455497    0.164098    3.281320
     39          1           0       -1.578346   -0.318765    3.435329
     40          6           0       -2.347522    1.610180    3.196744
     41          1           0       -3.337040    2.031780    3.402929
     42          6           0       -1.996475    2.007215    1.738295
     43          6           0       -1.343082    2.115131    4.263994
     44          1           0       -1.830138    2.033810    5.240997
     45          1           0       -1.152615    3.182030    4.101889
     46          8           0       -1.926134    1.157947    0.850399
     47          6           0       -0.036522    1.344831    4.285372
     48          6           0        0.229323    0.448632    5.330190
     49          1           0       -0.497139    0.332925    6.131756
     50          6           0        0.911663    1.483175    3.259729
     51          1           0        0.724816    2.173595    2.441779
     52          6           0        1.420288   -0.280115    5.363413
     53          1           0        1.614036   -0.962697    6.186143
     54          6           0        2.100487    0.753225    3.291966
     55          1           0        2.834756    0.876535    2.502078
     56          6           0        2.361436   -0.127898    4.345525
     57          1           0        3.289574   -0.688306    4.368057
     58          7           0       -1.829673    3.325041    1.492573
     59          1           0       -1.881679    3.996267    2.246662
     60          6           0       -1.685619    3.848037    0.123214
     61          1           0       -2.363711    3.257230   -0.499403
     62          6           0       -0.234569    3.634633   -0.375521
     63          6           0       -2.075181    5.326812    0.096928
     64          1           0       -1.377614    5.874445    0.743147
     65          1           0       -3.082286    5.420346    0.528511
     66          8           0        0.611851    4.523605   -0.318471
     67          6           0       -2.059742    5.977855   -1.300245
     68          1           0       -1.027341    5.936370   -1.666666
     69          6           0       -2.965083    5.245323   -2.301785
     70          1           0       -3.997480    5.187305   -1.931375
     71          1           0       -2.619895    4.224887   -2.504502
     72          1           0       -2.986311    5.775962   -3.260147
     73          6           0       -2.463979    7.453934   -1.180682
     74          1           0       -3.496721    7.551224   -0.820217
     75          1           0       -2.402408    7.956207   -2.152442
     76          1           0       -1.811152    7.991520   -0.483208
     77          7           0        0.002281    2.401692   -0.884634
     78          1           0       -0.664097    1.652180   -0.711595
     79          6           0        1.317575    2.020921   -1.370865
     80          1           0        1.668907    2.799232   -2.055588
     81          6           0        1.134327    0.686792   -2.102427
     82          6           0        2.350116    1.877439   -0.208302
     83          1           0        2.304998    0.859545    0.197289
     84          1           0        2.002984    2.552551    0.577467
     85          8           0        0.290207   -0.137512   -1.716617
     86          6           0        3.804699    2.280366   -0.521932
     87          1           0        3.795791    3.254565   -1.022713
     88          1           0        4.330550    2.394579    0.431302
     89          6           0        4.611172    1.290600   -1.372716
     90          8           0        4.504717    1.392175   -2.638621
     91          8           0        5.323410    0.447191   -0.763826
     92          7           0        1.987075    0.467228   -3.124295
     93          1           0        2.838920    1.053449   -3.135326
     94          6           0        2.171340   -0.866801   -3.703563
     95          1           0        1.180222   -1.328554   -3.777902
     96          6           0        3.059510   -1.707336   -2.758149
     97          6           0        2.839143   -0.692363   -5.081898
     98          1           0        2.084287   -0.346565   -5.797471
     99          1           0        3.594936    0.089270   -5.006004
    100          8           0        4.165245   -2.111028   -3.111859
    101          6           0        3.550909   -1.907319   -5.672881
    102          7           0        2.836872   -3.065525   -5.723034
    103          1           0        3.345535   -3.898372   -5.990010
    104          1           0        2.043998   -3.206925   -5.113133
    105          8           0        4.669420   -1.813534   -6.183829
    106          7           0        2.580658   -1.906772   -1.511479
    107          1           0        1.660928   -1.544333   -1.276208
    108          6           0        3.513177   -2.284307   -0.461470
    109          1           0        4.331596   -1.558472   -0.487592
    110          6           0        4.093361   -3.682374   -0.735674
    111          6           0        2.827073   -2.221609    0.912593
    112          1           0        2.253298   -1.285709    0.967298
    113          1           0        2.104448   -3.041711    0.988420
    114          8           0        3.473227   -4.560905   -1.317590
    115          6           0        3.819120   -2.279288    2.052129
    116          6           0        3.739831   -3.275425    3.032551
    117          1           0        2.951892   -4.022349    2.971199
    118          6           0        4.851771   -1.332138    2.145957
    119          1           0        4.951748   -0.550734    1.393658
    120          6           0        4.650038   -3.333850    4.084008
    121          1           0        4.593810   -4.110681    4.839570
    122          6           0        5.774955   -1.386581    3.189577
    123          1           0        6.573076   -0.648827    3.245544
    124          8           0        6.550155   -2.498931    5.206187
    125          1           0        7.242154   -1.824806    5.120046
    126          6           0        5.678828   -2.389625    4.162768
    127          7           0        5.385701   -3.827304   -0.303093
    128          1           0        5.744049   -3.189182    0.400253
    129          6           0        6.120362   -5.063114   -0.491189
    130          1           0        5.409445   -5.842305   -0.779537
    131          6           0        6.795080   -5.440372    0.818655
    132          6           0        7.197474   -4.895924   -1.595817
    133          1           0        7.903068   -4.130188   -1.240759
    134          1           0        7.772025   -5.824516   -1.684553
    135          8           0        6.983388   -4.678978    1.742341
    136          6           0        6.593981   -4.475164   -2.952463
    137          1           0        6.292485   -5.368914   -3.510018
    138          1           0        5.678144   -3.902441   -2.793121
    139          6           0        7.552444   -3.603772   -3.813622
    140          1           0        8.429748   -3.301405   -3.230249
    141          1           0        7.935499   -4.162955   -4.671131
    142          7           0        6.951360   -2.384306   -4.351684
    143          1           0        6.410956   -2.453600   -5.210315
    144          7           0        6.945791   -1.268866   -2.284952
    145          1           0        6.466591   -0.520419   -1.746262
    146          1           0        6.884354   -2.160158   -1.811161
    147          7           0        6.211345   -0.192128   -4.200196
    148          1           0        5.650364    0.458304   -3.616202
    149          1           0        5.890655   -0.315385   -5.155510
    150          6           0        6.671371   -1.297099   -3.603987
    151          8           0        7.217557   -6.721831    0.806287
    152          1           0        7.685227   -6.875213    1.649500
 ---------------------------------------------------------------------

 SCF Done:  E(RB3LYP) =  -3586.89345457     A.U. after    2 cycles

 Alpha  occ. eigenvalues --  -19.26341 -19.25900 -19.22916 -19.21446 -19.20295
 Alpha  occ. eigenvalues --  -19.20061 -19.18463 -19.18033 -19.17992 -19.16594
 Alpha  occ. eigenvalues --  -19.16593 -19.14523 -19.14439 -14.59653 -14.48820
 Alpha  occ. eigenvalues --  -14.44872 -14.44436 -14.41852 -14.41561 -14.41530
 Alpha  occ. eigenvalues --  -14.41295 -14.41109 -14.40469 -14.39577 -14.38891
 Alpha  occ. eigenvalues --  -10.42979 -10.40273 -10.38378 -10.38173 -10.36949
 Alpha  occ. eigenvalues --  -10.36783 -10.35890 -10.35072 -10.34608 -10.34401
 Alpha  occ. eigenvalues --  -10.33778 -10.33635 -10.33304 -10.32339 -10.32189
 Alpha  occ. eigenvalues --  -10.30465 -10.30356 -10.30247 -10.29595 -10.29498
 Alpha  occ. eigenvalues --  -10.29481 -10.28708 -10.28360 -10.28179 -10.28168
 Alpha  occ. eigenvalues --  -10.27774 -10.26938 -10.25988 -10.25905 -10.25707
 Alpha  occ. eigenvalues --  -10.25511 -10.25500 -10.25398 -10.25377 -10.25112
 Alpha  occ. eigenvalues --  -10.24999 -10.24660 -10.24547 -10.24509 -10.24465
 Alpha  occ. eigenvalues --  -10.24327 -10.24299 -10.24021 -10.23909 -10.23846
 Alpha  occ. eigenvalues --  -10.23842 -10.23653 -10.22402 -10.22167 -10.21700
 Alpha  occ. eigenvalues --   -1.18833  -1.16786  -1.13773  -1.13247  -1.11884
 Alpha  occ. eigenvalues --   -1.11023  -1.10703  -1.09877  -1.09391  -1.08475
 Alpha  occ. eigenvalues --   -1.08334  -1.07806  -1.07382  -1.05628  -1.05564
 Alpha  occ. eigenvalues --   -1.01947  -1.00412  -0.99304  -0.98481  -0.98022
 Alpha  occ. eigenvalues --   -0.97795  -0.97296  -0.96683  -0.95464  -0.94996
 Alpha  occ. eigenvalues --   -0.93105  -0.92492  -0.90873  -0.89946  -0.87371
 Alpha  occ. eigenvalues --   -0.86132  -0.86036  -0.85951  -0.85275  -0.84124
 Alpha  occ. eigenvalues --   -0.83205  -0.82368  -0.81385  -0.81171  -0.81039
 Alpha  occ. eigenvalues --   -0.80590  -0.80088  -0.79736  -0.78657  -0.78255
 Alpha  occ. eigenvalues --   -0.76813  -0.75245  -0.73989  -0.73803  -0.73733
 Alpha  occ. eigenvalues --   -0.73522  -0.72912  -0.72376  -0.71324  -0.70625
 Alpha  occ. eigenvalues --   -0.69772  -0.68966  -0.68859  -0.68517  -0.67722
 Alpha  occ. eigenvalues --   -0.67585  -0.67259  -0.67171  -0.66841  -0.66244
 Alpha  occ. eigenvalues --   -0.65842  -0.65238  -0.65056  -0.64629  -0.64432
 Alpha  occ. eigenvalues --   -0.64081  -0.63669  -0.63231  -0.62768  -0.62448
 Alpha  occ. eigenvalues --   -0.61941  -0.61608  -0.61236  -0.60290  -0.60130
 Alpha  occ. eigenvalues --   -0.59624  -0.59179  -0.59056  -0.58949  -0.58096
 Alpha  occ. eigenvalues --   -0.57679  -0.57208  -0.56627  -0.56496  -0.56191
 Alpha  occ. eigenvalues --   -0.56017  -0.55791  -0.55310  -0.55137  -0.54944
 Alpha  occ. eigenvalues --   -0.54362  -0.54259  -0.53825  -0.53562  -0.53365
 Alpha  occ. eigenvalues --   -0.53037  -0.52892  -0.52676  -0.52576  -0.52290
 Alpha  occ. eigenvalues --   -0.52215  -0.52024  -0.51850  -0.51557  -0.51420
 Alpha  occ. eigenvalues --   -0.51326  -0.50889  -0.50821  -0.50612  -0.50355
 Alpha  occ. eigenvalues --   -0.50280  -0.50182  -0.50007  -0.49638  -0.49545
 Alpha  occ. eigenvalues --   -0.49332  -0.49107  -0.48744  -0.48710  -0.48413
 Alpha  occ. eigenvalues --   -0.48296  -0.48104  -0.47984  -0.47699  -0.47532
 Alpha  occ. eigenvalues --   -0.47499  -0.47323  -0.47124  -0.47099  -0.46962
 Alpha  occ. eigenvalues --   -0.46938  -0.46792  -0.46762  -0.46681  -0.46225
 Alpha  occ. eigenvalues --   -0.45956  -0.45808  -0.45631  -0.45546  -0.45530
 Alpha  occ. eigenvalues --   -0.45217  -0.45112  -0.44613  -0.44346  -0.44088
 Alpha  occ. eigenvalues --   -0.43978  -0.43708  -0.43327  -0.43205  -0.43070
 Alpha  occ. eigenvalues --   -0.43019  -0.42819  -0.42474  -0.42338  -0.42196
 Alpha  occ. eigenvalues --   -0.41942  -0.41752  -0.41285  -0.41243  -0.41172
 Alpha  occ. eigenvalues --   -0.41076  -0.40725  -0.40628  -0.40493  -0.40445
 Alpha  occ. eigenvalues --   -0.40245  -0.40213  -0.39708  -0.39563  -0.39515
 Alpha  occ. eigenvalues --   -0.38824  -0.38605  -0.38014  -0.37993  -0.37735
 Alpha  occ. eigenvalues --   -0.37455  -0.37419  -0.37130  -0.35718  -0.35254
 Alpha  occ. eigenvalues --   -0.34789  -0.34553  -0.34016  -0.33588  -0.33309
 Alpha  occ. eigenvalues --   -0.32716  -0.32354  -0.32009  -0.31859  -0.31718
 Alpha  occ. eigenvalues --   -0.31331  -0.31234  -0.30642  -0.30582  -0.30513
 Alpha  occ. eigenvalues --   -0.30327  -0.29957  -0.29543  -0.29405  -0.28855
 Alpha  occ. eigenvalues --   -0.28145  -0.27007
 Alpha virt. eigenvalues --   -0.11778  -0.11037  -0.07768  -0.07633  -0.06850
 Alpha virt. eigenvalues --   -0.06611  -0.06222  -0.05958  -0.05593  -0.05182
 Alpha virt. eigenvalues --   -0.04433  -0.04397  -0.04173  -0.03889  -0.02993

 Mulliken charges:
               1
     1  N   -0.762199
     2  H    0.415628
     3  H    0.434695
     4  H    0.410166
     5  C   -0.107184
     6  H    0.209783
     7  C    0.654954
     8  C   -0.109752
     9  H    0.157452
    10  O   -0.554884
    11  C   -0.469096
    12  H    0.185949
    13  H    0.192692
    14  H    0.140614
    15  C   -0.481058
    16  H    0.191973
    17  H    0.165528
    18  H    0.187254
    19  N   -0.598703
    20  H    0.380169
    21  C   -0.095965
    22  H    0.190085
    23  C    0.655281
    24  C   -0.070468
    25  H    0.141790
    26  O   -0.550243
    27  C   -0.300690
    28  H    0.178708
    29  H    0.156424
    30  C   -0.478363
    31  H    0.213851
    32  H    0.110993
    33  H    0.167428
    34  C   -0.487052
    35  H    0.190375
    36  H    0.133342
    37  H    0.147750
    38  N   -0.613069
    39  H    0.373282
    40  C   -0.078787
    41  H    0.197425
    42  C    0.653050
    43  C   -0.374460
    44  H    0.171240
    45  H    0.164644
    46  O   -0.527659
    47  C    0.121315
    48  C   -0.193321
    49  H    0.131814
    50  C   -0.187283
    51  H    0.151386
    52  C   -0.127959
    53  H    0.143854
    54  C   -0.150152
    55  H    0.158137
    56  C   -0.128811
    57  H    0.167462
    58  N   -0.618918
    59  H    0.341001
    60  C   -0.048084
    61  H    0.176390
    62  C    0.630500
    63  C   -0.286309
    64  H    0.156762
    65  H    0.130616
    66  O   -0.535277
    67  C   -0.082999
    68  H    0.164178
    69  C   -0.454028
    70  H    0.137456
    71  H    0.143548
    72  H    0.153450
    73  C   -0.446644
    74  H    0.137004
    75  H    0.151002
    76  H    0.149275
    77  N   -0.640155
    78  H    0.386195
    79  C   -0.013825
    80  H    0.183700
    81  C    0.591149
    82  C   -0.313613
    83  H    0.150555
    84  H    0.182594
    85  O   -0.572461
    86  C   -0.332991
    87  H    0.169580
    88  H    0.154039
    89  C    0.591429
    90  O   -0.615966
    91  O   -0.566209
    92  N   -0.613768
    93  H    0.399902
    94  C   -0.091237
    95  H    0.175512
    96  C    0.645820
    97  C   -0.369797
    98  H    0.187381
    99  H    0.187510
   100  O   -0.536213
   101  C    0.630188
   102  N   -0.718271
   103  H    0.346588
   104  H    0.344260
   105  O   -0.553449
   106  N   -0.642768
   107  H    0.377598
   108  C   -0.065045
   109  H    0.214048
   110  C    0.646335
   111  C   -0.417806
   112  H    0.174991
   113  H    0.166036
   114  O   -0.535639
   115  C    0.144498
   116  C   -0.187288
   117  H    0.128323
   118  C   -0.246816
   119  H    0.192015
   120  C   -0.157679
   121  H    0.143947
   122  C   -0.201907
   123  H    0.135751
   124  O   -0.637537
   125  H    0.413333
   126  C    0.366101
   127  N   -0.626618
   128  H    0.361197
   129  C   -0.045430
   130  H    0.202780
   131  C    0.580826
   132  C   -0.287354
   133  H    0.143035
   134  H    0.171288
   135  O   -0.460174
   136  C   -0.322535
   137  H    0.151499
   138  H    0.224869
   139  C   -0.171855
   140  H    0.176661
   141  H    0.171574
   142  N   -0.600825
   143  H    0.376552
   144  N   -0.786797
   145  H    0.403428
   146  H    0.353189
   147  N   -0.792552
   148  H    0.410191
   149  H    0.359083
   150  C    0.753761
   151  O   -0.562310
   152  H    0.419326
 Sum of Mulliken charges =   1.00000

 Dipole moment (field-independent basis, Debye):
    X=            -20.1761    Y=            -20.3213    Z=             10.1980  Tot=             30.3978
 Quadrupole moment (field-independent basis, Debye-Ang):
   XX=           -217.1230   YY=           -317.0963   ZZ=           -377.5576
   XY=             67.5842   XZ=            -63.5535   YZ=            -15.5991

 Normal termination of Gaussian 16 at Sun Aug 14 21:12:48 2022.
