 Gaussian 16, Revision C.01,
 Gaussian 16:  ES64L-G16RevC.01  3-Jul-2019

 ----------------------------------------------------------------------
 # B3LYP/6-31G* empiricaldispersion=gd3 guess=read geom=check nosymm in
 tegral(ultrafinegrid)
 ----------------------------------------------------------------------

 ------------------------------------------------------
 Candidate Structure: Conf:217 Charge calc in gas phase
 ------------------------------------------------------
 Structure from the checkpoint file:  "conf-217.chk"
 Charge =  1 Multiplicity = 1

                          Input orientation:
 ---------------------------------------------------------------------
 Center     Atomic      Atomic             Coordinates (Angstroms)
 Number     Number       Type             X           Y           Z
 ---------------------------------------------------------------------
      1          7           0      -10.687259    5.509816    5.195821
      2          1           0      -11.414440    5.968636    4.643120
      3          1           0      -10.815165    4.444775    5.164782
      4          1           0      -10.745867    5.848601    6.159363
      5          6           0       -9.297305    5.646852    4.603605
      6          1           0       -9.377983    6.274170    3.711953
      7          6           0       -8.962495    4.181408    4.208058
      8          6           0       -8.297005    6.265454    5.604003
      9          1           0       -7.337454    6.272455    5.071436
     10          8           0       -9.776766    3.298242    4.533280
     11          6           0       -8.662525    7.720786    5.932147
     12          1           0       -9.601380    7.795781    6.498195
     13          1           0       -7.884982    8.170640    6.556134
     14          1           0       -8.761648    8.330142    5.027016
     15          6           0       -8.127372    5.410153    6.869537
     16          1           0       -9.042140    5.373644    7.477301
     17          1           0       -7.835917    4.381579    6.635983
     18          1           0       -7.350061    5.843249    7.505010
     19          7           0       -7.819347    3.990507    3.575761
     20          1           0       -7.167052    4.746733    3.354158
     21          6           0       -7.283130    2.684255    3.187239
     22          1           0       -7.466652    1.983657    4.006178
     23          6           0       -5.775727    2.949077    3.002461
     24          6           0       -7.969784    2.161298    1.886627
     25          1           0       -9.045062    2.222288    2.105898
     26          8           0       -5.383371    4.105916    2.812944
     27          6           0       -7.651648    0.687186    1.563576
     28          1           0       -6.606619    0.577104    1.254707
     29          1           0       -8.247147    0.427015    0.679164
     30          6           0       -7.656326    3.059238    0.681378
     31          1           0       -6.598069    2.997839    0.403562
     32          1           0       -7.887328    4.111865    0.878315
     33          1           0       -8.244730    2.742235   -0.185611
     34          6           0       -7.969136   -0.313997    2.680130
     35          1           0       -7.848473   -1.338703    2.316477
     36          1           0       -7.303552   -0.209964    3.546605
     37          1           0       -8.998259   -0.198601    3.041668
     38          7           0       -4.982649    1.866486    3.032173
     39          1           0       -5.399083    0.941159    3.081340
     40          6           0       -3.627432    1.849096    2.482872
     41          1           0       -3.431237    2.835814    2.058026
     42          6           0       -3.646315    0.764143    1.394337
     43          6           0       -2.569896    1.520875    3.562447
     44          1           0       -2.866164    0.587388    4.054486
     45          1           0       -2.613802    2.317350    4.315426
     46          8           0       -4.310486   -0.263509    1.572505
     47          6           0       -1.177542    1.388518    2.981471
     48          6           0       -0.553997    0.137491    2.895700
     49          1           0       -1.069770   -0.741829    3.276633
     50          6           0       -0.504980    2.511607    2.477818
     51          1           0       -0.972496    3.493422    2.543809
     52          6           0        0.723470    0.010202    2.345299
     53          1           0        1.226672   -0.950391    2.298948
     54          6           0        0.763039    2.383646    1.907522
     55          1           0        1.269032    3.263513    1.519099
     56          6           0        1.387970    1.134961    1.848683
     57          1           0        2.382868    1.018251    1.425930
     58          7           0       -2.933920    1.035224    0.289514
     59          1           0       -2.301605    1.830427    0.278410
     60          6           0       -2.709024    0.067474   -0.783568
     61          1           0       -2.979328   -0.917904   -0.396038
     62          6           0       -1.209459    0.170369   -1.089824
     63          6           0       -3.534323    0.412896   -2.037477
     64          1           0       -3.303251   -0.329157   -2.815140
     65          1           0       -3.169160    1.379191   -2.407309
     66          8           0       -0.695449    1.278293   -1.245786
     67          6           0       -5.057328    0.476778   -1.819175
     68          1           0       -5.244799    1.177082   -0.991428
     69          6           0       -5.741066    1.039805   -3.073448
     70          1           0       -5.584600    0.377426   -3.934498
     71          1           0       -5.347551    2.028794   -3.337058
     72          1           0       -6.823072    1.134824   -2.921726
     73          6           0       -5.654797   -0.884532   -1.434919
     74          1           0       -5.447279   -1.632838   -2.211283
     75          1           0       -6.744476   -0.811141   -1.331433
     76          1           0       -5.257387   -1.244217   -0.481847
     77          7           0       -0.506198   -0.979320   -1.136589
     78          1           0       -0.962602   -1.868020   -0.990873
     79          6           0        0.942730   -0.929182   -1.237899
     80          1           0        1.288448   -0.230780   -0.471068
     81          6           0        1.378246   -0.388724   -2.604151
     82          6           0        1.557703   -2.315785   -0.965043
     83          1           0        1.229863   -3.016815   -1.744128
     84          1           0        1.166332   -2.663253   -0.001359
     85          8           0        0.756986   -0.635773   -3.646660
     86          6           0        3.095852   -2.286233   -0.864485
     87          1           0        3.437742   -3.276295   -0.547577
     88          1           0        3.545246   -2.065581   -1.838465
     89          6           0        3.510092   -1.245301    0.206307
     90          8           0        3.964096   -0.112928   -0.227463
     91          8           0        3.285770   -1.532016    1.386786
     92          7           0        2.526024    0.317847   -2.555365
     93          1           0        2.997137    0.388741   -1.637949
     94          6           0        3.210108    0.676691   -3.778936
     95          1           0        3.121067   -0.183876   -4.456008
     96          6           0        4.724649    0.868354   -3.635549
     97          6           0        2.558992    1.911489   -4.477659
     98          1           0        1.625301    2.137956   -3.955778
     99          1           0        3.217814    2.778801   -4.437743
    100          8           0        5.341317    1.396992   -4.577634
    101          6           0        2.270254    1.612213   -5.935741
    102          7           0        1.309604    0.694676   -6.144821
    103          1           0        1.128620    0.380367   -7.088274
    104          1           0        0.932042    0.168110   -5.348060
    105          8           0        2.902479    2.170108   -6.850283
    106          7           0        5.321774    0.396198   -2.536399
    107          1           0        4.785068    0.060066   -1.707226
    108          6           0        6.763379    0.438385   -2.378822
    109          1           0        7.097381    1.480078   -2.271961
    110          6           0        7.469460   -0.193043   -3.591861
    111          6           0        7.143437   -0.357234   -1.097298
    112          1           0        6.683816    0.139646   -0.236418
    113          1           0        6.681301   -1.346563   -1.176665
    114          8           0        7.076300   -1.231858   -4.107416
    115          6           0        8.641551   -0.487178   -0.970720
    116          6           0        9.288994   -1.645182   -1.423466
    117          1           0        8.693683   -2.495534   -1.744394
    118          6           0        9.432200    0.593065   -0.561015
    119          1           0        8.955880    1.494689   -0.182310
    120          6           0       10.675234   -1.704816   -1.531806
    121          1           0       11.171917   -2.583836   -1.928294
    122          6           0       10.822026    0.553215   -0.673441
    123          1           0       11.419004    1.421109   -0.402209
    124          8           0       12.783520   -0.631764   -1.498091
    125          1           0       13.184295    0.221493   -1.267697
    126          6           0       11.437293   -0.582915   -1.202986
    127          7           0        8.598479    0.465730   -3.999418
    128          1           0        8.951492    1.227087   -3.431360
    129          6           0        9.587870   -0.188687   -4.847372
    130          1           0        9.384297   -1.261462   -4.822709
    131          6           0       10.959494    0.093287   -4.241170
    132          6           0        9.550094    0.300563   -6.312514
    133          1           0        9.961831    1.318303   -6.357331
    134          1           0       10.225808   -0.337266   -6.894137
    135          8           0       11.258476    1.162987   -3.749236
    136          6           0        8.128802    0.271065   -6.915292
    137          1           0        8.187046   -0.000865   -7.977547
    138          1           0        7.526398   -0.499441   -6.423882
    139          6           0        7.420507    1.627065   -6.752696
    140          1           0        7.331014    1.867151   -5.695744
    141          1           0        7.997995    2.433632   -7.226055
    142          7           0        6.047295    1.643861   -7.273663
    143          1           0        5.308294    1.631867   -6.562653
    144          7           0        6.696914    1.826452   -9.504925
    145          1           0        6.477598    1.567293  -10.455890
    146          1           0        7.662374    1.702771   -9.241843
    147          7           0        4.452467    1.588735   -8.967535
    148          1           0        4.235029    1.904350   -9.902795
    149          1           0        3.706208    1.713611   -8.259631
    150          6           0        5.728697    1.683853   -8.559385
    151          8           0       11.788815   -0.958016   -4.312867
    152          1           0       12.564456   -0.753541   -3.748061
 ---------------------------------------------------------------------

 SCF Done:  E(RB3LYP) =  -3586.85940630     A.U. after    2 cycles

 Alpha  occ. eigenvalues --  -19.26318 -19.24187 -19.22708 -19.20741 -19.18909
 Alpha  occ. eigenvalues --  -19.17780 -19.17666 -19.16286 -19.15787 -19.15771
 Alpha  occ. eigenvalues --  -19.15494 -19.10474 -19.08945 -14.59189 -14.48600
 Alpha  occ. eigenvalues --  -14.46075 -14.44421 -14.44170 -14.43619 -14.41787
 Alpha  occ. eigenvalues --  -14.40584 -14.40149 -14.40120 -14.38856 -14.38572
 Alpha  occ. eigenvalues --  -10.42825 -10.41278 -10.40041 -10.37729 -10.36910
 Alpha  occ. eigenvalues --  -10.34751 -10.34585 -10.34208 -10.33239 -10.33119
 Alpha  occ. eigenvalues --  -10.32909 -10.32680 -10.32148 -10.30664 -10.30405
 Alpha  occ. eigenvalues --  -10.29893 -10.28784 -10.28748 -10.28427 -10.28227
 Alpha  occ. eigenvalues --  -10.28146 -10.28013 -10.27687 -10.27337 -10.26224
 Alpha  occ. eigenvalues --  -10.25223 -10.25106 -10.24990 -10.24841 -10.24694
 Alpha  occ. eigenvalues --  -10.24354 -10.23657 -10.23585 -10.23169 -10.23004
 Alpha  occ. eigenvalues --  -10.22979 -10.22890 -10.22749 -10.22578 -10.22512
 Alpha  occ. eigenvalues --  -10.22406 -10.22319 -10.21981 -10.21925 -10.21587
 Alpha  occ. eigenvalues --  -10.21532 -10.21258 -10.20534 -10.20346 -10.19723
 Alpha  occ. eigenvalues --   -1.18700  -1.15361  -1.13234  -1.12580  -1.10206
 Alpha  occ. eigenvalues --   -1.09904  -1.09693  -1.08717  -1.08241  -1.08066
 Alpha  occ. eigenvalues --   -1.07147  -1.06799  -1.06404  -1.05365  -1.02702
 Alpha  occ. eigenvalues --   -1.00793  -0.99108  -0.98331  -0.97965  -0.97084
 Alpha  occ. eigenvalues --   -0.96895  -0.96813  -0.95561  -0.95239  -0.95022
 Alpha  occ. eigenvalues --   -0.93852  -0.90056  -0.89272  -0.88574  -0.86150
 Alpha  occ. eigenvalues --   -0.85929  -0.85863  -0.84228  -0.83701  -0.82573
 Alpha  occ. eigenvalues --   -0.81805  -0.81492  -0.81217  -0.80602  -0.79676
 Alpha  occ. eigenvalues --   -0.79430  -0.78604  -0.76950  -0.76913  -0.76749
 Alpha  occ. eigenvalues --   -0.75058  -0.74281  -0.73802  -0.73464  -0.72604
 Alpha  occ. eigenvalues --   -0.72511  -0.72117  -0.71205  -0.71162  -0.70672
 Alpha  occ. eigenvalues --   -0.70122  -0.69344  -0.69035  -0.67638  -0.66860
 Alpha  occ. eigenvalues --   -0.66738  -0.66284  -0.65970  -0.65565  -0.65165
 Alpha  occ. eigenvalues --   -0.64891  -0.64250  -0.63489  -0.63254  -0.63003
 Alpha  occ. eigenvalues --   -0.62873  -0.62623  -0.62440  -0.61715  -0.61584
 Alpha  occ. eigenvalues --   -0.61337  -0.61197  -0.60728  -0.59632  -0.59322
 Alpha  occ. eigenvalues --   -0.59289  -0.58586  -0.58511  -0.58278  -0.57870
 Alpha  occ. eigenvalues --   -0.57852  -0.57133  -0.56497  -0.56042  -0.55340
 Alpha  occ. eigenvalues --   -0.54858  -0.54813  -0.54138  -0.54017  -0.53876
 Alpha  occ. eigenvalues --   -0.53648  -0.53478  -0.53330  -0.53119  -0.52594
 Alpha  occ. eigenvalues --   -0.52333  -0.52258  -0.52096  -0.51879  -0.51700
 Alpha  occ. eigenvalues --   -0.51598  -0.51363  -0.50735  -0.50686  -0.50526
 Alpha  occ. eigenvalues --   -0.50254  -0.49956  -0.49912  -0.49880  -0.49759
 Alpha  occ. eigenvalues --   -0.49033  -0.49011  -0.48664  -0.48536  -0.48340
 Alpha  occ. eigenvalues --   -0.48061  -0.47895  -0.47799  -0.47692  -0.47364
 Alpha  occ. eigenvalues --   -0.47297  -0.47137  -0.47096  -0.47068  -0.46865
 Alpha  occ. eigenvalues --   -0.46718  -0.46531  -0.46223  -0.46025  -0.45881
 Alpha  occ. eigenvalues --   -0.45629  -0.45361  -0.44898  -0.44635  -0.44468
 Alpha  occ. eigenvalues --   -0.44368  -0.44308  -0.43983  -0.43814  -0.43662
 Alpha  occ. eigenvalues --   -0.43631  -0.43378  -0.43208  -0.42948  -0.42857
 Alpha  occ. eigenvalues --   -0.42733  -0.42675  -0.42443  -0.41948  -0.41846
 Alpha  occ. eigenvalues --   -0.41517  -0.41346  -0.41142  -0.40984  -0.40850
 Alpha  occ. eigenvalues --   -0.40632  -0.40488  -0.40375  -0.40289  -0.40139
 Alpha  occ. eigenvalues --   -0.40012  -0.39820  -0.39581  -0.38857  -0.38625
 Alpha  occ. eigenvalues --   -0.38358  -0.38142  -0.37588  -0.37456  -0.37123
 Alpha  occ. eigenvalues --   -0.36967  -0.36936  -0.36894  -0.36810  -0.36694
 Alpha  occ. eigenvalues --   -0.36526  -0.36310  -0.36271  -0.35489  -0.34788
 Alpha  occ. eigenvalues --   -0.34111  -0.33787  -0.32820  -0.32427  -0.32036
 Alpha  occ. eigenvalues --   -0.31903  -0.31477  -0.30783  -0.30745  -0.30392
 Alpha  occ. eigenvalues --   -0.29767  -0.29430  -0.29118  -0.28959  -0.28725
 Alpha  occ. eigenvalues --   -0.28556  -0.27545  -0.26826  -0.25925  -0.25481
 Alpha  occ. eigenvalues --   -0.24871  -0.22926
 Alpha virt. eigenvalues --   -0.11710  -0.10821  -0.06695  -0.06348  -0.05909
 Alpha virt. eigenvalues --   -0.04876  -0.04121  -0.04037  -0.03781  -0.03716
 Alpha virt. eigenvalues --   -0.03311  -0.02941  -0.02843  -0.02064  -0.01865

 Mulliken charges:
               1
     1  N   -0.764974
     2  H    0.414424
     3  H    0.435877
     4  H    0.408490
     5  C   -0.099641
     6  H    0.213562
     7  C    0.655882
     8  C   -0.124940
     9  H    0.192261
    10  O   -0.554414
    11  C   -0.461979
    12  H    0.138047
    13  H    0.199707
    14  H    0.171861
    15  C   -0.476258
    16  H    0.140797
    17  H    0.188964
    18  H    0.199398
    19  N   -0.608777
    20  H    0.376031
    21  C   -0.073817
    22  H    0.188928
    23  C    0.624739
    24  C   -0.081787
    25  H    0.149125
    26  O   -0.553107
    27  C   -0.296959
    28  H    0.184450
    29  H    0.152152
    30  C   -0.465210
    31  H    0.174031
    32  H    0.132294
    33  H    0.163659
    34  C   -0.461031
    35  H    0.175511
    36  H    0.136068
    37  H    0.151525
    38  N   -0.606413
    39  H    0.368363
    40  C   -0.075443
    41  H    0.184752
    42  C    0.636522
    43  C   -0.343047
    44  H    0.157078
    45  H    0.161336
    46  O   -0.557192
    47  C    0.155267
    48  C   -0.192041
    49  H    0.123670
    50  C   -0.208859
    51  H    0.115155
    52  C   -0.153803
    53  H    0.187227
    54  C   -0.117231
    55  H    0.130243
    56  C   -0.153652
    57  H    0.191741
    58  N   -0.590058
    59  H    0.363545
    60  C   -0.069637
    61  H    0.170243
    62  C    0.649164
    63  C   -0.251927
    64  H    0.145379
    65  H    0.153707
    66  O   -0.548977
    67  C   -0.077756
    68  H    0.123604
    69  C   -0.442023
    70  H    0.146041
    71  H    0.141579
    72  H    0.134995
    73  C   -0.467456
    74  H    0.136647
    75  H    0.133238
    76  H    0.180807
    77  N   -0.613769
    78  H    0.334524
    79  C   -0.056712
    80  H    0.212928
    81  C    0.651654
    82  C   -0.310940
    83  H    0.144432
    84  H    0.166470
    85  O   -0.578660
    86  C   -0.345645
    87  H    0.154813
    88  H    0.130796
    89  C    0.592533
    90  O   -0.641880
    91  O   -0.540614
    92  N   -0.649033
    93  H    0.393518
    94  C   -0.043291
    95  H    0.192105
    96  C    0.629125
    97  C   -0.352791
    98  H    0.200813
    99  H    0.186516
   100  O   -0.585416
   101  C    0.574938
   102  N   -0.742585
   103  H    0.331407
   104  H    0.409361
   105  O   -0.566107
   106  N   -0.667170
   107  H    0.425105
   108  C   -0.005802
   109  H    0.146179
   110  C    0.640395
   111  C   -0.402190
   112  H    0.199566
   113  H    0.178190
   114  O   -0.541260
   115  C    0.152127
   116  C   -0.186322
   117  H    0.151030
   118  C   -0.206348
   119  H    0.136384
   120  C   -0.161287
   121  H    0.147520
   122  C   -0.164034
   123  H    0.129961
   124  O   -0.663918
   125  H    0.416740
   126  C    0.334418
   127  N   -0.613602
   128  H    0.349979
   129  C   -0.015258
   130  H    0.198560
   131  C    0.590937
   132  C   -0.285625
   133  H    0.150767
   134  H    0.161706
   135  O   -0.483977
   136  C   -0.290363
   137  H    0.119624
   138  H    0.208933
   139  C   -0.181974
   140  H    0.229317
   141  H    0.149534
   142  N   -0.605354
   143  H    0.408948
   144  N   -0.756821
   145  H    0.361322
   146  H    0.372130
   147  N   -0.785587
   148  H    0.346595
   149  H    0.415172
   150  C    0.781608
   151  O   -0.572689
   152  H    0.428667
 Sum of Mulliken charges =   1.00000

 Dipole moment (field-independent basis, Debye):
    X=            -26.1527    Y=             25.1428    Z=             -1.7214  Tot=             36.3192
 Quadrupole moment (field-independent basis, Debye-Ang):
   XX=             75.9538   YY=           -308.7822   ZZ=           -154.8230
   XY=           -185.3699   XZ=           -314.9677   YZ=             95.9619

 Normal termination of Gaussian 16 at Sun Aug 14 21:11:45 2022.
