 Gaussian 16, Revision C.01,
 Gaussian 16:  ES64L-G16RevC.01  3-Jul-2019

 ----------------------------------------------------------------------
 # B3LYP/6-31G* empiricaldispersion=gd3 guess=read geom=check nosymm in
 tegral(ultrafinegrid)
 ----------------------------------------------------------------------

 ------------------------------------------------------
 Candidate Structure: Conf:549 Charge calc in gas phase
 ------------------------------------------------------
 Structure from the checkpoint file:  "conf-549.chk"
 Charge =  1 Multiplicity = 1

                          Input orientation:
 ---------------------------------------------------------------------
 Center     Atomic      Atomic             Coordinates (Angstroms)
 Number     Number       Type             X           Y           Z
 ---------------------------------------------------------------------
      1          7           0      -11.060657    5.406597    2.818841
      2          1           0      -11.792219    5.589572    2.128732
      3          1           0      -11.030867    4.360616    3.056376
      4          1           0      -11.256524    5.958874    3.657423
      5          6           0       -9.656531    5.617330    2.284555
      6          1           0       -9.744369    5.990949    1.260993
      7          6           0       -9.082696    4.172825    2.288154
      8          6           0       -8.848170    6.609317    3.148413
      9          1           0       -7.854972    6.639963    2.682468
     10          8           0       -9.787373    3.276423    2.787051
     11          6           0       -9.443015    8.023779    3.080008
     12          1           0      -10.430789    8.082785    3.557788
     13          1           0       -8.796750    8.728187    3.611501
     14          1           0       -9.543958    8.373804    2.046723
     15          6           0       -8.675049    6.121768    4.595594
     16          1           0       -9.626709    6.088265    5.143900
     17          1           0       -8.222632    5.126545    4.644012
     18          1           0       -8.026802    6.812539    5.141726
     19          7           0       -7.875032    4.019610    1.777493
     20          1           0       -7.315265    4.795159    1.412423
     21          6           0       -7.127800    2.760583    1.752393
     22          1           0       -7.247451    2.274057    2.724464
     23          6           0       -5.666283    3.209765    1.542131
     24          6           0       -7.653763    1.815648    0.630083
     25          1           0       -8.734294    1.745515    0.817256
     26          8           0       -5.427757    4.356782    1.140599
     27          6           0       -7.088183    0.382191    0.708594
     28          1           0       -6.022642    0.375565    0.449532
     29          1           0       -7.586905   -0.193114   -0.081500
     30          6           0       -7.429420    2.419829   -0.762772
     31          1           0       -6.361990    2.480332   -1.002921
     32          1           0       -7.846636    3.429625   -0.844320
     33          1           0       -7.907225    1.797278   -1.525861
     34          6           0       -7.302679   -0.333241    2.048032
     35          1           0       -7.009991   -1.384429    1.969940
     36          1           0       -6.704123    0.097214    2.860566
     37          1           0       -8.354467   -0.294109    2.356504
     38          7           0       -4.735635    2.284519    1.789998
     39          1           0       -4.975022    1.337704    2.076970
     40          6           0       -3.325588    2.434429    1.464443
     41          1           0       -3.236578    3.049495    0.563631
     42          6           0       -2.826350    1.000976    1.194426
     43          6           0       -2.550141    3.124944    2.621584
     44          1           0       -2.714162    2.541576    3.534743
     45          1           0       -3.018059    4.106035    2.764854
     46          8           0       -3.458765    0.033947    1.639659
     47          6           0       -1.074131    3.256952    2.328656
     48          6           0       -0.144818    2.402526    2.936904
     49          1           0       -0.488435    1.685975    3.680267
     50          6           0       -0.624030    4.162735    1.357825
     51          1           0       -1.337034    4.831470    0.877746
     52          6           0        1.203329    2.445929    2.582555
     53          1           0        1.923789    1.773534    3.036046
     54          6           0        0.724533    4.201461    0.996266
     55          1           0        1.065528    4.885598    0.224065
     56          6           0        1.640160    3.343548    1.606650
     57          1           0        2.687694    3.352463    1.334725
     58          7           0       -1.696190    0.897396    0.483884
     59          1           0       -1.198035    1.719653    0.157555
     60          6           0       -1.038613   -0.380593    0.233424
     61          1           0       -1.160782   -1.000511    1.126424
     62          6           0        0.432180   -0.057601   -0.036959
     63          6           0       -1.664858   -1.072677   -1.000405
     64          1           0       -1.527034   -0.400435   -1.853462
     65          1           0       -2.740788   -1.157774   -0.799799
     66          8           0        0.735291    0.940856   -0.694028
     67          6           0       -1.098051   -2.458437   -1.356533
     68          1           0       -0.017335   -2.358686   -1.517041
     69          6           0       -1.335966   -3.495237   -0.248854
     70          1           0       -2.407894   -3.602894   -0.039262
     71          1           0       -0.848765   -3.227085    0.697794
     72          1           0       -0.950782   -4.478053   -0.543582
     73          6           0       -1.710046   -2.925409   -2.685012
     74          1           0       -2.798777   -3.040382   -2.598138
     75          1           0       -1.298124   -3.896028   -2.987740
     76          1           0       -1.502552   -2.194326   -3.473108
     77          7           0        1.346532   -0.946203    0.424877
     78          1           0        1.026791   -1.794884    0.872711
     79          6           0        2.763772   -0.834350    0.076861
     80          1           0        2.897215    0.219422   -0.187382
     81          6           0        3.086543   -1.651966   -1.192687
     82          6           0        3.695341   -1.191099    1.240057
     83          1           0        3.808124   -2.277763    1.304027
     84          1           0        3.247239   -0.821537    2.166412
     85          8           0        3.996778   -2.467155   -1.246666
     86          6           0        5.074165   -0.538683    1.060521
     87          1           0        5.763719   -0.901455    1.833628
     88          1           0        5.511710   -0.799382    0.093841
     89          6           0        4.981875    0.975173    1.194846
     90          8           0        5.878015    1.626974    0.459110
     91          8           0        4.146576    1.525724    1.898386
     92          7           0        2.262503   -1.385362   -2.258815
     93          1           0        1.699338   -0.541373   -2.193512
     94          6           0        2.729564   -1.723569   -3.586182
     95          1           0        3.063666   -2.765922   -3.571948
     96          6           0        3.951021   -0.837630   -3.925579
     97          6           0        1.593716   -1.569367   -4.624738
     98          1           0        1.986399   -1.747146   -5.631377
     99          1           0        0.826711   -2.317864   -4.416322
    100          8           0        4.310886    0.070005   -3.185952
    101          6           0        0.914771   -0.199560   -4.538074
    102          7           0        1.494972    0.806910   -5.234178
    103          1           0        1.117787    1.732414   -5.077990
    104          1           0        2.424090    0.764958   -5.653751
    105          8           0       -0.089293   -0.043862   -3.842639
    106          7           0        4.581622   -1.096466   -5.102059
    107          1           0        4.276487   -1.856932   -5.692900
    108          6           0        5.673848   -0.249152   -5.556639
    109          1           0        6.529760   -0.370644   -4.881336
    110          6           0        5.210678    1.219853   -5.542727
    111          6           0        6.091050   -0.633599   -6.992130
    112          1           0        6.395156   -1.688280   -6.994793
    113          1           0        5.208346   -0.536150   -7.635411
    114          8           0        4.141413    1.554301   -6.065407
    115          6           0        7.211273    0.249383   -7.492865
    116          6           0        6.933178    1.419771   -8.214208
    117          1           0        5.902179    1.658425   -8.463155
    118          6           0        8.542657   -0.023889   -7.163138
    119          1           0        8.785776   -0.925445   -6.604678
    120          6           0        7.947026    2.292668   -8.592998
    121          1           0        7.734481    3.197514   -9.153246
    122          6           0        9.570913    0.841312   -7.535403
    123          1           0       10.601226    0.611454   -7.271355
    124          8           0       10.227112    2.901450   -8.643251
    125          1           0       11.098388    2.593505   -8.348889
    126          6           0        9.273832    2.006803   -8.250248
    127          7           0        6.068233    2.092162   -4.991260
    128          1           0        6.930682    1.771300   -4.568254
    129          6           0        5.758846    3.500819   -4.828453
    130          1           0        5.449195    3.914468   -5.794914
    131          6           0        7.040563    4.194815   -4.397037
    132          6           0        4.623414    3.735999   -3.799796
    133          1           0        4.460425    4.818432   -3.724223
    134          1           0        3.719362    3.290670   -4.228552
    135          8           0        8.061173    3.628958   -4.070133
    136          6           0        4.902760    3.110313   -2.428773
    137          1           0        5.086261    2.042200   -2.552647
    138          1           0        5.799916    3.543873   -1.971078
    139          6           0        3.724133    3.277539   -1.462495
    140          1           0        2.776002    3.030013   -1.952373
    141          1           0        3.817403    2.591183   -0.622959
    142          7           0        3.592481    4.626095   -0.904540
    143          1           0        3.292140    5.343045   -1.552904
    144          7           0        5.352773    4.310972    0.597698
    145          1           0        5.787305    4.740754    1.412213
    146          1           0        5.704846    2.626173    0.529948
    147          7           0        4.232431    6.415098    0.404769
    148          1           0        4.749217    6.735240    1.214387
    149          1           0        3.254670    6.679662    0.459141
    150          6           0        4.448084    5.074523    0.074853
    151          8           0        6.894226    5.534906   -4.389426
    152          1           0        7.739425    5.908671   -4.075624
 ---------------------------------------------------------------------

 SCF Done:  E(RB3LYP) =  -3586.86143297     A.U. after    3 cycles

 Alpha  occ. eigenvalues --  -19.26553 -19.25381 -19.21891 -19.20920 -19.19833
 Alpha  occ. eigenvalues --  -19.19428 -19.18042 -19.17280 -19.17153 -19.17030
 Alpha  occ. eigenvalues --  -19.16126 -19.15564 -19.15449 -14.59434 -14.48800
 Alpha  occ. eigenvalues --  -14.44200 -14.42109 -14.41930 -14.41783 -14.41156
 Alpha  occ. eigenvalues --  -14.40601 -14.40162 -14.39631 -14.38939 -14.35193
 Alpha  occ. eigenvalues --  -10.43055 -10.40286 -10.37875 -10.37733 -10.35048
 Alpha  occ. eigenvalues --  -10.34489 -10.34369 -10.34187 -10.34076 -10.34064
 Alpha  occ. eigenvalues --  -10.33685 -10.33337 -10.33273 -10.32809 -10.30947
 Alpha  occ. eigenvalues --  -10.30705 -10.30541 -10.29159 -10.29156 -10.29101
 Alpha  occ. eigenvalues --  -10.29099 -10.28419 -10.28274 -10.27406 -10.25689
 Alpha  occ. eigenvalues --  -10.25610 -10.25505 -10.25310 -10.25265 -10.25119
 Alpha  occ. eigenvalues --  -10.24645 -10.24380 -10.23641 -10.23585 -10.23517
 Alpha  occ. eigenvalues --  -10.23433 -10.23256 -10.23248 -10.23168 -10.23154
 Alpha  occ. eigenvalues --  -10.22646 -10.22606 -10.22568 -10.22396 -10.22327
 Alpha  occ. eigenvalues --  -10.22188 -10.22066 -10.21658 -10.21126 -10.20543
 Alpha  occ. eigenvalues --   -1.18933  -1.16358  -1.13457  -1.12743  -1.11145
 Alpha  occ. eigenvalues --   -1.10051  -1.09970  -1.09955  -1.09083  -1.08588
 Alpha  occ. eigenvalues --   -1.07641  -1.07407  -1.07169  -1.05579  -1.03462
 Alpha  occ. eigenvalues --   -1.02301  -1.01007  -0.98501  -0.98392  -0.98153
 Alpha  occ. eigenvalues --   -0.98083  -0.96643  -0.95296  -0.94150  -0.93957
 Alpha  occ. eigenvalues --   -0.90501  -0.90161  -0.89905  -0.89873  -0.86420
 Alpha  occ. eigenvalues --   -0.85995  -0.85353  -0.84666  -0.84034  -0.83518
 Alpha  occ. eigenvalues --   -0.82379  -0.82160  -0.81846  -0.80198  -0.79739
 Alpha  occ. eigenvalues --   -0.79261  -0.79030  -0.78543  -0.77812  -0.77244
 Alpha  occ. eigenvalues --   -0.76003  -0.74064  -0.73700  -0.72957  -0.72651
 Alpha  occ. eigenvalues --   -0.72420  -0.72214  -0.72025  -0.70959  -0.70823
 Alpha  occ. eigenvalues --   -0.70282  -0.69513  -0.68317  -0.67293  -0.66901
 Alpha  occ. eigenvalues --   -0.66622  -0.66330  -0.65979  -0.65258  -0.64940
 Alpha  occ. eigenvalues --   -0.64770  -0.64589  -0.64053  -0.63692  -0.63212
 Alpha  occ. eigenvalues --   -0.63062  -0.62511  -0.62200  -0.61950  -0.61371
 Alpha  occ. eigenvalues --   -0.61012  -0.60068  -0.59953  -0.59582  -0.59247
 Alpha  occ. eigenvalues --   -0.58868  -0.58593  -0.58157  -0.57951  -0.57666
 Alpha  occ. eigenvalues --   -0.57481  -0.57104  -0.56646  -0.56135  -0.55794
 Alpha  occ. eigenvalues --   -0.55110  -0.55074  -0.54458  -0.54239  -0.54162
 Alpha  occ. eigenvalues --   -0.53876  -0.53356  -0.53204  -0.53115  -0.52635
 Alpha  occ. eigenvalues --   -0.52468  -0.52168  -0.52062  -0.51621  -0.51458
 Alpha  occ. eigenvalues --   -0.51260  -0.51114  -0.50995  -0.50830  -0.50654
 Alpha  occ. eigenvalues --   -0.50465  -0.50380  -0.50158  -0.50119  -0.49917
 Alpha  occ. eigenvalues --   -0.49651  -0.49463  -0.49160  -0.48996  -0.48524
 Alpha  occ. eigenvalues --   -0.48410  -0.48267  -0.48220  -0.48126  -0.47710
 Alpha  occ. eigenvalues --   -0.47661  -0.47470  -0.47379  -0.47260  -0.46971
 Alpha  occ. eigenvalues --   -0.46817  -0.46686  -0.46415  -0.46316  -0.46066
 Alpha  occ. eigenvalues --   -0.46014  -0.45827  -0.45548  -0.45350  -0.45126
 Alpha  occ. eigenvalues --   -0.45037  -0.44728  -0.44664  -0.44597  -0.44273
 Alpha  occ. eigenvalues --   -0.43991  -0.43922  -0.43789  -0.43506  -0.43318
 Alpha  occ. eigenvalues --   -0.43240  -0.42897  -0.42396  -0.42376  -0.42124
 Alpha  occ. eigenvalues --   -0.41980  -0.41884  -0.41648  -0.41574  -0.41367
 Alpha  occ. eigenvalues --   -0.40888  -0.40764  -0.40740  -0.40681  -0.40142
 Alpha  occ. eigenvalues --   -0.40019  -0.39909  -0.39725  -0.39671  -0.39538
 Alpha  occ. eigenvalues --   -0.38800  -0.38444  -0.38256  -0.38014  -0.37924
 Alpha  occ. eigenvalues --   -0.37907  -0.37821  -0.37348  -0.37325  -0.37234
 Alpha  occ. eigenvalues --   -0.36900  -0.36418  -0.36252  -0.35073  -0.34144
 Alpha  occ. eigenvalues --   -0.33445  -0.33024  -0.32863  -0.32687  -0.32422
 Alpha  occ. eigenvalues --   -0.32252  -0.31790  -0.31568  -0.31166  -0.31010
 Alpha  occ. eigenvalues --   -0.30586  -0.30464  -0.30336  -0.29980  -0.29346
 Alpha  occ. eigenvalues --   -0.29293  -0.29186  -0.29156  -0.28385  -0.28230
 Alpha  occ. eigenvalues --   -0.27980  -0.26017
 Alpha virt. eigenvalues --   -0.11940  -0.11080  -0.06853  -0.06556  -0.05032
 Alpha virt. eigenvalues --   -0.04747  -0.04517  -0.04501  -0.04361  -0.03969
 Alpha virt. eigenvalues --   -0.03828  -0.03483  -0.03345  -0.02572  -0.02160

 Mulliken charges:
               1
     1  N   -0.764911
     2  H    0.414793
     3  H    0.435915
     4  H    0.408468
     5  C   -0.099398
     6  H    0.213692
     7  C    0.655633
     8  C   -0.124969
     9  H    0.191785
    10  O   -0.554624
    11  C   -0.461940
    12  H    0.138507
    13  H    0.198915
    14  H    0.172135
    15  C   -0.476176
    16  H    0.141276
    17  H    0.188681
    18  H    0.198350
    19  N   -0.610419
    20  H    0.375945
    21  C   -0.070466
    22  H    0.189288
    23  C    0.630179
    24  C   -0.081923
    25  H    0.151918
    26  O   -0.563986
    27  C   -0.282366
    28  H    0.163991
    29  H    0.153960
    30  C   -0.461330
    31  H    0.169568
    32  H    0.131842
    33  H    0.165216
    34  C   -0.461398
    35  H    0.175163
    36  H    0.141751
    37  H    0.152113
    38  N   -0.623665
    39  H    0.380030
    40  C   -0.057020
    41  H    0.182266
    42  C    0.627986
    43  C   -0.343806
    44  H    0.154141
    45  H    0.167165
    46  O   -0.563813
    47  C    0.148274
    48  C   -0.183610
    49  H    0.124115
    50  C   -0.208590
    51  H    0.122062
    52  C   -0.141977
    53  H    0.165364
    54  C   -0.127206
    55  H    0.114028
    56  C   -0.132506
    57  H    0.182471
    58  N   -0.609337
    59  H    0.370488
    60  C   -0.039129
    61  H    0.164780
    62  C    0.627066
    63  C   -0.274209
    64  H    0.193470
    65  H    0.144978
    66  O   -0.550244
    67  C   -0.096779
    68  H    0.148251
    69  C   -0.447716
    70  H    0.148651
    71  H    0.119569
    72  H    0.149861
    73  C   -0.461102
    74  H    0.132196
    75  H    0.133601
    76  H    0.175521
    77  N   -0.606606
    78  H    0.340858
    79  C   -0.091608
    80  H    0.219112
    81  C    0.635271
    82  C   -0.272811
    83  H    0.155622
    84  H    0.162515
    85  O   -0.521197
    86  C   -0.358744
    87  H    0.173414
    88  H    0.196502
    89  C    0.575496
    90  O   -0.612701
    91  O   -0.494984
    92  N   -0.607069
    93  H    0.379695
    94  C   -0.089272
    95  H    0.191929
    96  C    0.644635
    97  C   -0.359664
    98  H    0.151782
    99  H    0.194865
   100  O   -0.520174
   101  C    0.567054
   102  N   -0.760311
   103  H    0.335540
   104  H    0.393886
   105  O   -0.517699
   106  N   -0.626892
   107  H    0.336725
   108  C    0.005071
   109  H    0.164501
   110  C    0.672487
   111  C   -0.402013
   112  H    0.158957
   113  H    0.168157
   114  O   -0.581376
   115  C    0.149893
   116  C   -0.183688
   117  H    0.146176
   118  C   -0.192068
   119  H    0.132099
   120  C   -0.162684
   121  H    0.146021
   122  C   -0.188283
   123  H    0.129257
   124  O   -0.637965
   125  H    0.411806
   126  C    0.354858
   127  N   -0.596112
   128  H    0.362652
   129  C   -0.022412
   130  H    0.191873
   131  C    0.590416
   132  C   -0.288966
   133  H    0.140799
   134  H    0.165808
   135  O   -0.465272
   136  C   -0.299650
   137  H    0.208152
   138  H    0.158664
   139  C   -0.166162
   140  H    0.163187
   141  H    0.187934
   142  N   -0.592507
   143  H    0.325861
   144  N   -0.704479
   145  H    0.291583
   146  H    0.473571
   147  N   -0.764487
   148  H    0.330528
   149  H    0.333200
   150  C    0.655319
   151  O   -0.567737
   152  H    0.421059
 Sum of Mulliken charges =   1.00000

 Dipole moment (field-independent basis, Debye):
    X=            -30.9913    Y=             25.1926    Z=              4.7986  Tot=             40.2263
 Quadrupole moment (field-independent basis, Debye-Ang):
   XX=             35.4583   YY=           -255.4122   ZZ=           -373.6469
   XY=           -202.6400   XZ=           -146.5770   YZ=             69.6900

 Normal termination of Gaussian 16 at Sun Aug 14 21:13:06 2022.
