 Gaussian 16, Revision C.01,
 Gaussian 16:  ES64L-G16RevC.01  3-Jul-2019

 ----------------------------------------------------------------------
 # B3LYP/6-31G* empiricaldispersion=gd3 guess=read geom=check nosymm in
 tegral(ultrafinegrid)
 ----------------------------------------------------------------------

 ------------------------------------------------------
 Candidate Structure: Conf:929 Charge calc in gas phase
 ------------------------------------------------------
 Structure from the checkpoint file:  "conf-929.chk"
 Charge =  1 Multiplicity = 1

                          Input orientation:
 ---------------------------------------------------------------------
 Center     Atomic      Atomic             Coordinates (Angstroms)
 Number     Number       Type             X           Y           Z
 ---------------------------------------------------------------------
      1          7           0        2.155131    0.300364    4.061499
      2          1           0        2.494880    0.993338    4.722905
      3          1           0        2.820574   -0.471506    4.071707
      4          1           0        2.341003    0.663162    2.195588
      5          6           0        0.824959   -0.183481    4.450320
      6          1           0        0.852384   -0.785240    5.376138
      7          6           0        0.324894   -1.050675    3.287107
      8          6           0       -0.162114    0.989958    4.667742
      9          1           0       -0.249600    1.505455    3.705986
     10          8           0        0.471995   -0.681406    2.116840
     11          6           0       -1.551553    0.471892    5.065311
     12          1           0       -1.510730   -0.074779    6.017406
     13          1           0       -2.242723    1.310209    5.186105
     14          1           0       -1.979209   -0.187654    4.305545
     15          6           0        0.346247    1.992263    5.713920
     16          1           0        0.519883    1.506341    6.682966
     17          1           0        1.269743    2.496964    5.407731
     18          1           0       -0.403251    2.776075    5.864261
     19          7           0       -0.281399   -2.211173    3.619107
     20          1           0       -0.493377   -2.383664    4.592379
     21          6           0       -0.901340   -3.088171    2.620817
     22          1           0       -0.282940   -2.983122    1.724023
     23          6           0       -2.318287   -2.554224    2.283161
     24          6           0       -0.842439   -4.564916    3.058588
     25          1           0        0.230580   -4.775652    3.179949
     26          8           0       -3.356177   -3.053589    2.710787
     27          6           0       -1.367360   -5.462419    1.918553
     28          1           0       -0.964615   -5.092243    0.964307
     29          1           0       -2.455923   -5.356801    1.855724
     30          6           0       -1.540279   -4.851981    4.398825
     31          1           0       -2.607003   -4.631195    4.333774
     32          1           0       -1.115252   -4.263372    5.223463
     33          1           0       -1.411140   -5.901811    4.678964
     34          6           0       -0.984973   -6.938221    2.070176
     35          1           0       -1.327563   -7.519195    1.207502
     36          1           0        0.104430   -7.058407    2.142231
     37          1           0       -1.429086   -7.387799    2.964456
     38          7           0       -2.298831   -1.445845    1.499916
     39          1           0       -1.415216   -1.143593    1.107381
     40          6           0       -3.526698   -0.829212    1.015261
     41          1           0       -4.224070   -1.648754    0.795582
     42          6           0       -3.203825   -0.179434   -0.343516
     43          6           0       -4.217272    0.041509    2.082225
     44          1           0       -4.298092   -0.590536    2.974757
     45          1           0       -5.254764    0.209054    1.760419
     46          8           0       -2.406860   -0.729630   -1.105986
     47          6           0       -3.601756    1.382728    2.458723
     48          6           0       -2.369820    1.848629    1.981352
     49          1           0       -1.765768    1.240645    1.317659
     50          6           0       -4.330198    2.212677    3.326340
     51          1           0       -5.290745    1.869497    3.705062
     52          6           0       -1.892527    3.110796    2.345637
     53          1           0       -0.949448    3.462626    1.937716
     54          6           0       -3.846076    3.461773    3.710595
     55          1           0       -4.430159    4.083269    4.383753
     56          6           0       -2.621724    3.919682    3.215484
     57          1           0       -2.249591    4.901322    3.494005
     58          7           0       -3.847819    0.970975   -0.649853
     59          1           0       -4.311850    1.482358    0.088133
     60          6           0       -3.588536    1.717080   -1.885588
     61          1           0       -3.472365    0.968777   -2.674771
     62          6           0       -2.255805    2.513519   -1.791241
     63          6           0       -4.757756    2.653909   -2.193091
     64          1           0       -4.532137    3.164607   -3.137123
     65          1           0       -4.776050    3.445001   -1.432572
     66          8           0       -2.220680    3.737322   -1.712046
     67          6           0       -6.135570    1.973366   -2.289847
     68          1           0       -6.362285    1.511181   -1.317311
     69          6           0       -7.213872    3.029970   -2.569556
     70          1           0       -7.044635    3.510392   -3.541669
     71          1           0       -7.212742    3.816155   -1.805249
     72          1           0       -8.212388    2.578740   -2.589957
     73          6           0       -6.167036    0.865288   -3.352132
     74          1           0       -5.883445    1.261661   -4.335909
     75          1           0       -7.173739    0.441849   -3.442511
     76          1           0       -5.485091    0.042497   -3.109959
     77          7           0       -1.141785    1.735458   -1.826973
     78          1           0       -1.237119    0.728434   -1.951235
     79          6           0        0.178714    2.299903   -2.035028
     80          1           0        0.090332    3.140578   -2.735732
     81          6           0        1.022892    1.195197   -2.686224
     82          6           0        0.802261    2.872875   -0.735448
     83          1           0        0.064296    3.589421   -0.363022
     84          1           0        1.703644    3.440177   -0.989048
     85          8           0        0.586208    0.034037   -2.769516
     86          6           0        1.134839    1.840634    0.353268
     87          1           0        0.885958    2.222641    1.349934
     88          1           0        0.524273    0.936151    0.241674
     89          6           0        2.597135    1.403235    0.368736
     90          8           0        3.379664    1.605690   -0.535708
     91          8           0        3.008242    0.734128    1.461213
     92          7           0        2.231880    1.556811   -3.135342
     93          1           0        2.538115    2.520376   -3.043810
     94          6           0        3.172832    0.647048   -3.785282
     95          1           0        2.606682    0.063250   -4.523054
     96          6           0        3.816223   -0.358935   -2.788466
     97          6           0        4.294557    1.447348   -4.472936
     98          1           0        4.965414    1.827323   -3.697470
     99          1           0        4.878522    0.760331   -5.091505
    100          8           0        5.034937   -0.406389   -2.600310
    101          6           0        3.775046    2.652442   -5.248185
    102          7           0        3.858256    2.587205   -6.603393
    103          1           0        3.556171    3.389401   -7.139813
    104          1           0        4.316112    1.829925   -7.086784
    105          8           0        3.295290    3.622020   -4.664732
    106          7           0        2.940549   -1.188228   -2.176871
    107          1           0        1.943029   -1.050551   -2.363297
    108          6           0        3.368356   -1.981055   -1.036836
    109          1           0        4.094758   -1.377911   -0.479900
    110          6           0        4.072465   -3.271852   -1.486116
    111          6           0        2.187395   -2.325208   -0.107896
    112          1           0        1.701194   -1.394786    0.193613
    113          1           0        1.460894   -2.930019   -0.658506
    114          8           0        3.515458   -4.368908   -1.497605
    115          6           0        2.668204   -3.072904    1.121210
    116          6           0        2.422794   -4.440947    1.290868
    117          1           0        1.822065   -4.968434    0.557847
    118          6           0        3.469334   -2.421464    2.072497
    119          1           0        3.672593   -1.361946    1.949518
    120          6           0        2.989880   -5.156771    2.353531
    121          1           0        2.797813   -6.217675    2.482740
    122          6           0        4.048938   -3.121527    3.131505
    123          1           0        4.707336   -2.614536    3.834905
    124          8           0        4.488715   -5.259415    4.222132
    125          1           0        4.426247   -4.815692    5.083785
    126          6           0        3.819314   -4.492942    3.258139
    127          7           0        5.403999   -3.149812   -1.742301
    128          1           0        5.783139   -2.215143   -1.880583
    129          6           0        6.218141   -4.345490   -1.742818
    130          1           0        6.089385   -4.939002   -2.655459
    131          6           0        5.770526   -5.264286   -0.607007
    132          6           0        7.716612   -3.990472   -1.569467
    133          1           0        8.042612   -3.484701   -2.483637
    134          1           0        7.793935   -3.246590   -0.766955
    135          8           0        5.822732   -6.481277   -0.655002
    136          6           0        8.611140   -5.224678   -1.284702
    137          1           0        8.044445   -6.141508   -1.468122
    138          1           0        9.452519   -5.248589   -1.985032
    139          6           0        9.238059   -5.280094    0.128404
    140          1           0        9.574419   -6.295043    0.356670
    141          1           0       10.117751   -4.630430    0.167138
    142          7           0        8.387596   -4.833389    1.248138
    143          1           0        8.334400   -3.834821    1.397812
    144          7           0        7.321896   -6.842627    1.753340
    145          1           0        6.881475   -7.405865    2.469730
    146          1           0        7.016088   -7.033684    0.795994
    147          7           0        7.249847   -5.072634    3.254585
    148          1           0        6.343857   -5.329839    3.659782
    149          1           0        7.642869   -4.195682    3.568160
    150          6           0        7.639812   -5.576500    2.070857
    151          8           0        5.476695   -4.585244    0.520279
    152          1           0        4.918830   -5.144065    1.096669
 ---------------------------------------------------------------------

 SCF Done:  E(RB3LYP) =  -3586.87788139     A.U. after    1 cycles

 Alpha  occ. eigenvalues --  -19.29891 -19.29001 -19.24377 -19.22947 -19.20405
 Alpha  occ. eigenvalues --  -19.19541 -19.18680 -19.18553 -19.18084 -19.17928
 Alpha  occ. eigenvalues --  -19.17876 -19.17455 -19.16008 -14.51720 -14.50646
 Alpha  occ. eigenvalues --  -14.50095 -14.44912 -14.43417 -14.42474 -14.42226
 Alpha  occ. eigenvalues --  -14.42171 -14.41987 -14.41839 -14.41619 -14.39574
 Alpha  occ. eigenvalues --  -10.47330 -10.42388 -10.37109 -10.36647 -10.35975
 Alpha  occ. eigenvalues --  -10.35510 -10.35407 -10.35353 -10.35326 -10.35247
 Alpha  occ. eigenvalues --  -10.35211 -10.34934 -10.33332 -10.32969 -10.31018
 Alpha  occ. eigenvalues --  -10.30900 -10.30454 -10.30285 -10.30281 -10.30102
 Alpha  occ. eigenvalues --  -10.29903 -10.29517 -10.28967 -10.28818 -10.28619
 Alpha  occ. eigenvalues --  -10.28462 -10.28325 -10.28240 -10.26732 -10.26311
 Alpha  occ. eigenvalues --  -10.26167 -10.26155 -10.26095 -10.25834 -10.25419
 Alpha  occ. eigenvalues --  -10.25064 -10.25007 -10.24993 -10.24987 -10.24872
 Alpha  occ. eigenvalues --  -10.24861 -10.24531 -10.24086 -10.24082 -10.23588
 Alpha  occ. eigenvalues --  -10.23450 -10.23402 -10.22846 -10.21451 -10.21270
 Alpha  occ. eigenvalues --   -1.20605  -1.16851  -1.15718  -1.13990  -1.12260
 Alpha  occ. eigenvalues --   -1.11850  -1.11412  -1.10706  -1.10261  -1.09794
 Alpha  occ. eigenvalues --   -1.09433  -1.09312  -1.07662  -1.05740  -1.05303
 Alpha  occ. eigenvalues --   -1.03584  -1.01113  -1.00663  -0.99300  -0.98843
 Alpha  occ. eigenvalues --   -0.98695  -0.98675  -0.98378  -0.96741  -0.96603
 Alpha  occ. eigenvalues --   -0.95250  -0.91686  -0.91020  -0.88052  -0.87459
 Alpha  occ. eigenvalues --   -0.86800  -0.86281  -0.85984  -0.85644  -0.84771
 Alpha  occ. eigenvalues --   -0.84695  -0.84106  -0.81643  -0.81443  -0.80561
 Alpha  occ. eigenvalues --   -0.80381  -0.79737  -0.78999  -0.77813  -0.77643
 Alpha  occ. eigenvalues --   -0.77527  -0.75776  -0.75052  -0.74984  -0.73780
 Alpha  occ. eigenvalues --   -0.72921  -0.72633  -0.72583  -0.72298  -0.71605
 Alpha  occ. eigenvalues --   -0.70549  -0.70308  -0.69750  -0.68894  -0.68771
 Alpha  occ. eigenvalues --   -0.68554  -0.67613  -0.66685  -0.66532  -0.65795
 Alpha  occ. eigenvalues --   -0.65650  -0.65368  -0.65290  -0.64919  -0.64743
 Alpha  occ. eigenvalues --   -0.64628  -0.64502  -0.63936  -0.63785  -0.63352
 Alpha  occ. eigenvalues --   -0.63191  -0.61640  -0.61475  -0.61155  -0.60674
 Alpha  occ. eigenvalues --   -0.60164  -0.60110  -0.59472  -0.59396  -0.59068
 Alpha  occ. eigenvalues --   -0.58797  -0.58333  -0.58067  -0.57588  -0.57417
 Alpha  occ. eigenvalues --   -0.57323  -0.56688  -0.56568  -0.56043  -0.55880
 Alpha  occ. eigenvalues --   -0.55455  -0.55313  -0.55151  -0.54719  -0.54561
 Alpha  occ. eigenvalues --   -0.54054  -0.53749  -0.53490  -0.53310  -0.53186
 Alpha  occ. eigenvalues --   -0.52886  -0.52703  -0.52406  -0.52167  -0.52034
 Alpha  occ. eigenvalues --   -0.51667  -0.51463  -0.51350  -0.51324  -0.51154
 Alpha  occ. eigenvalues --   -0.50524  -0.50393  -0.50072  -0.49776  -0.49569
 Alpha  occ. eigenvalues --   -0.49303  -0.49147  -0.49059  -0.48935  -0.48464
 Alpha  occ. eigenvalues --   -0.48403  -0.48344  -0.47961  -0.47917  -0.47667
 Alpha  occ. eigenvalues --   -0.47532  -0.47465  -0.47306  -0.47115  -0.46986
 Alpha  occ. eigenvalues --   -0.46843  -0.46432  -0.46350  -0.46162  -0.46026
 Alpha  occ. eigenvalues --   -0.45708  -0.45665  -0.45557  -0.45445  -0.45282
 Alpha  occ. eigenvalues --   -0.45127  -0.45055  -0.44869  -0.44472  -0.44249
 Alpha  occ. eigenvalues --   -0.44186  -0.44151  -0.43811  -0.43722  -0.43347
 Alpha  occ. eigenvalues --   -0.43285  -0.43191  -0.42690  -0.42557  -0.42463
 Alpha  occ. eigenvalues --   -0.42198  -0.42002  -0.41868  -0.41755  -0.41607
 Alpha  occ. eigenvalues --   -0.41555  -0.41455  -0.41135  -0.40917  -0.40699
 Alpha  occ. eigenvalues --   -0.40629  -0.40444  -0.40343  -0.40296  -0.40051
 Alpha  occ. eigenvalues --   -0.39656  -0.39531  -0.39205  -0.38964  -0.38727
 Alpha  occ. eigenvalues --   -0.37804  -0.36917  -0.36775  -0.36723  -0.36190
 Alpha  occ. eigenvalues --   -0.35494  -0.35326  -0.35024  -0.34659  -0.34283
 Alpha  occ. eigenvalues --   -0.33907  -0.33713  -0.33542  -0.33198  -0.32976
 Alpha  occ. eigenvalues --   -0.32404  -0.32129  -0.31995  -0.31426  -0.31330
 Alpha  occ. eigenvalues --   -0.30901  -0.30860  -0.30688  -0.30451  -0.30072
 Alpha  occ. eigenvalues --   -0.29365  -0.28629
 Alpha virt. eigenvalues --   -0.12852  -0.10933  -0.10109  -0.09989  -0.07702
 Alpha virt. eigenvalues --   -0.07174  -0.06694  -0.06177  -0.05933  -0.05235
 Alpha virt. eigenvalues --   -0.04983  -0.04951  -0.04114  -0.04031  -0.03627

 Mulliken charges:
               1
     1  N   -0.775852
     2  H    0.329552
     3  H    0.316744
     4  H    0.485447
     5  C   -0.034369
     6  H    0.114533
     7  C    0.642494
     8  C   -0.084626
     9  H    0.168188
    10  O   -0.567631
    11  C   -0.479965
    12  H    0.133032
    13  H    0.177812
    14  H    0.164347
    15  C   -0.470267
    16  H    0.145327
    17  H    0.144227
    18  H    0.172164
    19  N   -0.608744
    20  H    0.343583
    21  C   -0.080468
    22  H    0.180915
    23  C    0.633167
    24  C   -0.081094
    25  H    0.126483
    26  O   -0.530095
    27  C   -0.272596
    28  H    0.130457
    29  H    0.176412
    30  C   -0.480029
    31  H    0.204384
    32  H    0.113578
    33  H    0.154238
    34  C   -0.454090
    35  H    0.159053
    36  H    0.126513
    37  H    0.155999
    38  N   -0.608154
    39  H    0.369613
    40  C   -0.031624
    41  H    0.203223
    42  C    0.588694
    43  C   -0.385266
    44  H    0.199533
    45  H    0.161792
    46  O   -0.538624
    47  C    0.130135
    48  C   -0.185470
    49  H    0.141401
    50  C   -0.180330
    51  H    0.137309
    52  C   -0.141664
    53  H    0.143841
    54  C   -0.131612
    55  H    0.144810
    56  C   -0.132159
    57  H    0.143215
    58  N   -0.601688
    59  H    0.350997
    60  C   -0.072327
    61  H    0.184098
    62  C    0.617713
    63  C   -0.281322
    64  H    0.157048
    65  H    0.156980
    66  O   -0.525583
    67  C   -0.069949
    68  H    0.114316
    69  C   -0.442446
    70  H    0.146880
    71  H    0.143563
    72  H    0.146314
    73  C   -0.453059
    74  H    0.144282
    75  H    0.148876
    76  H    0.149413
    77  N   -0.646359
    78  H    0.401746
    79  C   -0.056631
    80  H    0.192293
    81  C    0.625216
    82  C   -0.276787
    83  H    0.186443
    84  H    0.167860
    85  O   -0.574976
    86  C   -0.413225
    87  H    0.161444
    88  H    0.209285
    89  C    0.606360
    90  O   -0.474607
    91  O   -0.637712
    92  N   -0.588891
    93  H    0.378700
    94  C   -0.054562
    95  H    0.186103
    96  C    0.666883
    97  C   -0.388658
    98  H    0.215817
    99  H    0.156795
   100  O   -0.557045
   101  C    0.607870
   102  N   -0.744029
   103  H    0.354326
   104  H    0.344675
   105  O   -0.515033
   106  N   -0.645230
   107  H    0.402221
   108  C   -0.050897
   109  H    0.185123
   110  C    0.656694
   111  C   -0.399100
   112  H    0.206550
   113  H    0.176511
   114  O   -0.536574
   115  C    0.156567
   116  C   -0.165370
   117  H    0.180518
   118  C   -0.200123
   119  H    0.200547
   120  C   -0.227400
   121  H    0.164462
   122  C   -0.189787
   123  H    0.119603
   124  O   -0.677762
   125  H    0.425289
   126  C    0.300331
   127  N   -0.641924
   128  H    0.373346
   129  C    0.028307
   130  H    0.198635
   131  C    0.606312
   132  C   -0.313809
   133  H    0.191481
   134  H    0.139921
   135  O   -0.502993
   136  C   -0.307744
   137  H    0.192524
   138  H    0.180231
   139  C   -0.167060
   140  H    0.201223
   141  H    0.189526
   142  N   -0.579826
   143  H    0.360631
   144  N   -0.744013
   145  H    0.372422
   146  H    0.409346
   147  N   -0.776331
   148  H    0.404490
   149  H    0.360891
   150  C    0.753733
   151  O   -0.588831
   152  H    0.422448
 Sum of Mulliken charges =   1.00000

 Dipole moment (field-independent basis, Debye):
    X=             26.1984    Y=            -16.0665    Z=             11.3489  Tot=             32.7610
 Quadrupole moment (field-independent basis, Debye-Ang):
   XX=           -200.0196   YY=           -362.6964   ZZ=           -318.8062
   XY=           -140.5682   XZ=             30.1069   YZ=            -42.6174

 Normal termination of Gaussian 16 at Sun Aug 14 21:10:34 2022.
