 Gaussian 16, Revision C.01,
 Gaussian 16:  ES64L-G16RevC.01  3-Jul-2019

 ----------------------------------------------------------------------
 # B3LYP/6-31G* empiricaldispersion=gd3 guess=read geom=check nosymm in
 tegral(ultrafinegrid)
 ----------------------------------------------------------------------

 -----------------------------------------------------
 Candidate Structure: Conf:34 Charge calc in gas phase
 -----------------------------------------------------
 Structure from the checkpoint file:  "conf-34.chk"
 Charge =  1 Multiplicity = 1

                          Input orientation:
 ---------------------------------------------------------------------
 Center     Atomic      Atomic             Coordinates (Angstroms)
 Number     Number       Type             X           Y           Z
 ---------------------------------------------------------------------
      1          7           0       -3.271766   -0.252149    5.132262
      2          1           0       -3.591253   -1.155014    5.500663
      3          1           0       -2.281659   -0.418231    4.849605
      4          1           0       -3.287993    0.464287    5.861451
      5          6           0       -4.099164    0.152805    3.924507
      6          1           0       -5.055349    0.529608    4.305016
      7          6           0       -4.262090   -1.171461    3.152848
      8          6           0       -3.340930    1.256928    3.135820
      9          1           0       -2.455431    0.796726    2.690325
     10          8           0       -3.541626   -2.122238    3.466174
     11          6           0       -4.184257    1.853040    1.998302
     12          1           0       -5.133332    2.262527    2.369607
     13          1           0       -3.604900    2.662422    1.548255
     14          1           0       -4.381928    1.142664    1.192521
     15          6           0       -2.846105    2.384712    4.056501
     16          1           0       -3.676695    2.903842    4.552533
     17          1           0       -2.135390    2.041832    4.819692
     18          1           0       -2.299878    3.097992    3.434720
     19          7           0       -5.160127   -1.204837    2.146882
     20          1           0       -5.625560   -0.339212    1.898205
     21          6           0       -4.967915   -2.148656    1.016221
     22          1           0       -4.629997   -3.094620    1.446601
     23          6           0       -3.854509   -1.446033    0.209090
     24          6           0       -6.257802   -2.352052    0.213657
     25          1           0       -6.561318   -1.364497   -0.162575
     26          8           0       -4.140278   -0.538590   -0.567686
     27          6           0       -7.378360   -2.920457    1.105177
     28          1           0       -7.454860   -2.314333    2.017421
     29          1           0       -7.093256   -3.930244    1.434316
     30          6           0       -5.956351   -3.244888   -1.000168
     31          1           0       -5.621873   -4.240118   -0.680050
     32          1           0       -5.181422   -2.802928   -1.633414
     33          1           0       -6.848820   -3.376106   -1.617435
     34          6           0       -8.750543   -2.965606    0.424073
     35          1           0       -9.519724   -3.305823    1.125328
     36          1           0       -9.043442   -1.972405    0.062136
     37          1           0       -8.762050   -3.648729   -0.431116
     38          7           0       -2.580855   -1.754727    0.561334
     39          1           0       -2.454183   -2.411887    1.322334
     40          6           0       -1.503854   -0.785413    0.357128
     41          1           0       -1.733957    0.130099    0.911274
     42          6           0       -1.362423   -0.392271   -1.123360
     43          6           0       -0.177685   -1.334436    0.916095
     44          1           0        0.593259   -0.601050    0.659181
     45          1           0        0.056502   -2.286335    0.431623
     46          8           0       -1.304418   -1.230320   -2.028260
     47          6           0       -0.219233   -1.497311    2.422969
     48          6           0       -0.130307   -0.363013    3.247556
     49          1           0       -0.004547    0.610108    2.781788
     50          6           0       -0.342609   -2.756909    3.022533
     51          1           0       -0.372032   -3.644018    2.397760
     52          6           0       -0.136512   -0.497405    4.640348
     53          1           0        0.017076    0.382640    5.262821
     54          6           0       -0.376010   -2.891852    4.413209
     55          1           0       -0.461756   -3.879749    4.856032
     56          6           0       -0.262168   -1.765540    5.230018
     57          1           0       -0.235764   -1.873678    6.311701
     58          7           0       -1.251299    0.946795   -1.276692
     59          1           0       -1.408744    1.522004   -0.443959
     60          6           0       -1.191227    1.640498   -2.550667
     61          1           0       -1.210944    0.885239   -3.335292
     62          6           0        0.076726    2.493299   -2.741708
     63          6           0       -2.397033    2.594422   -2.726303
     64          1           0       -2.293865    3.064424   -3.710492
     65          1           0       -2.304196    3.399750   -1.982628
     66          8           0        0.237934    3.097362   -3.806081
     67          6           0       -3.777111    1.933792   -2.583082
     68          1           0       -3.867247    1.550415   -1.562130
     69          6           0       -4.871382    2.988795   -2.799945
     70          1           0       -4.839854    3.386733   -3.822490
     71          1           0       -4.756554    3.834616   -2.110709
     72          1           0       -5.866550    2.557393   -2.641130
     73          6           0       -3.962510    0.743378   -3.533606
     74          1           0       -3.801998    1.044556   -4.578379
     75          1           0       -4.980045    0.345857   -3.451837
     76          1           0       -3.279685   -0.076992   -3.291925
     77          7           0        0.914681    2.598952   -1.686681
     78          1           0        0.849416    1.947102   -0.909483
     79          6           0        1.828004    3.714626   -1.512579
     80          1           0        1.466635    4.511060   -2.174823
     81          6           0        3.243474    3.347046   -1.997473
     82          6           0        1.818091    4.206181   -0.033384
     83          1           0        2.144775    5.252836   -0.023583
     84          1           0        2.546347    3.629620    0.542996
     85          8           0        3.445384    2.406496   -2.779261
     86          6           0        0.461447    4.083682    0.673070
     87          1           0        0.491241    4.673898    1.598804
     88          1           0       -0.354152    4.501315    0.072500
     89          6           0        0.077885    2.636841    1.068210
     90          8           0       -1.149946    2.417158    1.300523
     91          8           0        0.994209    1.764417    1.086810
     92          7           0        4.259628    4.079037   -1.495801
     93          1           0        4.078384    4.962023   -1.023865
     94          6           0        5.663058    3.819970   -1.837536
     95          1           0        5.695771    3.482964   -2.879548
     96          6           0        6.163696    2.678205   -0.899237
     97          6           0        6.535232    5.071877   -1.630475
     98          1           0        6.758081    5.156622   -0.562379
     99          1           0        7.491153    4.911302   -2.137693
    100          8           0        6.983875    2.868576   -0.009123
    101          6           0        5.856643    6.370094   -2.047647
    102          7           0        6.446946    7.075949   -3.044669
    103          1           0        6.050333    7.971467   -3.296563
    104          1           0        7.329534    6.808853   -3.453143
    105          8           0        4.825427    6.755205   -1.494140
    106          7           0        5.528894    1.493299   -1.109206
    107          1           0        4.794914    1.481891   -1.818038
    108          6           0        5.378691    0.506954   -0.054240
    109          1           0        6.351430    0.079163    0.211053
    110          6           0        4.434184   -0.571567   -0.578199
    111          6           0        4.733619    1.136696    1.234764
    112          1           0        5.388860    1.960789    1.529118
    113          1           0        3.756197    1.548565    0.959311
    114          8           0        3.589245   -0.292408   -1.442878
    115          6           0        4.585184    0.125490    2.341737
    116          6           0        3.321391   -0.372317    2.691743
    117          1           0        2.435817    0.089240    2.262064
    118          6           0        5.715963   -0.443546    2.943291
    119          1           0        6.703549   -0.049326    2.713856
    120          6           0        3.191534   -1.453278    3.560691
    121          1           0        2.220994   -1.867269    3.805130
    122          6           0        5.601018   -1.536368    3.803947
    123          1           0        6.491206   -1.993777    4.231439
    124          8           0        4.158011   -3.233522    4.782378
    125          1           0        4.993061   -3.477447    5.212948
    126          6           0        4.336644   -2.063211    4.077366
    127          7           0        4.476022   -1.794645   -0.005833
    128          1           0        5.090828   -1.949034    0.784750
    129          6           0        3.293120   -2.645781   -0.128561
    130          1           0        2.423039   -1.983859   -0.141295
    131          6           0        3.098289   -3.534281    1.089683
    132          6           0        3.263429   -3.510977   -1.421039
    133          1           0        3.791274   -2.961620   -2.206958
    134          1           0        3.838462   -4.427614   -1.254144
    135          8           0        2.012836   -3.939710    1.443025
    136          6           0        1.809003   -3.836189   -1.837027
    137          1           0        1.738521   -4.878127   -2.165659
    138          1           0        1.163647   -3.762329   -0.956553
    139          6           0        1.225224   -2.988087   -2.981498
    140          1           0        1.564572   -3.379195   -3.948944
    141          1           0        0.136944   -3.075483   -2.942633
    142          7           0        1.596830   -1.566691   -2.913368
    143          1           0        2.359265   -1.261439   -2.300925
    144          7           0        0.118454   -0.964556   -4.595564
    145          1           0       -0.154775   -0.248627   -5.257515
    146          1           0       -0.662650   -1.348262   -4.064485
    147          7           0        1.866947    0.468587   -3.998580
    148          1           0        1.387411    1.270688   -4.398157
    149          1           0        2.620399    0.755867   -3.371557
    150          6           0        1.195055   -0.669638   -3.813015
    151          8           0        4.256254   -3.859935    1.694998
    152          1           0        4.041813   -4.293567    2.545969
 ---------------------------------------------------------------------

 SCF Done:  E(RB3LYP) =  -3586.90468308     A.U. after    2 cycles

 Alpha  occ. eigenvalues --  -19.28279 -19.25584 -19.24166 -19.22623 -19.21712
 Alpha  occ. eigenvalues --  -19.20085 -19.19135 -19.18833 -19.18118 -19.18070
 Alpha  occ. eigenvalues --  -19.17429 -19.14922 -19.14812 -14.57692 -14.47752
 Alpha  occ. eigenvalues --  -14.45104 -14.44490 -14.44381 -14.44217 -14.43608
 Alpha  occ. eigenvalues --  -14.42740 -14.42646 -14.42118 -14.41401 -14.41256
 Alpha  occ. eigenvalues --  -10.41376 -10.40922 -10.40737 -10.38082 -10.38039
 Alpha  occ. eigenvalues --  -10.37003 -10.35975 -10.35869 -10.35826 -10.34962
 Alpha  occ. eigenvalues --  -10.34680 -10.32848 -10.32594 -10.32383 -10.31885
 Alpha  occ. eigenvalues --  -10.31106 -10.30772 -10.30528 -10.30498 -10.30377
 Alpha  occ. eigenvalues --  -10.29736 -10.29296 -10.28208 -10.28095 -10.28020
 Alpha  occ. eigenvalues --  -10.27831 -10.27630 -10.27472 -10.27240 -10.27117
 Alpha  occ. eigenvalues --  -10.27106 -10.26728 -10.26559 -10.26400 -10.26219
 Alpha  occ. eigenvalues --  -10.26208 -10.26061 -10.25845 -10.25488 -10.25450
 Alpha  occ. eigenvalues --  -10.25302 -10.25113 -10.24769 -10.24388 -10.23921
 Alpha  occ. eigenvalues --  -10.23856 -10.23670 -10.23214 -10.21922 -10.21601
 Alpha  occ. eigenvalues --   -1.19237  -1.16788  -1.13493  -1.13189  -1.12387
 Alpha  occ. eigenvalues --   -1.11702  -1.11167  -1.10310  -1.10244  -1.09867
 Alpha  occ. eigenvalues --   -1.09704  -1.09430  -1.09150  -1.07856  -1.04113
 Alpha  occ. eigenvalues --   -1.01778  -1.00751  -0.99683  -0.99591  -0.99110
 Alpha  occ. eigenvalues --   -0.99034  -0.98499  -0.97708  -0.97395  -0.97196
 Alpha  occ. eigenvalues --   -0.94189  -0.92352  -0.92198  -0.89223  -0.88794
 Alpha  occ. eigenvalues --   -0.87410  -0.86380  -0.85935  -0.85225  -0.84162
 Alpha  occ. eigenvalues --   -0.83620  -0.83216  -0.83054  -0.82474  -0.81669
 Alpha  occ. eigenvalues --   -0.81037  -0.79933  -0.79750  -0.78067  -0.77514
 Alpha  occ. eigenvalues --   -0.77386  -0.76712  -0.74374  -0.73615  -0.72834
 Alpha  occ. eigenvalues --   -0.72739  -0.72146  -0.72025  -0.71541  -0.71387
 Alpha  occ. eigenvalues --   -0.70237  -0.70073  -0.69916  -0.69162  -0.69000
 Alpha  occ. eigenvalues --   -0.68367  -0.68016  -0.67545  -0.67148  -0.66679
 Alpha  occ. eigenvalues --   -0.66379  -0.66287  -0.66034  -0.65739  -0.65523
 Alpha  occ. eigenvalues --   -0.65133  -0.64954  -0.64472  -0.63428  -0.62752
 Alpha  occ. eigenvalues --   -0.62253  -0.62120  -0.61529  -0.61392  -0.61253
 Alpha  occ. eigenvalues --   -0.60915  -0.59932  -0.59337  -0.59228  -0.58724
 Alpha  occ. eigenvalues --   -0.58538  -0.58296  -0.57820  -0.57404  -0.57093
 Alpha  occ. eigenvalues --   -0.56806  -0.56350  -0.56188  -0.55792  -0.55709
 Alpha  occ. eigenvalues --   -0.55482  -0.55329  -0.54830  -0.54714  -0.54534
 Alpha  occ. eigenvalues --   -0.54312  -0.54077  -0.53508  -0.53325  -0.53085
 Alpha  occ. eigenvalues --   -0.52947  -0.52904  -0.52664  -0.52516  -0.52375
 Alpha  occ. eigenvalues --   -0.52348  -0.51745  -0.51225  -0.50854  -0.50733
 Alpha  occ. eigenvalues --   -0.50555  -0.50284  -0.50116  -0.49945  -0.49840
 Alpha  occ. eigenvalues --   -0.49723  -0.49495  -0.49411  -0.49198  -0.49072
 Alpha  occ. eigenvalues --   -0.49032  -0.48856  -0.48618  -0.48496  -0.48348
 Alpha  occ. eigenvalues --   -0.47933  -0.47654  -0.47560  -0.47446  -0.47176
 Alpha  occ. eigenvalues --   -0.47023  -0.46811  -0.46721  -0.46615  -0.46498
 Alpha  occ. eigenvalues --   -0.46284  -0.46123  -0.46008  -0.45833  -0.45617
 Alpha  occ. eigenvalues --   -0.45312  -0.45185  -0.44891  -0.44751  -0.44419
 Alpha  occ. eigenvalues --   -0.44298  -0.44260  -0.44064  -0.43949  -0.43604
 Alpha  occ. eigenvalues --   -0.43484  -0.43227  -0.43156  -0.43023  -0.42948
 Alpha  occ. eigenvalues --   -0.42701  -0.42499  -0.42389  -0.42281  -0.42126
 Alpha  occ. eigenvalues --   -0.42041  -0.41711  -0.41637  -0.41484  -0.41225
 Alpha  occ. eigenvalues --   -0.40674  -0.40553  -0.40310  -0.40099  -0.39995
 Alpha  occ. eigenvalues --   -0.39712  -0.39582  -0.38918  -0.38257  -0.37746
 Alpha  occ. eigenvalues --   -0.37396  -0.37285  -0.36992  -0.36802  -0.36403
 Alpha  occ. eigenvalues --   -0.35568  -0.34989  -0.34700  -0.34484  -0.34249
 Alpha  occ. eigenvalues --   -0.33949  -0.33859  -0.33416  -0.33326  -0.33258
 Alpha  occ. eigenvalues --   -0.32863  -0.32237  -0.32099  -0.32040  -0.31840
 Alpha  occ. eigenvalues --   -0.31226  -0.30962  -0.30440  -0.30010  -0.29142
 Alpha  occ. eigenvalues --   -0.28651  -0.28544
 Alpha virt. eigenvalues --   -0.11174  -0.09837  -0.09506  -0.08346  -0.07729
 Alpha virt. eigenvalues --   -0.07593  -0.07285  -0.06699  -0.06359  -0.06138
 Alpha virt. eigenvalues --   -0.05472  -0.04630  -0.04389  -0.04124  -0.03337

 Mulliken charges:
               1
     1  N   -0.753976
     2  H    0.413097
     3  H    0.430756
     4  H    0.404240
     5  C   -0.116639
     6  H    0.195169
     7  C    0.627339
     8  C   -0.103411
     9  H    0.207470
    10  O   -0.532189
    11  C   -0.508458
    12  H    0.137630
    13  H    0.217289
    14  H    0.180479
    15  C   -0.484287
    16  H    0.148849
    17  H    0.119545
    18  H    0.225646
    19  N   -0.593541
    20  H    0.355108
    21  C   -0.066798
    22  H    0.178319
    23  C    0.625578
    24  C   -0.088908
    25  H    0.146109
    26  O   -0.523111
    27  C   -0.257779
    28  H    0.131008
    29  H    0.138267
    30  C   -0.475952
    31  H    0.144746
    32  H    0.178496
    33  H    0.167833
    34  C   -0.450679
    35  H    0.156387
    36  H    0.147744
    37  H    0.159054
    38  N   -0.605896
    39  H    0.355701
    40  C   -0.076566
    41  H    0.203104
    42  C    0.672420
    43  C   -0.419754
    44  H    0.207300
    45  H    0.181127
    46  O   -0.581404
    47  C    0.127753
    48  C   -0.184003
    49  H    0.224194
    50  C   -0.165404
    51  H    0.161339
    52  C   -0.243154
    53  H    0.151129
    54  C   -0.114212
    55  H    0.151800
    56  C   -0.158178
    57  H    0.144462
    58  N   -0.650055
    59  H    0.393094
    60  C   -0.049479
    61  H    0.148174
    62  C    0.595342
    63  C   -0.274712
    64  H    0.167662
    65  H    0.137984
    66  O   -0.553233
    67  C   -0.078985
    68  H    0.159462
    69  C   -0.444339
    70  H    0.144186
    71  H    0.136744
    72  H    0.140593
    73  C   -0.458845
    74  H    0.126253
    75  H    0.144947
    76  H    0.157350
    77  N   -0.617733
    78  H    0.380921
    79  C   -0.053797
    80  H    0.201746
    81  C    0.633771
    82  C   -0.316519
    83  H    0.157641
    84  H    0.176105
    85  O   -0.571983
    86  C   -0.344743
    87  H    0.159025
    88  H    0.153116
    89  C    0.579705
    90  O   -0.613081
    91  O   -0.590740
    92  N   -0.616820
    93  H    0.384202
    94  C   -0.061773
    95  H    0.187816
    96  C    0.631541
    97  C   -0.390734
    98  H    0.216668
    99  H    0.162038
   100  O   -0.518958
   101  C    0.615174
   102  N   -0.742269
   103  H    0.355273
   104  H    0.349344
   105  O   -0.527265
   106  N   -0.655712
   107  H    0.405712
   108  C   -0.025275
   109  H    0.174963
   110  C    0.627004
   111  C   -0.406913
   112  H    0.200041
   113  H    0.198251
   114  O   -0.568617
   115  C    0.140176
   116  C   -0.231964
   117  H    0.195552
   118  C   -0.216894
   119  H    0.152645
   120  C   -0.179117
   121  H    0.163004
   122  C   -0.186807
   123  H    0.134553
   124  O   -0.658941
   125  H    0.414872
   126  C    0.331375
   127  N   -0.607063
   128  H    0.372070
   129  C   -0.053729
   130  H    0.200563
   131  C    0.606632
   132  C   -0.296448
   133  H    0.177284
   134  H    0.172707
   135  O   -0.468629
   136  C   -0.321357
   137  H    0.167071
   138  H    0.189215
   139  C   -0.127373
   140  H    0.171873
   141  H    0.189070
   142  N   -0.645036
   143  H    0.428153
   144  N   -0.750180
   145  H    0.354704
   146  H    0.392332
   147  N   -0.784645
   148  H    0.372292
   149  H    0.432596
   150  C    0.731271
   151  O   -0.575905
   152  H    0.432626
 Sum of Mulliken charges =   1.00000

 Dipole moment (field-independent basis, Debye):
    X=             -1.6377    Y=             -3.5616    Z=             10.5357  Tot=             11.2414
 Quadrupole moment (field-independent basis, Debye-Ang):
   XX=           -305.8201   YY=           -384.9309   ZZ=           -322.5497
   XY=             17.4643   XZ=            -64.6594   YZ=            -24.8229

 Normal termination of Gaussian 16 at Sun Aug 14 21:13:20 2022.
