 Gaussian 16, Revision C.01,
 Gaussian 16:  ES64L-G16RevC.01  3-Jul-2019

 ----------------------------------------------------------------------
 # B3LYP/6-31G* empiricaldispersion=gd3 guess=read geom=check nosymm in
 tegral(ultrafinegrid)
 ----------------------------------------------------------------------

 ------------------------------------------------------
 Candidate Structure: Conf:883 Charge calc in gas phase
 ------------------------------------------------------
 Structure from the checkpoint file:  "conf-883.chk"
 Charge =  1 Multiplicity = 1

                          Input orientation:
 ---------------------------------------------------------------------
 Center     Atomic      Atomic             Coordinates (Angstroms)
 Number     Number       Type             X           Y           Z
 ---------------------------------------------------------------------
      1          7           0       -9.999320    5.279880    6.317897
      2          1           0      -10.703878    5.875226    5.874693
      3          1           0      -10.230828    4.257738    6.112743
      4          1           0       -9.996293    5.465857    7.324276
      5          6           0       -8.625818    5.405112    5.681636
      6          1           0       -8.614426    6.312413    5.072958
      7          6           0       -8.562647    4.124595    4.805956
      8          6           0       -7.529551    5.472375    6.776323
      9          1           0       -7.833704    6.292670    7.445078
     10          8           0       -9.400051    3.234198    5.035735
     11          6           0       -7.439071    4.171926    7.590234
     12          1           0       -7.098316    3.339895    6.965367
     13          1           0       -6.719047    4.296029    8.403804
     14          1           0       -8.392984    3.874936    8.043749
     15          6           0       -6.165011    5.859241    6.182861
     16          1           0       -5.734075    5.061550    5.570179
     17          1           0       -6.228326    6.767952    5.572894
     18          1           0       -5.462961    6.058657    6.997693
     19          7           0       -7.597444    4.066645    3.904300
     20          1           0       -6.889951    4.797685    3.811960
     21          6           0       -7.246652    2.866987    3.141959
     22          1           0       -7.450338    1.997962    3.773489
     23          6           0       -5.728623    3.016704    2.903471
     24          6           0       -8.086956    2.763873    1.835614
     25          1           0       -9.128992    2.843778    2.176675
     26          8           0       -5.182027    4.114725    3.080842
     27          6           0       -7.947807    1.407213    1.114585
     28          1           0       -6.945054    1.310524    0.680622
     29          1           0       -8.636385    1.434174    0.260841
     30          6           0       -7.786779    3.928284    0.882265
     31          1           0       -6.759097    3.877407    0.504808
     32          1           0       -7.915848    4.900724    1.370004
     33          1           0       -8.460330    3.895141    0.020052
     34          6           0       -8.271075    0.175383    1.969329
     35          1           0       -8.296607   -0.724997    1.348437
     36          1           0       -7.525565   -0.007123    2.753355
     37          1           0       -9.246377    0.277476    2.460298
     38          7           0       -5.091317    1.918857    2.488472
     39          1           0       -5.564094    1.027669    2.359217
     40          6           0       -3.680307    1.880487    2.135397
     41          1           0       -3.423309    2.804803    1.609122
     42          6           0       -3.524673    0.658204    1.217563
     43          6           0       -2.796712    1.751698    3.408201
     44          1           0       -3.128947    0.860529    3.952815
     45          1           0       -3.030996    2.624320    4.029532
     46          8           0       -4.338161   -0.269539    1.273492
     47          6           0       -1.310216    1.675944    3.135981
     48          6           0       -0.592364    0.503084    3.404875
     49          1           0       -1.115750   -0.361025    3.809169
     50          6           0       -0.623726    2.778338    2.604295
     51          1           0       -1.165215    3.700744    2.398962
     52          6           0        0.785131    0.441519    3.184878
     53          1           0        1.356468   -0.449831    3.424676
     54          6           0        0.749550    2.710063    2.360024
     55          1           0        1.268955    3.569399    1.944985
     56          6           0        1.460943    1.547060    2.665175
     57          1           0        2.535424    1.478732    2.528836
     58          7           0       -2.450626    0.680196    0.411075
     59          1           0       -1.786473    1.445897    0.468183
     60          6           0       -1.976591   -0.498106   -0.311229
     61          1           0       -2.332178   -1.379657    0.228552
     62          6           0       -0.450441   -0.392593   -0.285602
     63          6           0       -2.485265   -0.518935   -1.765181
     64          1           0       -2.159602    0.418913   -2.234477
     65          1           0       -3.582188   -0.497570   -1.735467
     66          8           0        0.087218    0.683266   -0.571954
     67          6           0       -2.003057   -1.723055   -2.597627
     68          1           0       -0.910146   -1.793649   -2.516233
     69          6           0       -2.594085   -3.046433   -2.087859
     70          1           0       -3.690625   -3.028692   -2.130864
     71          1           0       -2.311123   -3.260774   -1.049807
     72          1           0       -2.245328   -3.886445   -2.698193
     73          6           0       -2.351539   -1.509235   -4.077329
     74          1           0       -3.436178   -1.413873   -4.217099
     75          1           0       -2.008491   -2.352931   -4.686384
     76          1           0       -1.881309   -0.599970   -4.471577
     77          7           0        0.243921   -1.492577    0.073683
     78          1           0       -0.221869   -2.389344    0.101248
     79          6           0        1.696455   -1.443103    0.041980
     80          1           0        1.949183   -0.471375    0.458301
     81          6           0        2.168726   -1.469137   -1.423351
     82          6           0        2.333525   -2.522708    0.930558
     83          1           0        2.207179   -3.512601    0.472505
     84          1           0        1.787331   -2.522417    1.881155
     85          8           0        1.504056   -2.046331   -2.298656
     86          6           0        3.825041   -2.242414    1.219572
     87          1           0        4.173384   -2.947531    1.979185
     88          1           0        4.421248   -2.381930    0.312123
     89          6           0        3.983818   -0.800779    1.747489
     90          8           0        4.163997    0.093466    0.821009
     91          8           0        3.833625   -0.576354    2.950143
     92          7           0        3.294751   -0.774606   -1.677668
     93          1           0        3.826358   -0.381663   -0.876303
     94          6           0        3.793173   -0.628008   -3.031031
     95          1           0        3.419484   -1.472542   -3.616585
     96          6           0        5.323531   -0.570441   -3.014130
     97          6           0        3.388672    0.725197   -3.702632
     98          1           0        4.072744    1.494696   -3.346666
     99          1           0        3.550357    0.649868   -4.783818
    100          8           0        5.912492    0.074361   -2.152264
    101          6           0        1.989653    1.270705   -3.441773
    102          7           0        0.940799    0.434983   -3.592999
    103          1           0        0.068453    0.781060   -3.211020
    104          1           0        1.082968   -0.570592   -3.500881
    105          8           0        1.834566    2.470951   -3.159933
    106          7           0        5.960395   -1.151483   -4.081657
    107          1           0        5.351261   -1.422898   -4.846129
    108          6           0        7.199673   -0.514366   -4.528711
    109          1           0        7.838025   -0.395868   -3.650994
    110          6           0        6.812205    0.868410   -5.091233
    111          6           0        7.940637   -1.338018   -5.600840
    112          1           0        8.237639   -2.297330   -5.162220
    113          1           0        7.252639   -1.548339   -6.428886
    114          8           0        5.796551    1.002792   -5.776359
    115          6           0        9.130206   -0.542933   -6.095087
    116          6           0        9.050606    0.212022   -7.273554
    117          1           0        8.168851    0.125113   -7.903721
    118          6           0       10.268169   -0.395451   -5.292901
    119          1           0       10.357726   -0.971963   -4.374335
    120          6           0       10.058955    1.100338   -7.634313
    121          1           0        9.995730    1.687874   -8.544624
    122          6           0       11.285746    0.493104   -5.638023
    123          1           0       12.159024    0.599831   -4.997894
    124          8           0       12.121824    2.159543   -7.195309
    125          1           0       12.828635    2.190713   -6.531974
    126          6           0       11.176688    1.255566   -6.806842
    127          7           0        7.615961    1.898639   -4.756661
    128          1           0        8.519078    1.735853   -4.326408
    129          6           0        7.324304    3.247222   -5.200514
    130          1           0        7.037636    3.226092   -6.258528
    131          6           0        8.601011    4.062343   -5.071119
    132          6           0        6.153915    3.868321   -4.395098
    133          1           0        5.967287    4.878590   -4.777276
    134          1           0        5.268321    3.262603   -4.612464
    135          8           0        9.623537    3.673775   -4.547893
    136          6           0        6.423479    3.908980   -2.886919
    137          1           0        6.659202    2.895641   -2.539039
    138          1           0        7.308763    4.528656   -2.688208
    139          6           0        5.257511    4.483859   -2.062009
    140          1           0        5.622883    4.808791   -1.082080
    141          1           0        4.850002    5.371890   -2.557143
    142          7           0        4.137304    3.572023   -1.828883
    143          1           0        3.345899    3.526743   -2.474944
    144          7           0        5.136178    2.504120    0.010943
    145          1           0        5.003036    1.679101    0.623204
    146          1           0        6.029635    2.508908   -0.462579
    147          7           0        2.890798    2.211860   -0.411118
    148          1           0        2.945544    1.411330    0.222239
    149          1           0        2.063788    2.323730   -0.985093
    150          6           0        4.059638    2.749430   -0.767606
    151          8           0        8.450321    5.294418   -5.594210
    152          1           0        9.300034    5.760416   -5.477384
 ---------------------------------------------------------------------

 SCF Done:  E(RB3LYP) =  -3586.88549833     A.U. after    3 cycles

 Alpha  occ. eigenvalues --  -19.26552 -19.26249 -19.22194 -19.21363 -19.20775
 Alpha  occ. eigenvalues --  -19.18788 -19.18092 -19.18012 -19.17482 -19.17124
 Alpha  occ. eigenvalues --  -19.16769 -19.12719 -19.11086 -14.59790 -14.48952
 Alpha  occ. eigenvalues --  -14.44830 -14.42614 -14.42523 -14.42277 -14.41711
 Alpha  occ. eigenvalues --  -14.41561 -14.40611 -14.40450 -14.40073 -14.39850
 Alpha  occ. eigenvalues --  -10.43183 -10.40391 -10.38662 -10.38352 -10.37924
 Alpha  occ. eigenvalues --  -10.35756 -10.34887 -10.34806 -10.34785 -10.34417
 Alpha  occ. eigenvalues --  -10.34005 -10.33651 -10.33570 -10.31073 -10.30306
 Alpha  occ. eigenvalues --  -10.29897 -10.29674 -10.29531 -10.29502 -10.29424
 Alpha  occ. eigenvalues --  -10.29321 -10.29195 -10.28805 -10.28685 -10.27582
 Alpha  occ. eigenvalues --  -10.26231 -10.25947 -10.25869 -10.25109 -10.25025
 Alpha  occ. eigenvalues --  -10.25003 -10.24894 -10.24845 -10.24632 -10.24064
 Alpha  occ. eigenvalues --  -10.23945 -10.23863 -10.23806 -10.23735 -10.23675
 Alpha  occ. eigenvalues --  -10.23610 -10.23569 -10.23290 -10.23198 -10.23027
 Alpha  occ. eigenvalues --  -10.22460 -10.22338 -10.22088 -10.21996 -10.21094
 Alpha  occ. eigenvalues --   -1.19020  -1.17249  -1.13754  -1.13134  -1.10779
 Alpha  occ. eigenvalues --   -1.10282  -1.10238  -1.09915  -1.08999  -1.08755
 Alpha  occ. eigenvalues --   -1.08272  -1.08133  -1.06768  -1.05761  -1.04773
 Alpha  occ. eigenvalues --   -1.01532  -0.99298  -0.98580  -0.98554  -0.98294
 Alpha  occ. eigenvalues --   -0.97435  -0.96790  -0.95763  -0.95273  -0.95047
 Alpha  occ. eigenvalues --   -0.93994  -0.90751  -0.90234  -0.90016  -0.86964
 Alpha  occ. eigenvalues --   -0.86399  -0.86214  -0.85221  -0.85013  -0.83899
 Alpha  occ. eigenvalues --   -0.82409  -0.82343  -0.81176  -0.81130  -0.80718
 Alpha  occ. eigenvalues --   -0.80172  -0.79409  -0.78559  -0.78145  -0.77513
 Alpha  occ. eigenvalues --   -0.75680  -0.75282  -0.74530  -0.73767  -0.73391
 Alpha  occ. eigenvalues --   -0.73009  -0.72929  -0.72447  -0.71151  -0.70791
 Alpha  occ. eigenvalues --   -0.70113  -0.69462  -0.69006  -0.67908  -0.67421
 Alpha  occ. eigenvalues --   -0.67076  -0.66887  -0.66544  -0.66291  -0.65788
 Alpha  occ. eigenvalues --   -0.65277  -0.64715  -0.64355  -0.64085  -0.63909
 Alpha  occ. eigenvalues --   -0.63473  -0.63246  -0.62780  -0.62690  -0.62582
 Alpha  occ. eigenvalues --   -0.62123  -0.61646  -0.61256  -0.60609  -0.60152
 Alpha  occ. eigenvalues --   -0.59729  -0.59001  -0.58612  -0.58203  -0.57310
 Alpha  occ. eigenvalues --   -0.56938  -0.56483  -0.56328  -0.55847  -0.55580
 Alpha  occ. eigenvalues --   -0.55388  -0.55115  -0.54896  -0.54687  -0.54464
 Alpha  occ. eigenvalues --   -0.54308  -0.54029  -0.53891  -0.53595  -0.53486
 Alpha  occ. eigenvalues --   -0.53330  -0.52996  -0.52753  -0.52619  -0.52311
 Alpha  occ. eigenvalues --   -0.51922  -0.51688  -0.51576  -0.51496  -0.51043
 Alpha  occ. eigenvalues --   -0.50870  -0.50708  -0.50398  -0.50312  -0.50284
 Alpha  occ. eigenvalues --   -0.50109  -0.49941  -0.49866  -0.49632  -0.49452
 Alpha  occ. eigenvalues --   -0.49372  -0.48904  -0.48704  -0.48370  -0.48182
 Alpha  occ. eigenvalues --   -0.47917  -0.47637  -0.47529  -0.47413  -0.47228
 Alpha  occ. eigenvalues --   -0.47068  -0.46960  -0.46937  -0.46874  -0.46711
 Alpha  occ. eigenvalues --   -0.46450  -0.46293  -0.46078  -0.46038  -0.45963
 Alpha  occ. eigenvalues --   -0.45321  -0.45288  -0.45134  -0.44956  -0.44918
 Alpha  occ. eigenvalues --   -0.44677  -0.44360  -0.44253  -0.44046  -0.43954
 Alpha  occ. eigenvalues --   -0.43624  -0.43273  -0.43098  -0.42811  -0.42726
 Alpha  occ. eigenvalues --   -0.42476  -0.42227  -0.42158  -0.42139  -0.41992
 Alpha  occ. eigenvalues --   -0.41796  -0.41605  -0.41388  -0.41185  -0.41121
 Alpha  occ. eigenvalues --   -0.40998  -0.40513  -0.40384  -0.40156  -0.40055
 Alpha  occ. eigenvalues --   -0.39930  -0.39543  -0.38640  -0.38386  -0.38335
 Alpha  occ. eigenvalues --   -0.38226  -0.38177  -0.38115  -0.37953  -0.37692
 Alpha  occ. eigenvalues --   -0.37558  -0.37236  -0.37105  -0.35455  -0.34611
 Alpha  occ. eigenvalues --   -0.34373  -0.33423  -0.33254  -0.33066  -0.32855
 Alpha  occ. eigenvalues --   -0.32498  -0.32397  -0.32069  -0.31930  -0.31446
 Alpha  occ. eigenvalues --   -0.31195  -0.30947  -0.30374  -0.30181  -0.29843
 Alpha  occ. eigenvalues --   -0.29524  -0.29183  -0.28438  -0.27878  -0.27391
 Alpha  occ. eigenvalues --   -0.26282  -0.24884
 Alpha virt. eigenvalues --   -0.12008  -0.11107  -0.07286  -0.06683  -0.05918
 Alpha virt. eigenvalues --   -0.05552  -0.05411  -0.04994  -0.04898  -0.04620
 Alpha virt. eigenvalues --   -0.04491  -0.03739  -0.03565  -0.03454  -0.03393

 Mulliken charges:
               1
     1  N   -0.761688
     2  H    0.415973
     3  H    0.434971
     4  H    0.411309
     5  C   -0.107151
     6  H    0.209495
     7  C    0.651775
     8  C   -0.110902
     9  H    0.157960
    10  O   -0.551980
    11  C   -0.469033
    12  H    0.185709
    13  H    0.194696
    14  H    0.140959
    15  C   -0.481728
    16  H    0.192951
    17  H    0.164572
    18  H    0.189153
    19  N   -0.601060
    20  H    0.380829
    21  C   -0.082575
    22  H    0.191878
    23  C    0.636417
    24  C   -0.074734
    25  H    0.148723
    26  O   -0.563307
    27  C   -0.280145
    28  H    0.158118
    29  H    0.155766
    30  C   -0.463466
    31  H    0.167584
    32  H    0.136394
    33  H    0.166172
    34  C   -0.463152
    35  H    0.175363
    36  H    0.143140
    37  H    0.154585
    38  N   -0.624801
    39  H    0.378589
    40  C   -0.055597
    41  H    0.180826
    42  C    0.624096
    43  C   -0.346940
    44  H    0.154344
    45  H    0.172538
    46  O   -0.555669
    47  C    0.156253
    48  C   -0.191997
    49  H    0.123024
    50  C   -0.211950
    51  H    0.123667
    52  C   -0.146477
    53  H    0.172539
    54  C   -0.117374
    55  H    0.134291
    56  C   -0.151223
    57  H    0.181773
    58  N   -0.612179
    59  H    0.364990
    60  C   -0.037464
    61  H    0.171458
    62  C    0.630987
    63  C   -0.257735
    64  H    0.137731
    65  H    0.153218
    66  O   -0.571900
    67  C   -0.117900
    68  H    0.169015
    69  C   -0.445922
    70  H    0.148057
    71  H    0.126154
    72  H    0.157352
    73  C   -0.447497
    74  H    0.141871
    75  H    0.152922
    76  H    0.141434
    77  N   -0.594057
    78  H    0.342384
    79  C   -0.069794
    80  H    0.205936
    81  C    0.626377
    82  C   -0.303374
    83  H    0.147976
    84  H    0.164918
    85  O   -0.574339
    86  C   -0.334092
    87  H    0.158882
    88  H    0.143908
    89  C    0.578734
    90  O   -0.650659
    91  O   -0.528078
    92  N   -0.643151
    93  H    0.418918
    94  C   -0.051545
    95  H    0.174515
    96  C    0.604253
    97  C   -0.393855
    98  H    0.184107
    99  H    0.213101
   100  O   -0.525055
   101  C    0.600151
   102  N   -0.746770
   103  H    0.351542
   104  H    0.385623
   105  O   -0.563159
   106  N   -0.575057
   107  H    0.337077
   108  C   -0.060526
   109  H    0.181240
   110  C    0.628812
   111  C   -0.363466
   112  H    0.170991
   113  H    0.156991
   114  O   -0.560189
   115  C    0.140836
   116  C   -0.182556
   117  H    0.142595
   118  C   -0.207332
   119  H    0.136520
   120  C   -0.164638
   121  H    0.147877
   122  C   -0.182554
   123  H    0.131370
   124  O   -0.638367
   125  H    0.412744
   126  C    0.358421
   127  N   -0.600206
   128  H    0.364081
   129  C   -0.026356
   130  H    0.201816
   131  C    0.586430
   132  C   -0.289020
   133  H    0.162507
   134  H    0.185031
   135  O   -0.468346
   136  C   -0.290551
   137  H    0.172438
   138  H    0.151269
   139  C   -0.165130
   140  H    0.179394
   141  H    0.169835
   142  N   -0.618847
   143  H    0.386962
   144  N   -0.761726
   145  H    0.401799
   146  H    0.356150
   147  N   -0.805784
   148  H    0.427779
   149  H    0.386953
   150  C    0.742134
   151  O   -0.563790
   152  H    0.422919
 Sum of Mulliken charges =   1.00000

 Dipole moment (field-independent basis, Debye):
    X=            -26.9289    Y=             23.7389    Z=             13.8297  Tot=             38.4703
 Quadrupole moment (field-independent basis, Debye-Ang):
   XX=             -0.1637   YY=           -290.2962   ZZ=           -287.7730
   XY=           -154.7733   XZ=           -275.0919   YZ=            114.4274

 Normal termination of Gaussian 16 at Sun Aug 14 21:11:49 2022.
