 Gaussian 16, Revision C.01,
 Gaussian 16:  ES64L-G16RevC.01  3-Jul-2019

 ----------------------------------------------------------------------
 # B3LYP/6-31G* empiricaldispersion=gd3 guess=read geom=check nosymm in
 tegral(ultrafinegrid)
 ----------------------------------------------------------------------

 ------------------------------------------------------
 Candidate Structure: Conf:304 Charge calc in gas phase
 ------------------------------------------------------
 Structure from the checkpoint file:  "conf-304.chk"
 Charge =  1 Multiplicity = 1

                          Input orientation:
 ---------------------------------------------------------------------
 Center     Atomic      Atomic             Coordinates (Angstroms)
 Number     Number       Type             X           Y           Z
 ---------------------------------------------------------------------
      1          7           0       -7.854728   -3.569290    9.081987
      2          1           0       -8.812135   -3.902714    9.221314
      3          1           0       -7.328647   -4.269719    8.470017
      4          1           0       -7.406148   -3.461879    9.995519
      5          6           0       -7.776503   -2.317119    8.226180
      6          1           0       -8.771975   -1.868835    8.184948
      7          6           0       -7.342276   -2.897198    6.853463
      8          6           0       -6.752821   -1.318849    8.828193
      9          1           0       -7.050831   -1.191973    9.880786
     10          8           0       -6.890946   -4.055998    6.843499
     11          6           0       -5.315588   -1.861245    8.777403
     12          1           0       -4.974693   -1.973327    7.743484
     13          1           0       -4.638905   -1.162344    9.276595
     14          1           0       -5.201678   -2.835014    9.269957
     15          6           0       -6.855693    0.063728    8.164074
     16          1           0       -6.496942    0.061485    7.130474
     17          1           0       -7.884094    0.443475    8.172102
     18          1           0       -6.237816    0.774729    8.720272
     19          7           0       -7.444313   -2.096262    5.805884
     20          1           0       -7.732940   -1.121123    5.897862
     21          6           0       -6.818254   -2.362992    4.508330
     22          1           0       -5.930496   -2.974304    4.692033
     23          6           0       -6.387214   -0.963970    4.016661
     24          6           0       -7.781530   -3.120105    3.553231
     25          1           0       -8.105062   -3.998054    4.130579
     26          8           0       -6.843683    0.052351    4.560827
     27          6           0       -7.091360   -3.642765    2.276459
     28          1           0       -6.817445   -2.802039    1.627240
     29          1           0       -7.847464   -4.211021    1.720495
     30          6           0       -9.012742   -2.271032    3.210584
     31          1           0       -8.734308   -1.388774    2.622819
     32          1           0       -9.532911   -1.923791    4.110258
     33          1           0       -9.724227   -2.855163    2.618297
     34          6           0       -5.871781   -4.542912    2.513907
     35          1           0       -5.541435   -4.993858    1.573473
     36          1           0       -5.009261   -3.998181    2.917074
     37          1           0       -6.107780   -5.352990    3.214617
     38          7           0       -5.506203   -0.956517    3.015841
     39          1           0       -5.108872   -1.817534    2.644664
     40          6           0       -4.847419    0.226601    2.492046
     41          1           0       -5.601026    0.942437    2.144222
     42          6           0       -4.023494   -0.287917    1.291220
     43          6           0       -3.962540    0.929644    3.568300
     44          1           0       -4.648841    1.352860    4.307259
     45          1           0       -3.436597    1.766276    3.094908
     46          8           0       -3.896728   -1.496611    1.095073
     47          6           0       -2.976414   -0.006322    4.228585
     48          6           0       -3.353403   -0.759197    5.350414
     49          1           0       -4.340240   -0.605698    5.782512
     50          6           0       -1.686680   -0.174234    3.708292
     51          1           0       -1.365793    0.430346    2.865096
     52          6           0       -2.473374   -1.677104    5.924013
     53          1           0       -2.775509   -2.251905    6.796637
     54          6           0       -0.804639   -1.091350    4.281903
     55          1           0        0.191420   -1.206200    3.864931
     56          6           0       -1.196630   -1.851357    5.385117
     57          1           0       -0.508667   -2.565117    5.829764
     58          7           0       -3.490325    0.671106    0.500141
     59          1           0       -3.466558    1.619858    0.856630
     60          6           0       -2.425621    0.377169   -0.459762
     61          1           0       -2.526744   -0.672577   -0.739253
     62          6           0       -1.081306    0.657413    0.224583
     63          6           0       -2.552100    1.305656   -1.686215
     64          1           0       -2.626625    2.333544   -1.305579
     65          1           0       -3.498474    1.079581   -2.194370
     66          8           0       -0.931013    1.697052    0.873289
     67          6           0       -1.384524    1.239015   -2.690720
     68          1           0       -0.450295    1.405531   -2.136123
     69          6           0       -1.268243   -0.119461   -3.394702
     70          1           0       -2.172054   -0.327662   -3.982179
     71          1           0       -1.119407   -0.947884   -2.694941
     72          1           0       -0.407130   -0.112786   -4.069571
     73          6           0       -1.507550    2.368127   -3.723981
     74          1           0       -2.409483    2.242440   -4.336845
     75          1           0       -0.635418    2.364631   -4.384606
     76          1           0       -1.571800    3.350722   -3.237905
     77          7           0       -0.108930   -0.253108    0.019563
     78          1           0       -0.277508   -1.038201   -0.603183
     79          6           0        1.301813    0.094717    0.140767
     80          1           0        1.397433    1.171512   -0.009062
     81          6           0        1.996180   -0.611069   -1.043973
     82          6           0        1.854472   -0.214065    1.550208
     83          1           0        1.579449   -1.246752    1.801450
     84          1           0        1.300921    0.441913    2.231932
     85          8           0        1.429073   -1.491542   -1.691999
     86          6           0        3.365725   -0.048791    1.774178
     87          1           0        3.598797   -0.237598    2.826685
     88          1           0        3.908928   -0.819406    1.209861
     89          6           0        4.052393    1.272857    1.389665
     90          8           0        5.160176    1.505789    1.912862
     91          8           0        3.514008    2.000592    0.469796
     92          7           0        3.228974   -0.126898   -1.342719
     93          1           0        3.536420    0.674547   -0.786370
     94          6           0        3.798751   -0.266801   -2.668217
     95          1           0        3.122227   -0.902396   -3.245536
     96          6           0        5.211885   -0.849216   -2.622720
     97          6           0        3.905875    1.128516   -3.335043
     98          1           0        4.604263    1.736463   -2.749595
     99          1           0        4.309968    1.019797   -4.345661
    100          8           0        6.095796   -0.353194   -1.920757
    101          6           0        2.526345    1.777942   -3.422270
    102          7           0        2.224941    2.656884   -2.415508
    103          1           0        1.263668    2.972240   -2.374180
    104          1           0        2.727976    2.636321   -1.534405
    105          8           0        1.754561    1.517204   -4.336667
    106          7           0        5.451339   -1.892849   -3.461597
    107          1           0        4.734423   -2.105592   -4.143771
    108          6           0        6.824395   -2.178973   -3.852717
    109          1           0        7.389333   -2.430977   -2.950111
    110          6           0        7.422726   -0.906775   -4.496814
    111          6           0        6.884081   -3.366912   -4.846786
    112          1           0        6.568388   -4.276057   -4.322123
    113          1           0        6.167329   -3.181531   -5.656245
    114          8           0        6.747041   -0.192861   -5.232524
    115          6           0        8.281000   -3.484711   -5.413894
    116          6           0        8.588393   -2.912262   -6.655110
    117          1           0        7.786107   -2.535285   -7.283725
    118          6           0        9.335527   -3.958312   -4.623547
    119          1           0        9.123586   -4.426631   -3.664609
    120          6           0        9.907178   -2.741356   -7.065316
    121          1           0       10.145107   -2.249328   -8.002163
    122          6           0       10.662408   -3.784932   -5.015655
    123          1           0       11.472661   -4.109593   -4.367218
    124          8           0       12.224363   -2.786159   -6.591794
    125          1           0       12.830849   -2.997285   -5.863749
    126          6           0       10.945818   -3.130749   -6.217797
    127          7           0        8.718520   -0.658368   -4.187903
    128          1           0        9.242177   -1.316819   -3.625027
    129          6           0        9.481517    0.418512   -4.806983
    130          1           0        8.978123    0.687925   -5.737358
    131          6           0       10.860572   -0.164634   -5.105793
    132          6           0        9.575717    1.641164   -3.872242
    133          1           0       10.130973    1.339646   -2.974183
    134          1           0       10.163497    2.426278   -4.366887
    135          8           0       11.513753   -0.764432   -4.274677
    136          6           0        8.186453    2.165086   -3.486645
    137          1           0        7.660251    2.529355   -4.377439
    138          1           0        7.583492    1.342098   -3.092092
    139          6           0        8.260279    3.272731   -2.432234
    140          1           0        8.789127    2.921762   -1.540184
    141          1           0        8.808358    4.142009   -2.812622
    142          7           0        6.942818    3.743643   -1.997610
    143          1           0        6.469311    4.421507   -2.578674
    144          7           0        6.651798    2.135201   -0.326361
    145          1           0        6.172265    1.907134    0.570788
    146          1           0        6.930620    1.340006   -0.892806
    147          7           0        5.196574    3.914295   -0.465276
    148          1           0        4.497408    3.353691    0.076310
    149          1           0        5.018034    4.873399   -0.723865
    150          6           0        6.257347    3.255403   -0.940468
    151          8           0       11.243137    0.011367   -6.377741
    152          1           0       12.027976   -0.558954   -6.524449
 ---------------------------------------------------------------------

 SCF Done:  E(RB3LYP) =  -3586.87483316     A.U. after    2 cycles

 Alpha  occ. eigenvalues --  -19.26182 -19.25058 -19.23917 -19.20992 -19.19702
 Alpha  occ. eigenvalues --  -19.19010 -19.18234 -19.16891 -19.16632 -19.16384
 Alpha  occ. eigenvalues --  -19.15796 -19.14759 -19.13198 -14.59430 -14.48529
 Alpha  occ. eigenvalues --  -14.44646 -14.44152 -14.42565 -14.42251 -14.41916
 Alpha  occ. eigenvalues --  -14.41618 -14.40527 -14.40247 -14.39757 -14.39711
 Alpha  occ. eigenvalues --  -10.42786 -10.40027 -10.39051 -10.37839 -10.37766
 Alpha  occ. eigenvalues --  -10.35915 -10.34843 -10.34062 -10.34045 -10.33463
 Alpha  occ. eigenvalues --  -10.33423 -10.33230 -10.32993 -10.31872 -10.31210
 Alpha  occ. eigenvalues --  -10.30280 -10.29887 -10.29529 -10.29410 -10.29353
 Alpha  occ. eigenvalues --  -10.29103 -10.29005 -10.28365 -10.28085 -10.27080
 Alpha  occ. eigenvalues --  -10.26132 -10.25685 -10.25615 -10.25557 -10.25317
 Alpha  occ. eigenvalues --  -10.25229 -10.25163 -10.25101 -10.24662 -10.24648
 Alpha  occ. eigenvalues --  -10.24623 -10.24593 -10.24497 -10.24497 -10.24374
 Alpha  occ. eigenvalues --  -10.24321 -10.24204 -10.23972 -10.23832 -10.23363
 Alpha  occ. eigenvalues --  -10.23068 -10.22832 -10.22053 -10.20307 -10.20132
 Alpha  occ. eigenvalues --   -1.18667  -1.16213  -1.13378  -1.12750  -1.11511
 Alpha  occ. eigenvalues --   -1.10866  -1.10231  -1.08805  -1.08575  -1.07963
 Alpha  occ. eigenvalues --   -1.07855  -1.07425  -1.07236  -1.06950  -1.05339
 Alpha  occ. eigenvalues --   -1.01176  -0.99126  -0.98750  -0.98437  -0.98363
 Alpha  occ. eigenvalues --   -0.97759  -0.97320  -0.96898  -0.94668  -0.94506
 Alpha  occ. eigenvalues --   -0.94369  -0.91392  -0.91026  -0.90071  -0.86464
 Alpha  occ. eigenvalues --   -0.86369  -0.85767  -0.85123  -0.84898  -0.83795
 Alpha  occ. eigenvalues --   -0.82042  -0.81947  -0.81237  -0.80764  -0.80701
 Alpha  occ. eigenvalues --   -0.80202  -0.80097  -0.79500  -0.78220  -0.78141
 Alpha  occ. eigenvalues --   -0.75701  -0.74948  -0.74821  -0.73604  -0.73223
 Alpha  occ. eigenvalues --   -0.73104  -0.72116  -0.71283  -0.70929  -0.70021
 Alpha  occ. eigenvalues --   -0.69776  -0.69398  -0.68630  -0.67799  -0.67707
 Alpha  occ. eigenvalues --   -0.67549  -0.66958  -0.66517  -0.66189  -0.65868
 Alpha  occ. eigenvalues --   -0.65345  -0.65111  -0.65088  -0.64294  -0.64083
 Alpha  occ. eigenvalues --   -0.64032  -0.63349  -0.63255  -0.62872  -0.61890
 Alpha  occ. eigenvalues --   -0.61774  -0.61383  -0.60888  -0.60550  -0.59819
 Alpha  occ. eigenvalues --   -0.59556  -0.59225  -0.58164  -0.57965  -0.57419
 Alpha  occ. eigenvalues --   -0.57077  -0.56819  -0.56510  -0.56154  -0.56044
 Alpha  occ. eigenvalues --   -0.55740  -0.55476  -0.54927  -0.54802  -0.54364
 Alpha  occ. eigenvalues --   -0.54274  -0.53946  -0.53704  -0.53541  -0.53224
 Alpha  occ. eigenvalues --   -0.52965  -0.52849  -0.52792  -0.52396  -0.52096
 Alpha  occ. eigenvalues --   -0.51806  -0.51655  -0.51325  -0.51279  -0.51239
 Alpha  occ. eigenvalues --   -0.51084  -0.50945  -0.50633  -0.50506  -0.50170
 Alpha  occ. eigenvalues --   -0.49904  -0.49876  -0.49856  -0.49724  -0.49536
 Alpha  occ. eigenvalues --   -0.49090  -0.48963  -0.48569  -0.48186  -0.48041
 Alpha  occ. eigenvalues --   -0.47710  -0.47572  -0.47491  -0.47244  -0.47186
 Alpha  occ. eigenvalues --   -0.46898  -0.46887  -0.46662  -0.46554  -0.46506
 Alpha  occ. eigenvalues --   -0.46345  -0.46203  -0.46116  -0.46048  -0.45739
 Alpha  occ. eigenvalues --   -0.45415  -0.45135  -0.44969  -0.44809  -0.44735
 Alpha  occ. eigenvalues --   -0.44698  -0.44304  -0.43984  -0.43856  -0.43827
 Alpha  occ. eigenvalues --   -0.43611  -0.43553  -0.43390  -0.42945  -0.42880
 Alpha  occ. eigenvalues --   -0.42485  -0.42065  -0.41772  -0.41719  -0.41448
 Alpha  occ. eigenvalues --   -0.41335  -0.41253  -0.41241  -0.41233  -0.41055
 Alpha  occ. eigenvalues --   -0.40869  -0.40659  -0.40290  -0.40059  -0.39881
 Alpha  occ. eigenvalues --   -0.39736  -0.39701  -0.39554  -0.39429  -0.39153
 Alpha  occ. eigenvalues --   -0.38460  -0.38225  -0.38066  -0.37717  -0.37422
 Alpha  occ. eigenvalues --   -0.36658  -0.36270  -0.36107  -0.35007  -0.34319
 Alpha  occ. eigenvalues --   -0.34000  -0.33831  -0.33101  -0.33091  -0.33025
 Alpha  occ. eigenvalues --   -0.32592  -0.32425  -0.31718  -0.30873  -0.30746
 Alpha  occ. eigenvalues --   -0.30623  -0.30540  -0.30450  -0.30300  -0.30103
 Alpha  occ. eigenvalues --   -0.29922  -0.29644  -0.29495  -0.29024  -0.28853
 Alpha  occ. eigenvalues --   -0.27337  -0.27310
 Alpha virt. eigenvalues --   -0.11641  -0.10778  -0.07039  -0.06391  -0.06296
 Alpha virt. eigenvalues --   -0.06271  -0.06024  -0.05506  -0.05197  -0.04599
 Alpha virt. eigenvalues --   -0.04488  -0.04474  -0.04086  -0.03419  -0.02572

 Mulliken charges:
               1
     1  N   -0.761544
     2  H    0.415477
     3  H    0.434817
     4  H    0.410665
     5  C   -0.106871
     6  H    0.208967
     7  C    0.649698
     8  C   -0.112442
     9  H    0.156482
    10  O   -0.550814
    11  C   -0.480160
    12  H    0.196840
    13  H    0.195328
    14  H    0.140142
    15  C   -0.490302
    16  H    0.203817
    17  H    0.163262
    18  H    0.188256
    19  N   -0.598223
    20  H    0.378671
    21  C   -0.089678
    22  H    0.198687
    23  C    0.644713
    24  C   -0.072142
    25  H    0.146605
    26  O   -0.569651
    27  C   -0.279062
    28  H    0.158386
    29  H    0.154476
    30  C   -0.464444
    31  H    0.167826
    32  H    0.136692
    33  H    0.165871
    34  C   -0.467124
    35  H    0.174023
    36  H    0.154262
    37  H    0.151584
    38  N   -0.629252
    39  H    0.391203
    40  C   -0.039714
    41  H    0.185445
    42  C    0.631930
    43  C   -0.393807
    44  H    0.183716
    45  H    0.171870
    46  O   -0.537348
    47  C    0.162510
    48  C   -0.200728
    49  H    0.113898
    50  C   -0.199611
    51  H    0.183596
    52  C   -0.137101
    53  H    0.115102
    54  C   -0.135804
    55  H    0.147794
    56  C   -0.128501
    57  H    0.137057
    58  N   -0.599437
    59  H    0.343453
    60  C   -0.077191
    61  H    0.182664
    62  C    0.622160
    63  C   -0.256876
    64  H    0.138465
    65  H    0.147644
    66  O   -0.563852
    67  C   -0.092575
    68  H    0.126466
    69  C   -0.456827
    70  H    0.132803
    71  H    0.139037
    72  H    0.183715
    73  C   -0.466150
    74  H    0.138316
    75  H    0.186387
    76  H    0.126570
    77  N   -0.595238
    78  H    0.364094
    79  C   -0.063385
    80  H    0.196348
    81  C    0.585271
    82  C   -0.261436
    83  H    0.142268
    84  H    0.170094
    85  O   -0.537536
    86  C   -0.371316
    87  H    0.166914
    88  H    0.172042
    89  C    0.600454
    90  O   -0.559399
    91  O   -0.637128
    92  N   -0.630339
    93  H    0.382918
    94  C   -0.084767
    95  H    0.195177
    96  C    0.669568
    97  C   -0.383570
    98  H    0.155542
    99  H    0.206316
   100  O   -0.561777
   101  C    0.591145
   102  N   -0.774850
   103  H    0.349907
   104  H    0.372744
   105  O   -0.503483
   106  N   -0.588710
   107  H    0.346711
   108  C   -0.034744
   109  H    0.169454
   110  C    0.636994
   111  C   -0.378509
   112  H    0.172167
   113  H    0.161654
   114  O   -0.553727
   115  C    0.148323
   116  C   -0.180880
   117  H    0.149553
   118  C   -0.211785
   119  H    0.137498
   120  C   -0.154882
   121  H    0.153373
   122  C   -0.167492
   123  H    0.138383
   124  O   -0.661508
   125  H    0.420898
   126  C    0.340946
   127  N   -0.596777
   128  H    0.352049
   129  C   -0.024674
   130  H    0.198444
   131  C    0.593344
   132  C   -0.272587
   133  H    0.158002
   134  H    0.154005
   135  O   -0.488057
   136  C   -0.287463
   137  H    0.156432
   138  H    0.186299
   139  C   -0.155423
   140  H    0.185506
   141  H    0.166122
   142  N   -0.597931
   143  H    0.342786
   144  N   -0.797908
   145  H    0.423410
   146  H    0.390710
   147  N   -0.784836
   148  H    0.418074
   149  H    0.340940
   150  C    0.747216
   151  O   -0.567084
   152  H    0.428983
 Sum of Mulliken charges =   1.00000

 Dipole moment (field-independent basis, Debye):
    X=            -16.0093    Y=             -8.1239    Z=             25.1768  Tot=             30.9220
 Quadrupole moment (field-independent basis, Debye-Ang):
   XX=            -53.7925   YY=           -367.2078   ZZ=           -141.7583
   XY=             91.2664   XZ=           -325.2072   YZ=           -101.9814

 Normal termination of Gaussian 16 at Sun Aug 14 21:11:55 2022.
