 Gaussian 16, Revision C.01,
 Gaussian 16:  ES64L-G16RevC.01  3-Jul-2019

 ----------------------------------------------------------------------
 # B3LYP/6-31G* empiricaldispersion=gd3 guess=read geom=check nosymm in
 tegral(ultrafinegrid)
 ----------------------------------------------------------------------

 ------------------------------------------------------
 Candidate Structure: Conf:302 Charge calc in gas phase
 ------------------------------------------------------
 Structure from the checkpoint file:  "conf-302.chk"
 Charge =  1 Multiplicity = 1

                          Input orientation:
 ---------------------------------------------------------------------
 Center     Atomic      Atomic             Coordinates (Angstroms)
 Number     Number       Type             X           Y           Z
 ---------------------------------------------------------------------
      1          7           0       -2.291849   -0.717415    3.262615
      2          1           0       -3.101253   -0.447474    2.696829
      3          1           0       -2.196333   -1.738662    3.281465
      4          6           0       -1.033917   -0.095599    2.808267
      5          1           0       -1.178489    0.988092    2.734379
      6          6           0       -0.570766   -0.694942    1.461485
      7          6           0        0.064242   -0.416228    3.855098
      8          1           0       -0.281898   -0.048175    4.823861
      9          1           0        0.135165   -1.508378    3.904234
     10          8           0       -0.174090   -1.872216    1.407307
     11          6           0        1.411536    0.159743    3.499749
     12          6           0        2.243602   -0.285476    2.485215
     13          1           0        2.080377   -1.083478    1.785182
     14          6           0        2.112251    1.243380    4.154886
     15          6           0        3.350204    1.431696    3.451419
     16          6           0        1.809328    2.068486    5.256020
     17          1           0        0.897080    1.913726    5.821495
     18          7           0        3.392243    0.494100    2.434002
     19          1           0        4.112038    0.391699    1.710886
     20          6           0        3.930994    3.234411    4.915431
     21          1           0        4.626998    3.999322    5.238098
     22          6           0        4.253666    2.431138    3.825815
     23          1           0        5.190411    2.560238    3.297116
     24          6           0        2.725942    3.051547    5.630013
     25          1           0        2.520274    3.676539    6.491045
     26          7           0       -0.646756    0.150522    0.378069
     27          1           0       -0.997681    1.090300    0.532223
     28          6           0       -0.120735   -0.153153   -0.976758
     29          1           0       -0.550594    0.593968   -1.650633
     30          6           0        1.402490    0.011487   -0.900178
     31          6           0       -0.460210   -1.566931   -1.502976
     32          1           0       -0.081588   -2.264089   -0.754495
     33          8           0        2.141151   -0.815423   -0.350262
     34          6           0        0.277842   -1.826245   -2.844544
     35          1           0        1.356774   -1.883629   -2.650771
     36          1           0       -0.034408   -2.813470   -3.203712
     37          6           0       -1.985771   -1.733682   -1.622139
     38          1           0       -2.413312   -1.016437   -2.332341
     39          1           0       -2.222031   -2.744354   -1.969621
     40          1           0       -2.464057   -1.587342   -0.649039
     41          6           0        0.012717   -0.778626   -3.949790
     42          1           0        0.468060   -1.098190   -4.892373
     43          1           0        0.453809    0.193124   -3.692052
     44          1           0       -1.058992   -0.638627   -4.121556
     45          7           0        1.893845    1.211895   -1.408548
     46          1           0        1.321876    1.670422   -2.115811
     47          6           0        3.361816    1.485197   -1.503299
     48          1           0        3.600008    1.628467   -2.561874
     49          6           0        4.188545    0.268831   -1.043897
     50          6           0        3.790747    2.718867   -0.690437
     51          1           0        3.560915    2.552643    0.364664
     52          1           0        4.882424    2.776271   -0.760289
     53          8           0        4.833429    0.204597    0.002003
     54          6           0        3.197991    4.050406   -1.211393
     55          1           0        3.217884    4.057745   -2.309424
     56          1           0        3.841892    4.873961   -0.881595
     57          6           0        1.757848    4.382363   -0.752710
     58          1           0        1.415605    5.290115   -1.258074
     59          1           0        1.053334    3.588396   -1.001321
     60          7           0        1.677824    4.644550    0.702266
     61          1           0        1.920887    5.582839    1.004713
     62          7           0        1.357966    4.099654    2.933865
     63          1           0        1.371649    3.407072    3.690068
     64          1           0        1.506770    5.064168    3.206533
     65          7           0        1.157081    2.449565    1.315125
     66          1           0        1.366748    2.102221    0.377412
     67          6           0        1.407698    3.723730    1.651373
     68          8           0        4.249645   -0.643966   -2.050819
     69          1           0        1.075414    1.728094    2.043266
     70          1           0        4.740680   -1.458419   -1.749708
 ---------------------------------------------------------------------

 SCF Done:  E(RB3LYP) =  -1582.23792973     A.U. after   13 cycles

 Alpha  occ. eigenvalues --  -19.30526 -19.25684 -19.25237 -19.21037 -14.52572
 Alpha  occ. eigenvalues --  -14.50852 -14.50422 -14.50057 -14.47664 -14.46715
 Alpha  occ. eigenvalues --  -14.40530 -10.47860 -10.44738 -10.42110 -10.38433
 Alpha  occ. eigenvalues --  -10.37637 -10.37283 -10.35153 -10.32652 -10.32061
 Alpha  occ. eigenvalues --  -10.31934 -10.31802 -10.30600 -10.28953 -10.28796
 Alpha  occ. eigenvalues --  -10.28727 -10.28402 -10.28347 -10.27837 -10.27824
 Alpha  occ. eigenvalues --  -10.27619 -10.26877 -10.26731 -10.25719  -1.20631
 Alpha  occ. eigenvalues --   -1.16470  -1.16040  -1.12361  -1.12229  -1.06752
 Alpha  occ. eigenvalues --   -1.05932  -1.05626  -1.03678  -1.02843  -0.97154
 Alpha  occ. eigenvalues --   -0.93863  -0.93385  -0.90682  -0.89227  -0.88591
 Alpha  occ. eigenvalues --   -0.84205  -0.83656  -0.82891  -0.81957  -0.80389
 Alpha  occ. eigenvalues --   -0.79721  -0.78520  -0.75292  -0.74291  -0.73860
 Alpha  occ. eigenvalues --   -0.73228  -0.72018  -0.71598  -0.69961  -0.69245
 Alpha  occ. eigenvalues --   -0.68934  -0.68719  -0.66221  -0.65309  -0.64483
 Alpha  occ. eigenvalues --   -0.63796  -0.63413  -0.63165  -0.62212  -0.61636
 Alpha  occ. eigenvalues --   -0.61384  -0.60393  -0.59578  -0.59229  -0.58228
 Alpha  occ. eigenvalues --   -0.58045  -0.57453  -0.57047  -0.56178  -0.55659
 Alpha  occ. eigenvalues --   -0.55072  -0.54435  -0.54101  -0.53550  -0.53337
 Alpha  occ. eigenvalues --   -0.52764  -0.52564  -0.51826  -0.51253  -0.51007
 Alpha  occ. eigenvalues --   -0.50771  -0.50597  -0.50298  -0.49278  -0.48869
 Alpha  occ. eigenvalues --   -0.48804  -0.47902  -0.47272  -0.47090  -0.46773
 Alpha  occ. eigenvalues --   -0.46577  -0.45927  -0.45276  -0.44831  -0.44287
 Alpha  occ. eigenvalues --   -0.43622  -0.42970  -0.42742  -0.42022  -0.41543
 Alpha  occ. eigenvalues --   -0.41371  -0.41094  -0.40700  -0.39877  -0.39377
 Alpha  occ. eigenvalues --   -0.39114  -0.37578  -0.35560  -0.35081  -0.32445
 Alpha  occ. eigenvalues --   -0.31442  -0.30152
 Alpha virt. eigenvalues --   -0.12910  -0.11991  -0.11775  -0.11063  -0.08322
 Alpha virt. eigenvalues --   -0.07961  -0.07626  -0.07101  -0.04280  -0.03850
 Alpha virt. eigenvalues --   -0.03097  -0.02869  -0.01308  -0.00969  -0.00080

 Mulliken charges:
               1
     1  N   -0.707061
     2  H    0.309557
     3  H    0.327139
     4  C   -0.065775
     5  H    0.116298
     6  C    0.633654
     7  C   -0.330900
     8  H    0.169546
     9  H    0.189651
    10  O   -0.525244
    11  C   -0.013272
    12  C   -0.020837
    13  H    0.240442
    14  C    0.031062
    15  C    0.320504
    16  C   -0.272142
    17  H    0.156247
    18  N   -0.706863
    19  H    0.396755
    20  C   -0.155834
    21  H    0.149707
    22  C   -0.173354
    23  H    0.151311
    24  C   -0.153010
    25  H    0.152496
    26  N   -0.641561
    27  H    0.332522
    28  C   -0.034812
    29  H    0.140177
    30  C    0.630749
    31  C   -0.090871
    32  H    0.212810
    33  O   -0.490131
    34  C   -0.292208
    35  H    0.157958
    36  H    0.161627
    37  C   -0.460866
    38  H    0.139543
    39  H    0.169687
    40  H    0.154509
    41  C   -0.453455
    42  H    0.172397
    43  H    0.096750
    44  H    0.163756
    45  N   -0.678154
    46  H    0.354189
    47  C   -0.017137
    48  H    0.200669
    49  C    0.635129
    50  C   -0.295676
    51  H    0.168697
    52  H    0.188553
    53  O   -0.487853
    54  C   -0.276717
    55  H    0.164622
    56  H    0.170595
    57  C   -0.171805
    58  H    0.198116
    59  H    0.155693
    60  N   -0.610145
    61  H    0.359710
    62  N   -0.778787
    63  H    0.400807
    64  H    0.365106
    65  N   -0.841675
    66  H    0.410737
    67  C    0.824009
    68  O   -0.563589
    69  H    0.399932
    70  H    0.436316
 Sum of Mulliken charges =   1.00000

 Dipole moment (field-independent basis, Debye):
    X=              7.2460    Y=             16.1020    Z=             -0.0943  Tot=             17.6576
 Quadrupole moment (field-independent basis, Debye-Ang):
   XX=           -167.6666   YY=           -122.8096   ZZ=           -169.0449
   XY=             32.2464   XZ=             -1.7571   YZ=             22.6132

 Normal termination of Gaussian 16 at Sat Jul  9 00:31:58 2022.
