 Gaussian 16, Revision C.01,
 Gaussian 16:  ES64L-G16RevC.01  3-Jul-2019

 ----------------------------------------------------------------------
 # B3LYP/6-31G* empiricaldispersion=gd3 guess=read geom=check nosymm in
 tegral(ultrafinegrid)
 ----------------------------------------------------------------------

 ------------------------------------------------------
 Candidate Structure: Conf:156 Charge calc in gas phase
 ------------------------------------------------------
 Structure from the checkpoint file:  "conf-156.chk"
 Charge =  1 Multiplicity = 1

                          Input orientation:
 ---------------------------------------------------------------------
 Center     Atomic      Atomic             Coordinates (Angstroms)
 Number     Number       Type             X           Y           Z
 ---------------------------------------------------------------------
      1          7           0       -4.059440    1.374696   -3.145080
      2          1           0       -4.831016    1.887341   -2.715432
      3          1           0       -3.184409    1.443672   -2.559035
      4          1           0       -3.841495    1.753591   -4.096311
      5          6           0       -4.276028   -0.111192   -3.253021
      6          1           0       -5.258177   -0.357155   -2.843221
      7          6           0       -3.153724   -0.711908   -2.376290
      8          6           0       -4.180395   -0.563116   -4.756710
      9          1           0       -5.180850   -0.492395   -5.194388
     10          1           0       -3.874706   -1.612434   -4.772699
     11          8           0       -2.274694    0.045473   -1.948516
     12          6           0       -3.241658    0.277287   -5.555881
     13          6           0       -3.474412    1.453980   -6.258251
     14          1           0       -4.433377    1.902765   -6.494979
     15          7           0       -1.876582    0.104312   -5.602264
     16          1           0       -1.353577   -0.677895   -5.196421
     17          6           0       -1.362960    1.134846   -6.329531
     18          1           0       -0.300903    1.215954   -6.506577
     19          7           0       -2.297963    1.975408   -6.737799
     20          7           0       -3.208759   -2.030359   -2.162889
     21          1           0       -3.874415   -2.578662   -2.704639
     22          6           0       -1.980751   -2.786535   -1.904364
     23          1           0       -1.552786   -2.524437   -0.934866
     24          6           0       -0.989843   -2.476203   -3.045780
     25          6           0       -2.352505   -4.291258   -1.956845
     26          1           0       -1.412103   -4.856985   -2.003849
     27          8           0       -1.445937   -2.274063   -4.192808
     28          6           0       -3.159445   -4.740849   -0.748823
     29          1           0       -2.567787   -4.620274    0.163809
     30          1           0       -3.432856   -5.793652   -0.860125
     31          1           0       -4.079500   -4.154497   -0.652219
     32          8           0       -3.148737   -4.533525   -3.122701
     33          1           0       -2.620214   -4.278169   -3.900816
     34          7           0        0.290340   -2.506576   -2.700029
     35          1           0        0.497408   -2.601198   -1.682637
     36          6           0        1.409015   -2.172559   -3.595091
     37          1           0        2.296267   -2.326954   -2.976214
     38          6           0        1.326284   -0.661000   -3.930412
     39          6           0        1.478082   -3.053677   -4.845138
     40          1           0        0.601070   -2.846716   -5.462336
     41          1           0        1.411319   -4.100279   -4.516788
     42          8           0        0.986529   -0.240012   -5.039061
     43          6           0        2.753667   -2.863399   -5.689119
     44          1           0        2.792294   -1.810826   -5.996906
     45          6           0        4.036235   -3.193853   -4.910562
     46          1           0        4.009306   -4.224092   -4.531266
     47          1           0        4.192411   -2.525804   -4.055651
     48          1           0        4.916191   -3.101451   -5.557370
     49          6           0        2.658665   -3.723257   -6.957671
     50          1           0        2.610190   -4.790699   -6.704500
     51          1           0        3.532592   -3.573966   -7.602077
     52          1           0        1.763732   -3.475322   -7.540300
     53          7           0        1.636574    0.136091   -2.884288
     54          1           0        1.855737   -0.326632   -1.992853
     55          6           0        1.562642    1.591754   -2.984160
     56          1           0        2.042383    1.895854   -3.917449
     57          6           0        2.363091    2.258085   -1.858103
     58          6           0        0.108733    2.102323   -2.975427
     59          1           0        0.090314    3.194823   -3.059399
     60          1           0       -0.401825    1.800576   -2.056278
     61          1           0       -0.423840    1.671888   -3.825844
     62          8           0        3.216776    3.112666   -2.074492
     63          7           0        2.012093    1.896375   -0.585994
     64          1           0        1.382769    1.116629   -0.441367
     65          6           0        2.737594    2.448661    0.555020
     66          1           0        3.804558    2.429596    0.295900
     67          6           0        2.531798    1.549101    1.786178
     68          6           0        2.341307    3.913626    0.844427
     69          1           0        2.138967    4.384853   -0.120402
     70          1           0        1.424301    3.928613    1.438265
     71          8           0        2.153098    2.018904    2.870717
     72          6           0        3.447883    4.674826    1.538358
     73          6           0        3.414781    4.956319    2.909583
     74          1           0        2.579247    4.599847    3.502461
     75          6           0        4.555465    5.102933    0.791833
     76          1           0        4.594007    4.874960   -0.270805
     77          6           0        4.441029    5.679963    3.519499
     78          1           0        4.394475    5.928891    4.575878
     79          6           0        5.602764    5.801905    1.392770
     80          1           0        6.461223    6.120750    0.804875
     81          8           0        6.561072    6.786252    3.407692
     82          1           0        7.082866    7.272956    2.748991
     83          6           0        5.525501    6.094585    2.752328
     84          7           0        2.803998    0.248371    1.576579
     85          1           0        2.943222   -0.095783    0.613768
     86          6           0        2.394363   -0.830654    2.489330
     87          1           0        1.449179   -0.533132    2.960448
     88          6           0        3.493229   -0.936190    3.576814
     89          6           0        2.232789   -2.156143    1.721617
     90          1           0        1.639483   -2.845520    2.325319
     91          1           0        3.229723   -2.595401    1.602950
     92          8           0        4.373032   -1.783573    3.566159
     93          6           0        1.615223   -2.040494    0.315358
     94          8           0        2.204983   -1.239419   -0.491634
     95          8           0        0.633802   -2.763191    0.029704
     96          7           0        3.432626    0.086270    4.491827
     97          1           0        2.810947    0.853394    4.223044
     98          6           0        4.664790    0.494956    5.155418
     99          1           0        5.191271   -0.422451    5.441821
    100          6           0        4.311645    1.238369    6.440357
    101          6           0        5.527814    1.316338    4.178016
    102          1           0        4.901524    2.126077    3.784362
    103          1           0        5.738583    0.649113    3.337408
    104          8           0        4.602862    2.392614    6.699206
    105          6           0        6.844046    1.896811    4.747973
    106          1           0        7.015329    1.532353    5.768413
    107          1           0        7.700542    1.564326    4.149583
    108          6           0        6.772354    3.428125    4.761899
    109          1           0        6.665403    3.802662    3.737520
    110          1           0        5.862576    3.701976    5.306040
    111          6           0        7.969227    4.093868    5.421968
    112          1           0        8.876571    4.049810    4.813824
    113          1           0        8.184080    3.677660    6.409847
    114          7           0        7.656145    5.569706    5.629468
    115          1           0        8.453172    6.093069    6.005408
    116          1           0        6.878835    5.670934    6.291319
    117          1           0        7.337989    6.027316    4.731992
    118          8           0        3.627777    0.455864    7.290935
    119          1           0        3.425399    0.994073    8.079620
 ---------------------------------------------------------------------

 SCF Done:  E(RB3LYP) =  -2933.87713730     A.U. after    2 cycles

 Alpha  occ. eigenvalues --  -19.30979 -19.27392 -19.23795 -19.22467 -19.21937
 Alpha  occ. eigenvalues --  -19.19416 -19.18864 -19.17866 -19.17840 -19.16616
 Alpha  occ. eigenvalues --  -19.15555 -19.15113 -14.58898 -14.55470 -14.45622
 Alpha  occ. eigenvalues --  -14.44290 -14.42576 -14.41864 -14.41274 -14.41269
 Alpha  occ. eigenvalues --  -14.40067 -14.37437 -10.40255 -10.40138 -10.37753
 Alpha  occ. eigenvalues --  -10.37343 -10.36002 -10.35317 -10.34836 -10.34674
 Alpha  occ. eigenvalues --  -10.34490 -10.33443 -10.33342 -10.31343 -10.30999
 Alpha  occ. eigenvalues --  -10.30885 -10.30367 -10.30205 -10.29792 -10.29761
 Alpha  occ. eigenvalues --  -10.29675 -10.29555 -10.28720 -10.28329 -10.28179
 Alpha  occ. eigenvalues --  -10.28172 -10.27904 -10.27423 -10.27417 -10.27317
 Alpha  occ. eigenvalues --  -10.27278 -10.26520 -10.25452 -10.23807 -10.23791
 Alpha  occ. eigenvalues --  -10.23468 -10.22317 -10.22024 -10.20939 -10.20622
 Alpha  occ. eigenvalues --   -1.18663  -1.17637  -1.16006  -1.13302  -1.10961
 Alpha  occ. eigenvalues --   -1.10785  -1.09902  -1.09721  -1.09576  -1.09466
 Alpha  occ. eigenvalues --   -1.08946  -1.08452  -1.08067  -1.07445  -1.02443
 Alpha  occ. eigenvalues --   -1.00426  -0.99218  -0.98992  -0.98529  -0.97951
 Alpha  occ. eigenvalues --   -0.96518  -0.94258  -0.93203  -0.91524  -0.89839
 Alpha  occ. eigenvalues --   -0.86738  -0.86015  -0.85843  -0.84553  -0.83791
 Alpha  occ. eigenvalues --   -0.83664  -0.82692  -0.82356  -0.80719  -0.80096
 Alpha  occ. eigenvalues --   -0.79350  -0.77065  -0.75693  -0.75239  -0.74401
 Alpha  occ. eigenvalues --   -0.72633  -0.72192  -0.72138  -0.71718  -0.71299
 Alpha  occ. eigenvalues --   -0.70744  -0.70660  -0.69861  -0.68948  -0.68759
 Alpha  occ. eigenvalues --   -0.68326  -0.67970  -0.66918  -0.66728  -0.66087
 Alpha  occ. eigenvalues --   -0.65391  -0.65283  -0.64926  -0.64005  -0.63884
 Alpha  occ. eigenvalues --   -0.63515  -0.62666  -0.62372  -0.62217  -0.61261
 Alpha  occ. eigenvalues --   -0.60676  -0.59862  -0.59315  -0.59037  -0.58900
 Alpha  occ. eigenvalues --   -0.58646  -0.57978  -0.57848  -0.57062  -0.56627
 Alpha  occ. eigenvalues --   -0.56293  -0.55891  -0.55532  -0.55145  -0.55025
 Alpha  occ. eigenvalues --   -0.54667  -0.54237  -0.53492  -0.53203  -0.52934
 Alpha  occ. eigenvalues --   -0.52352  -0.52308  -0.52134  -0.51992  -0.51382
 Alpha  occ. eigenvalues --   -0.51333  -0.51119  -0.50878  -0.50492  -0.50217
 Alpha  occ. eigenvalues --   -0.50200  -0.49793  -0.49565  -0.49538  -0.49082
 Alpha  occ. eigenvalues --   -0.48909  -0.48490  -0.48233  -0.48066  -0.47979
 Alpha  occ. eigenvalues --   -0.47741  -0.47684  -0.47559  -0.47207  -0.47183
 Alpha  occ. eigenvalues --   -0.46923  -0.46645  -0.46524  -0.46268  -0.46111
 Alpha  occ. eigenvalues --   -0.45694  -0.45361  -0.45189  -0.45044  -0.44641
 Alpha  occ. eigenvalues --   -0.44545  -0.44509  -0.44283  -0.43741  -0.43407
 Alpha  occ. eigenvalues --   -0.43110  -0.42963  -0.42834  -0.42528  -0.42328
 Alpha  occ. eigenvalues --   -0.42245  -0.41917  -0.41905  -0.41503  -0.41295
 Alpha  occ. eigenvalues --   -0.40768  -0.40603  -0.40385  -0.39943  -0.39820
 Alpha  occ. eigenvalues --   -0.39734  -0.38181  -0.36885  -0.36494  -0.36243
 Alpha  occ. eigenvalues --   -0.35916  -0.35869  -0.34940  -0.34507  -0.34412
 Alpha  occ. eigenvalues --   -0.33922  -0.33761  -0.33492  -0.32831  -0.32684
 Alpha  occ. eigenvalues --   -0.32230  -0.31998  -0.31684  -0.31288  -0.30930
 Alpha  occ. eigenvalues --   -0.30551  -0.30123  -0.29676  -0.29454  -0.29248
 Alpha  occ. eigenvalues --   -0.28977
 Alpha virt. eigenvalues --   -0.10500  -0.09790  -0.09128  -0.08327  -0.07681
 Alpha virt. eigenvalues --   -0.06998  -0.05746  -0.05097  -0.05070  -0.04670
 Alpha virt. eigenvalues --   -0.04591  -0.04289  -0.03828  -0.02485  -0.02484

 Mulliken charges:
               1
     1  N   -0.765554
     2  H    0.400535
     3  H    0.428128
     4  H    0.395812
     5  C   -0.106362
     6  H    0.208727
     7  C    0.651707
     8  C   -0.374083
     9  H    0.189085
    10  H    0.218651
    11  O   -0.535912
    12  C    0.246310
    13  C   -0.110230
    14  H    0.146555
    15  N   -0.601132
    16  H    0.423330
    17  C    0.209222
    18  H    0.205089
    19  N   -0.410941
    20  N   -0.584388
    21  H    0.355995
    22  C   -0.083079
    23  H    0.220312
    24  C    0.622887
    25  C    0.094492
    26  H    0.167224
    27  O   -0.611336
    28  C   -0.450668
    29  H    0.173057
    30  H    0.177836
    31  H    0.148442
    32  O   -0.637513
    33  H    0.412592
    34  N   -0.645541
    35  H    0.421624
    36  C   -0.080560
    37  H    0.179183
    38  C    0.638942
    39  C   -0.255224
    40  H    0.166847
    41  H    0.127289
    42  O   -0.563473
    43  C   -0.082352
    44  H    0.150621
    45  C   -0.453522
    46  H    0.140670
    47  H    0.142611
    48  H    0.147576
    49  C   -0.444709
    50  H    0.138027
    51  H    0.144743
    52  H    0.144192
    53  N   -0.665133
    54  H    0.414537
    55  C   -0.024597
    56  H    0.190094
    57  C    0.596456
    58  C   -0.476887
    59  H    0.154620
    60  H    0.153911
    61  H    0.177095
    62  O   -0.523900
    63  N   -0.627304
    64  H    0.343908
    65  C   -0.015414
    66  H    0.184291
    67  C    0.589302
    68  C   -0.341909
    69  H    0.180482
    70  H    0.164013
    71  O   -0.564738
    72  C    0.143242
    73  C   -0.174904
    74  H    0.168981
    75  C   -0.191548
    76  H    0.187904
    77  C   -0.166215
    78  H    0.125417
    79  C   -0.183646
    80  H    0.141201
    81  O   -0.712548
    82  H    0.433488
    83  C    0.332226
    84  N   -0.611908
    85  H    0.390096
    86  C   -0.078730
    87  H    0.173539
    88  C    0.625253
    89  C   -0.372570
    90  H    0.171309
    91  H    0.199310
    92  O   -0.507520
    93  C    0.600484
    94  O   -0.621676
    95  O   -0.577885
    96  N   -0.615550
    97  H    0.373342
    98  C   -0.049520
    99  H    0.206805
   100  C    0.577892
   101  C   -0.291764
   102  H    0.163929
   103  H    0.181274
   104  O   -0.492885
   105  C   -0.266969
   106  H    0.149951
   107  H    0.155100
   108  C   -0.307125
   109  H    0.177794
   110  H    0.193336
   111  C   -0.199050
   112  H    0.207964
   113  H    0.210492
   114  N   -0.768980
   115  H    0.406181
   116  H    0.411821
   117  H    0.450823
   118  O   -0.535959
   119  H    0.417241
 Sum of Mulliken charges =   1.00000

 Dipole moment (field-independent basis, Debye):
    X=             13.3259    Y=             20.9080    Z=             15.6844  Tot=             29.3381
 Quadrupole moment (field-independent basis, Debye-Ang):
   XX=            -73.2646   YY=           -237.6762   ZZ=           -247.1859
   XY=            151.1470   XZ=            178.0046   YZ=            115.3580

 Normal termination of Gaussian 16 at Sun Jun 19 13:53:20 2022.
