 Gaussian 16, Revision C.01,
 Gaussian 16:  ES64L-G16RevC.01  3-Jul-2019

 ----------------------------------------------------------------------
 # B3LYP/6-31G* empiricaldispersion=gd3 guess=read geom=check nosymm in
 tegral(ultrafinegrid)
 ----------------------------------------------------------------------

 ------------------------------------------------------
 Candidate Structure: Conf:404 Charge calc in gas phase
 ------------------------------------------------------
 Structure from the checkpoint file:  "conf-404.chk"
 Charge =  1 Multiplicity = 1

                          Input orientation:
 ---------------------------------------------------------------------
 Center     Atomic      Atomic             Coordinates (Angstroms)
 Number     Number       Type             X           Y           Z
 ---------------------------------------------------------------------
      1          7           0       -6.385777   -0.930550   -5.817795
      2          1           0       -7.389659   -1.094578   -5.704567
      3          1           0       -6.067148   -0.269385   -5.063565
      4          1           0       -6.210299   -0.553100   -6.769177
      5          6           0       -5.551524   -2.162139   -5.584757
      6          1           0       -6.195496   -3.039040   -5.673317
      7          6           0       -4.985334   -1.966958   -4.160900
      8          6           0       -4.373873   -2.215326   -6.611074
      9          1           0       -3.937854   -3.218571   -6.557829
     10          1           0       -3.596716   -1.520934   -6.278889
     11          8           0       -5.078418   -0.837471   -3.654178
     12          6           0       -4.778903   -1.845647   -7.996545
     13          6           0       -4.807056   -0.607557   -8.615419
     14          1           0       -4.405834    0.326184   -8.236889
     15          7           0       -5.355234   -2.705559   -8.915088
     16          1           0       -5.431693   -3.710974   -8.832235
     17          6           0       -5.663281   -1.965303  -10.026324
     18          1           0       -6.105246   -2.407399  -10.909341
     19          7           0       -5.357305   -0.697013   -9.871557
     20          7           0       -4.359302   -3.005164   -3.620481
     21          1           0       -4.240267   -3.894075   -4.106052
     22          6           0       -3.523466   -2.909619   -2.415031
     23          1           0       -4.033762   -2.276378   -1.684043
     24          6           0       -2.167934   -2.294232   -2.831801
     25          6           0       -3.326212   -4.349430   -1.884386
     26          1           0       -2.522936   -4.316614   -1.137535
     27          8           0       -1.199092   -3.016790   -3.096851
     28          6           0       -4.589635   -4.927904   -1.266868
     29          1           0       -4.900137   -4.343171   -0.394997
     30          1           0       -4.399214   -5.956186   -0.949896
     31          1           0       -5.412154   -4.941512   -1.990773
     32          8           0       -2.950909   -5.175297   -2.988275
     33          1           0       -2.046836   -4.885954   -3.223433
     34          7           0       -2.148608   -0.952863   -2.936696
     35          1           0       -2.968154   -0.433457   -2.644453
     36          6           0       -0.943421   -0.183227   -3.281434
     37          1           0       -0.327235   -0.834082   -3.908008
     38          6           0       -0.157371    0.123286   -1.978985
     39          6           0       -1.331089    1.094298   -4.026598
     40          1           0       -0.409543    1.642951   -4.248821
     41          1           0       -1.890182    1.740702   -3.339095
     42          8           0       -0.031704    1.278322   -1.567350
     43          6           0       -2.135605    0.877035   -5.322026
     44          1           0       -3.066954    0.354419   -5.050143
     45          6           0       -2.522369    2.230652   -5.934348
     46          1           0       -1.629073    2.795841   -6.226105
     47          1           0       -3.086337    2.845310   -5.223747
     48          1           0       -3.135999    2.102914   -6.835848
     49          6           0       -1.378387    0.016706   -6.346172
     50          1           0       -0.420232    0.484059   -6.605138
     51          1           0       -1.945421   -0.084950   -7.280318
     52          1           0       -1.164816   -0.990869   -5.970540
     53          7           0        0.301161   -0.976446   -1.352155
     54          1           0        0.222309   -1.869989   -1.825343
     55          6           0        0.818840   -0.992908    0.026741
     56          1           0        0.326675   -0.197912    0.597670
     57          6           0        2.315439   -0.645549    0.051197
     58          6           0        0.539559   -2.341444    0.676838
     59          1           0        0.779693   -2.268855    1.742513
     60          1           0        1.139709   -3.135153    0.218438
     61          1           0       -0.525811   -2.584001    0.574499
     62          8           0        3.180325   -1.407092    0.484888
     63          7           0        2.611203    0.578723   -0.466145
     64          1           0        1.837922    1.228077   -0.585267
     65          6           0        3.965794    1.103810   -0.424603
     66          1           0        4.635320    0.245004   -0.543514
     67          6           0        4.202098    1.727686    0.962845
     68          6           0        4.193337    2.105999   -1.567313
     69          1           0        3.519216    2.957626   -1.423410
     70          1           0        5.212568    2.502917   -1.476256
     71          8           0        4.291650    2.970235    1.113159
     72          6           0        3.988610    1.475870   -2.925889
     73          6           0        5.015661    0.746807   -3.541390
     74          1           0        5.983834    0.669610   -3.050697
     75          6           0        2.753496    1.550145   -3.578364
     76          1           0        1.930191    2.084480   -3.112259
     77          6           0        4.829944    0.113563   -4.766413
     78          1           0        5.628293   -0.446774   -5.242025
     79          6           0        2.551890    0.922179   -4.808157
     80          1           0        1.589420    0.999427   -5.311117
     81          8           0        3.456395   -0.432098   -6.613032
     82          1           0        2.573338   -0.251410   -6.969452
     83          6           0        3.590325    0.202644   -5.407251
     84          7           0        4.210365    0.862315    1.972303
     85          1           0        4.026644   -0.109467    1.717713
     86          6           0        3.828562    1.260074    3.323234
     87          1           0        3.146669    2.112222    3.221961
     88          6           0        5.031369    1.670744    4.168404
     89          6           0        3.025528    0.113064    3.957566
     90          1           0        2.775540    0.356901    4.997012
     91          1           0        3.619732   -0.807626    3.990526
     92          8           0        6.205956    1.453287    3.873093
     93          6           0        1.686433   -0.160542    3.169909
     94          8           0        1.118487   -1.225868    3.474667
     95          8           0        1.365550    0.721288    2.322709
     96          7           0        4.673396    2.345189    5.309488
     97          1           0        3.685932    2.378526    5.527767
     98          6           0        5.580883    2.515103    6.440248
     99          1           0        6.362084    1.750436    6.343358
    100          6           0        4.873069    2.229376    7.765782
    101          6           0        6.291348    3.890230    6.552442
    102          1           0        6.801565    3.885545    7.520328
    103          1           0        5.531735    4.682237    6.590282
    104          8           0        5.406831    2.346553    8.843478
    105          6           0        7.327239    4.188580    5.452233
    106          1           0        8.052109    4.917079    5.834603
    107          1           0        7.878687    3.263989    5.249023
    108          6           0        6.743623    4.725698    4.129617
    109          1           0        5.753469    4.298847    3.955291
    110          1           0        6.616671    5.816061    4.187277
    111          6           0        7.646245    4.355483    2.960536
    112          1           0        7.786806    3.273508    2.929647
    113          1           0        8.614966    4.862844    2.994945
    114          7           0        6.983128    4.725310    1.655030
    115          1           0        7.594776    4.559454    0.851284
    116          1           0        6.708005    5.711790    1.638584
    117          1           0        6.095546    4.139775    1.490719
    118          8           0        3.587173    1.834095    7.611462
    119          1           0        3.231303    1.663414    8.504165
 ---------------------------------------------------------------------

 SCF Done:  E(RB3LYP) =  -2933.79747016     A.U. after    1 cycles

 Alpha  occ. eigenvalues --  -19.28116 -19.25762 -19.23893 -19.22786 -19.22551
 Alpha  occ. eigenvalues --  -19.19498 -19.17460 -19.16232 -19.16060 -19.14307
 Alpha  occ. eigenvalues --  -19.06243 -19.05569 -14.60543 -14.57411 -14.52243
 Alpha  occ. eigenvalues --  -14.51050 -14.46490 -14.43565 -14.40786 -14.40584
 Alpha  occ. eigenvalues --  -14.38360 -14.37975 -10.44891 -10.42277 -10.39505
 Alpha  occ. eigenvalues --  -10.37876 -10.36542 -10.36452 -10.36075 -10.34924
 Alpha  occ. eigenvalues --  -10.34833 -10.34427 -10.33868 -10.33195 -10.32863
 Alpha  occ. eigenvalues --  -10.32242 -10.31278 -10.31014 -10.29694 -10.29625
 Alpha  occ. eigenvalues --  -10.28388 -10.28220 -10.26936 -10.26847 -10.26601
 Alpha  occ. eigenvalues --  -10.26478 -10.26198 -10.26151 -10.25290 -10.25278
 Alpha  occ. eigenvalues --  -10.24843 -10.24708 -10.23908 -10.23635 -10.23591
 Alpha  occ. eigenvalues --  -10.23569 -10.23486 -10.23055 -10.18982 -10.18437
 Alpha  occ. eigenvalues --   -1.20436  -1.16427  -1.15126  -1.14466  -1.14091
 Alpha  occ. eigenvalues --   -1.11424  -1.11277  -1.10762  -1.09040  -1.07870
 Alpha  occ. eigenvalues --   -1.07384  -1.07241  -1.06787  -1.05793  -1.02656
 Alpha  occ. eigenvalues --   -0.99948  -0.99283  -0.97355  -0.97171  -0.95826
 Alpha  occ. eigenvalues --   -0.95541  -0.94684  -0.90749  -0.90389  -0.89811
 Alpha  occ. eigenvalues --   -0.89621  -0.89421  -0.87181  -0.84539  -0.84206
 Alpha  occ. eigenvalues --   -0.82841  -0.81812  -0.80407  -0.80290  -0.79414
 Alpha  occ. eigenvalues --   -0.79296  -0.78060  -0.77498  -0.76179  -0.75182
 Alpha  occ. eigenvalues --   -0.74653  -0.74434  -0.74127  -0.73564  -0.72887
 Alpha  occ. eigenvalues --   -0.71742  -0.70230  -0.70185  -0.70092  -0.69364
 Alpha  occ. eigenvalues --   -0.68998  -0.67982  -0.67621  -0.67139  -0.66853
 Alpha  occ. eigenvalues --   -0.66132  -0.65903  -0.65056  -0.64611  -0.64501
 Alpha  occ. eigenvalues --   -0.64057  -0.63674  -0.62311  -0.62139  -0.61334
 Alpha  occ. eigenvalues --   -0.61076  -0.60759  -0.60051  -0.59283  -0.59204
 Alpha  occ. eigenvalues --   -0.59004  -0.58225  -0.58060  -0.57587  -0.57268
 Alpha  occ. eigenvalues --   -0.56916  -0.56384  -0.56017  -0.55527  -0.54563
 Alpha  occ. eigenvalues --   -0.54417  -0.54036  -0.53728  -0.53647  -0.53399
 Alpha  occ. eigenvalues --   -0.53166  -0.53057  -0.52922  -0.52423  -0.52253
 Alpha  occ. eigenvalues --   -0.52157  -0.51615  -0.51504  -0.51322  -0.50784
 Alpha  occ. eigenvalues --   -0.50558  -0.50466  -0.49854  -0.49496  -0.49218
 Alpha  occ. eigenvalues --   -0.48538  -0.48231  -0.47969  -0.47830  -0.47542
 Alpha  occ. eigenvalues --   -0.47408  -0.47201  -0.47084  -0.46530  -0.46326
 Alpha  occ. eigenvalues --   -0.45794  -0.45782  -0.45645  -0.45405  -0.45224
 Alpha  occ. eigenvalues --   -0.45015  -0.44901  -0.44529  -0.44007  -0.43669
 Alpha  occ. eigenvalues --   -0.43489  -0.43045  -0.42954  -0.42912  -0.42626
 Alpha  occ. eigenvalues --   -0.41915  -0.41803  -0.41732  -0.41336  -0.41273
 Alpha  occ. eigenvalues --   -0.41184  -0.41043  -0.40917  -0.40728  -0.40195
 Alpha  occ. eigenvalues --   -0.40101  -0.39587  -0.39362  -0.39200  -0.38937
 Alpha  occ. eigenvalues --   -0.38698  -0.38211  -0.37695  -0.37537  -0.37403
 Alpha  occ. eigenvalues --   -0.37213  -0.36952  -0.36716  -0.36187  -0.35367
 Alpha  occ. eigenvalues --   -0.34982  -0.33958  -0.33443  -0.32074  -0.31119
 Alpha  occ. eigenvalues --   -0.30594  -0.30415  -0.30118  -0.29857  -0.28916
 Alpha  occ. eigenvalues --   -0.27509  -0.26815  -0.26235  -0.21698  -0.20940
 Alpha  occ. eigenvalues --   -0.19914
 Alpha virt. eigenvalues --   -0.14092  -0.11547  -0.10358  -0.09275  -0.08268
 Alpha virt. eigenvalues --   -0.07812  -0.06146  -0.05102  -0.04956  -0.04880
 Alpha virt. eigenvalues --   -0.04243  -0.03898  -0.03281  -0.03027  -0.02441

 Mulliken charges:
               1
     1  N   -0.754029
     2  H    0.417913
     3  H    0.432162
     4  H    0.402683
     5  C   -0.105394
     6  H    0.213894
     7  C    0.664879
     8  C   -0.409924
     9  H    0.203903
    10  H    0.238386
    11  O   -0.546323
    12  C    0.288247
    13  C   -0.106093
    14  H    0.178549
    15  N   -0.602775
    16  H    0.354145
    17  C    0.224053
    18  H    0.200971
    19  N   -0.386920
    20  N   -0.588719
    21  H    0.364572
    22  C   -0.092384
    23  H    0.198691
    24  C    0.637812
    25  C    0.096060
    26  H    0.183882
    27  O   -0.551528
    28  C   -0.451738
    29  H    0.166948
    30  H    0.192841
    31  H    0.137496
    32  O   -0.648052
    33  H    0.428560
    34  N   -0.592899
    35  H    0.361852
    36  C   -0.096491
    37  H    0.192444
    38  C    0.655176
    39  C   -0.285555
    40  H    0.177316
    41  H    0.164546
    42  O   -0.545335
    43  C   -0.091502
    44  H    0.096100
    45  C   -0.452848
    46  H    0.164956
    47  H    0.156218
    48  H    0.132729
    49  C   -0.470286
    50  H    0.159236
    51  H    0.140523
    52  H    0.153623
    53  N   -0.611854
    54  H    0.356410
    55  C   -0.078359
    56  H    0.233470
    57  C    0.668313
    58  C   -0.493817
    59  H    0.262212
    60  H    0.137382
    61  H    0.098186
    62  O   -0.557642
    63  N   -0.595792
    64  H    0.373125
    65  C   -0.063982
    66  H    0.181328
    67  C    0.636665
    68  C   -0.369975
    69  H    0.162992
    70  H    0.119898
    71  O   -0.614925
    72  C    0.181908
    73  C   -0.182616
    74  H    0.123071
    75  C   -0.198954
    76  H    0.150688
    77  C   -0.155261
    78  H    0.144587
    79  C   -0.211822
    80  H    0.104264
    81  O   -0.642139
    82  H    0.400405
    83  C    0.345501
    84  N   -0.571594
    85  H    0.389369
    86  C   -0.054951
    87  H    0.183580
    88  C    0.610131
    89  C   -0.414985
    90  H    0.143870
    91  H    0.159025
    92  O   -0.553287
    93  C    0.597583
    94  O   -0.585996
    95  O   -0.620462
    96  N   -0.617414
    97  H    0.359317
    98  C   -0.045776
    99  H    0.205903
   100  C    0.593025
   101  C   -0.272788
   102  H    0.186197
   103  H    0.144350
   104  O   -0.450963
   105  C   -0.278750
   106  H    0.152477
   107  H    0.171690
   108  C   -0.288924
   109  H    0.200198
   110  H    0.147875
   111  C   -0.207484
   112  H    0.253204
   113  H    0.197564
   114  N   -0.754322
   115  H    0.410610
   116  H    0.406830
   117  H    0.445946
   118  O   -0.574109
   119  H    0.427219
 Sum of Mulliken charges =   1.00000

 Dipole moment (field-independent basis, Debye):
    X=            -11.1682    Y=              5.7572    Z=            -25.3300  Tot=             28.2751
 Quadrupole moment (field-independent basis, Debye-Ang):
   XX=            -58.1782   YY=           -252.6758   ZZ=           -180.6568
   XY=            173.6496   XZ=            184.4380   YZ=            102.6728

 Normal termination of Gaussian 16 at Sun Jun 19 13:52:05 2022.
