 Gaussian 16, Revision C.01,
 Gaussian 16:  ES64L-G16RevC.01  3-Jul-2019

 ----------------------------------------------------------------------
 # B3LYP/6-31G* empiricaldispersion=gd3 guess=read geom=check nosymm in
 tegral(ultrafinegrid)
 ----------------------------------------------------------------------

 ------------------------------------------------------
 Candidate Structure: Conf:535 Charge calc in gas phase
 ------------------------------------------------------
 Structure from the checkpoint file:  "conf-535.chk"
 Charge =  1 Multiplicity = 1

                          Input orientation:
 ---------------------------------------------------------------------
 Center     Atomic      Atomic             Coordinates (Angstroms)
 Number     Number       Type             X           Y           Z
 ---------------------------------------------------------------------
      1          7           0       -2.122610    0.616323   -7.037983
      2          1           0       -1.502115    0.606313   -7.850717
      3          1           0       -2.669943    1.484786   -7.013126
      4          1           0       -1.554117    0.621412   -6.127782
      5          6           0       -3.058810   -0.568249   -7.014234
      6          1           0       -3.543934   -0.629633   -7.993545
      7          6           0       -4.084932   -0.214525   -5.912527
      8          6           0       -2.238967   -1.856413   -6.723426
      9          1           0       -1.880482   -1.808613   -5.691455
     10          1           0       -1.345430   -1.845052   -7.364319
     11          8           0       -3.951734    0.859824   -5.309769
     12          6           0       -3.000376   -3.125090   -6.934192
     13          6           0       -3.695857   -3.944248   -6.066934
     14          1           0       -3.827816   -3.820267   -4.998964
     15          7           0       -3.165207   -3.717899   -8.178600
     16          1           0       -2.732724   -3.429876   -9.045628
     17          6           0       -3.921733   -4.843070   -7.996263
     18          1           0       -4.186738   -5.499695   -8.814178
     19          7           0       -4.265937   -5.000529   -6.737338
     20          7           0       -5.030508   -1.120064   -5.663336
     21          1           0       -5.061216   -1.976889   -6.204063
     22          6           0       -5.952303   -1.022351   -4.521113
     23          1           0       -6.219916    0.032244   -4.406702
     24          6           0       -5.182809   -1.547994   -3.280640
     25          6           0       -7.204662   -1.857045   -4.803311
     26          1           0       -6.908194   -2.916638   -4.805306
     27          8           0       -5.346243   -2.686892   -2.853169
     28          6           0       -8.272971   -1.637348   -3.735672
     29          1           0       -7.910810   -1.955998   -2.754363
     30          1           0       -9.163843   -2.231028   -3.970181
     31          1           0       -8.565861   -0.582429   -3.696437
     32          8           0       -7.641029   -1.453935   -6.102756
     33          1           0       -8.446347   -1.953744   -6.308552
     34          7           0       -4.262584   -0.680338   -2.795266
     35          1           0       -4.136520    0.221327   -3.246078
     36          6           0       -3.218822   -1.090135   -1.858018
     37          1           0       -3.696095   -1.506727   -0.966350
     38          6           0       -2.429688    0.177352   -1.512456
     39          6           0       -2.291212   -2.157472   -2.498861
     40          1           0       -1.796088   -1.686011   -3.356741
     41          1           0       -2.950657   -2.943576   -2.880868
     42          8           0       -2.327436    1.095414   -2.346090
     43          6           0       -1.231967   -2.804507   -1.589682
     44          1           0       -0.538434   -2.033137   -1.240170
     45          6           0       -1.855324   -3.494799   -0.366448
     46          1           0       -2.600196   -4.240679   -0.671170
     47          1           0       -2.360775   -2.794017    0.310930
     48          1           0       -1.084675   -4.004190    0.221517
     49          6           0       -0.428469   -3.822787   -2.412927
     50          1           0       -1.070800   -4.638467   -2.769870
     51          1           0        0.373494   -4.265070   -1.812329
     52          1           0        0.033476   -3.353875   -3.290769
     53          7           0       -1.872037    0.230299   -0.290080
     54          1           0       -1.879034   -0.616966    0.264942
     55          6           0       -0.920368    1.256592    0.124865
     56          1           0       -1.001555    2.065873   -0.605135
     57          6           0        0.510593    0.674393    0.054378
     58          6           0       -1.262913    1.767126    1.531996
     59          1           0       -0.568636    2.552058    1.846631
     60          1           0       -1.199671    0.954412    2.264536
     61          1           0       -2.277292    2.175335    1.549650
     62          8           0        0.707387   -0.521618   -0.143250
     63          7           0        1.509206    1.575054    0.216293
     64          1           0        1.331047    2.537716    0.478294
     65          6           0        2.906801    1.221453    0.059935
     66          1           0        2.993544    0.149068    0.248705
     67          6           0        3.710982    2.050383    1.070022
     68          6           0        3.449701    1.541838   -1.382130
     69          1           0        3.732944    2.600000   -1.415493
     70          1           0        4.361957    0.957359   -1.545092
     71          8           0        3.285124    3.137153    1.460592
     72          6           0        2.403407    1.263095   -2.432174
     73          6           0        2.173374   -0.026783   -2.922398
     74          1           0        2.841025   -0.836315   -2.641515
     75          6           0        1.519376    2.286698   -2.801773
     76          1           0        1.692040    3.297403   -2.441105
     77          6           0        1.048691   -0.308989   -3.700268
     78          1           0        0.835214   -1.320659   -4.028712
     79          6           0        0.392470    2.021288   -3.573001
     80          1           0       -0.326849    2.800674   -3.803967
     81          8           0       -1.066317    0.404354   -4.613849
     82          1           0       -1.777352    0.693897   -3.979950
     83          6           0        0.148563    0.712326   -3.980800
     84          7           0        4.902187    1.522018    1.427364
     85          1           0        5.262480    0.726640    0.909293
     86          6           0        5.933873    2.288188    2.118292
     87          1           0        6.084128    3.241742    1.591458
     88          6           0        7.245052    1.493016    1.922628
     89          6           0        5.544151    2.651985    3.568141
     90          1           0        5.496874    1.764780    4.204925
     91          1           0        4.556544    3.117412    3.522704
     92          8           0        7.447912    0.906622    0.860574
     93          6           0        6.524270    3.679910    4.121067
     94          8           0        7.224823    3.221297    5.165841
     95          8           0        6.705101    4.769119    3.605088
     96          7           0        8.146756    1.567507    2.924854
     97          1           0        7.866762    1.880738    3.847597
     98          6           0        9.518851    1.130491    2.796371
     99          1           0        9.798561    1.187258    1.739818
    100          6           0        9.670325   -0.323479    3.242025
    101          6           0       10.419078    2.061926    3.640979
    102          1           0       11.453969    1.711009    3.569364
    103          1           0       10.121327    1.957447    4.693477
    104          8           0        8.837043   -0.966778    3.834097
    105          6           0       10.315018    3.527872    3.195544
    106          1           0       10.701377    3.610077    2.171091
    107          1           0        9.263648    3.830905    3.144193
    108          6           0       11.084114    4.515038    4.087012
    109          1           0       12.143933    4.231461    4.132308
    110          1           0       11.053662    5.506627    3.613891
    111          6           0       10.579407    4.653525    5.528646
    112          1           0       11.200730    5.401814    6.039744
    113          1           0       10.703233    3.711891    6.075626
    114          7           0        9.142375    5.018809    5.593691
    115          1           0        8.933491    5.460529    6.488465
    116          1           0        7.978890    3.904435    5.379559
    117          1           0        8.900240    5.699710    4.872188
    118          8           0       10.895247   -0.796038    2.912834
    119          1           0       10.941396   -1.713879    3.241198
 ---------------------------------------------------------------------

 SCF Done:  E(RB3LYP) =  -2933.89394886     A.U. after    3 cycles

 Alpha  occ. eigenvalues --  -19.27662 -19.24879 -19.24523 -19.22640 -19.22201
 Alpha  occ. eigenvalues --  -19.22157 -19.20166 -19.19280 -19.19152 -19.18607
 Alpha  occ. eigenvalues --  -19.18139 -19.17606 -14.57340 -14.49429 -14.48091
 Alpha  occ. eigenvalues --  -14.45883 -14.44228 -14.43386 -14.42681 -14.41610
 Alpha  occ. eigenvalues --  -14.40698 -14.40624 -10.41892 -10.39554 -10.38982
 Alpha  occ. eigenvalues --  -10.37437 -10.37081 -10.36523 -10.36504 -10.35606
 Alpha  occ. eigenvalues --  -10.34956 -10.33928 -10.33659 -10.32982 -10.32851
 Alpha  occ. eigenvalues --  -10.32784 -10.32286 -10.32144 -10.31945 -10.30785
 Alpha  occ. eigenvalues --  -10.30064 -10.29741 -10.29503 -10.27910 -10.27319
 Alpha  occ. eigenvalues --  -10.27178 -10.27159 -10.27016 -10.27002 -10.26963
 Alpha  occ. eigenvalues --  -10.26632 -10.26272 -10.25275 -10.25218 -10.25113
 Alpha  occ. eigenvalues --  -10.25036 -10.24742 -10.24119 -10.24017 -10.23965
 Alpha  occ. eigenvalues --   -1.17117  -1.15678  -1.14901  -1.13769  -1.13612
 Alpha  occ. eigenvalues --   -1.12149  -1.11600  -1.11407  -1.11259  -1.10474
 Alpha  occ. eigenvalues --   -1.10159  -1.09491  -1.06811  -1.04984  -1.04481
 Alpha  occ. eigenvalues --   -1.02185  -1.00891  -1.00049  -0.99252  -0.98839
 Alpha  occ. eigenvalues --   -0.97027  -0.96321  -0.93577  -0.92830  -0.88986
 Alpha  occ. eigenvalues --   -0.87394  -0.87120  -0.86493  -0.85383  -0.84688
 Alpha  occ. eigenvalues --   -0.84412  -0.82949  -0.82414  -0.81454  -0.80370
 Alpha  occ. eigenvalues --   -0.79784  -0.77868  -0.76040  -0.75128  -0.74920
 Alpha  occ. eigenvalues --   -0.74570  -0.73850  -0.72762  -0.72401  -0.71465
 Alpha  occ. eigenvalues --   -0.70704  -0.70427  -0.69912  -0.69801  -0.69049
 Alpha  occ. eigenvalues --   -0.68691  -0.68331  -0.67641  -0.67214  -0.66533
 Alpha  occ. eigenvalues --   -0.66375  -0.65588  -0.65043  -0.64456  -0.63708
 Alpha  occ. eigenvalues --   -0.63432  -0.63109  -0.62841  -0.62737  -0.62282
 Alpha  occ. eigenvalues --   -0.62025  -0.61062  -0.59466  -0.58592  -0.58146
 Alpha  occ. eigenvalues --   -0.57322  -0.57146  -0.56988  -0.56767  -0.56402
 Alpha  occ. eigenvalues --   -0.56197  -0.55659  -0.55584  -0.55166  -0.54568
 Alpha  occ. eigenvalues --   -0.54448  -0.54234  -0.53926  -0.53660  -0.53346
 Alpha  occ. eigenvalues --   -0.53237  -0.52543  -0.52389  -0.52362  -0.52258
 Alpha  occ. eigenvalues --   -0.52069  -0.51894  -0.51709  -0.51396  -0.51278
 Alpha  occ. eigenvalues --   -0.51152  -0.50892  -0.50733  -0.50514  -0.50389
 Alpha  occ. eigenvalues --   -0.50171  -0.50122  -0.49888  -0.49656  -0.49382
 Alpha  occ. eigenvalues --   -0.49260  -0.49189  -0.48753  -0.48326  -0.48107
 Alpha  occ. eigenvalues --   -0.47706  -0.47629  -0.47228  -0.46715  -0.46504
 Alpha  occ. eigenvalues --   -0.46230  -0.45978  -0.45740  -0.45670  -0.45425
 Alpha  occ. eigenvalues --   -0.45057  -0.44883  -0.44714  -0.44641  -0.44498
 Alpha  occ. eigenvalues --   -0.44077  -0.43754  -0.43577  -0.43335  -0.43068
 Alpha  occ. eigenvalues --   -0.42739  -0.42297  -0.42211  -0.41921  -0.41138
 Alpha  occ. eigenvalues --   -0.41076  -0.40773  -0.40324  -0.39638  -0.39406
 Alpha  occ. eigenvalues --   -0.39383  -0.39186  -0.38936  -0.38735  -0.38344
 Alpha  occ. eigenvalues --   -0.37816  -0.36945  -0.36605  -0.35828  -0.35796
 Alpha  occ. eigenvalues --   -0.35721  -0.35339  -0.34216  -0.33576  -0.33371
 Alpha  occ. eigenvalues --   -0.33199  -0.33005  -0.32950  -0.32863  -0.32778
 Alpha  occ. eigenvalues --   -0.32329  -0.32014  -0.31842  -0.31411  -0.31033
 Alpha  occ. eigenvalues --   -0.30700
 Alpha virt. eigenvalues --   -0.11218  -0.08851  -0.08659  -0.08459  -0.08283
 Alpha virt. eigenvalues --   -0.07687  -0.06489  -0.05208  -0.04911  -0.04190
 Alpha virt. eigenvalues --   -0.04159  -0.03754  -0.03235  -0.02978  -0.02496

 Mulliken charges:
               1
     1  N   -0.760686
     2  H    0.394351
     3  H    0.414048
     4  H    0.459614
     5  C   -0.122308
     6  H    0.210789
     7  C    0.647862
     8  C   -0.387619
     9  H    0.231538
    10  H    0.167528
    11  O   -0.555638
    12  C    0.289868
    13  C   -0.101261
    14  H    0.184807
    15  N   -0.603268
    16  H    0.339592
    17  C    0.219861
    18  H    0.187016
    19  N   -0.399569
    20  N   -0.589321
    21  H    0.374143
    22  C   -0.072153
    23  H    0.193989
    24  C    0.638735
    25  C    0.120030
    26  H    0.160976
    27  O   -0.526147
    28  C   -0.480720
    29  H    0.184322
    30  H    0.157693
    31  H    0.160821
    32  O   -0.642860
    33  H    0.406194
    34  N   -0.646486
    35  H    0.380840
    36  C   -0.039789
    37  H    0.184767
    38  C    0.633526
    39  C   -0.305925
    40  H    0.137134
    41  H    0.181865
    42  O   -0.582384
    43  C   -0.120213
    44  H    0.191305
    45  C   -0.455046
    46  H    0.160935
    47  H    0.121721
    48  H    0.162837
    49  C   -0.452970
    50  H    0.147370
    51  H    0.159482
    52  H    0.129458
    53  N   -0.570879
    54  H    0.358822
    55  C   -0.092674
    56  H    0.200921
    57  C    0.640788
    58  C   -0.457303
    59  H    0.174292
    60  H    0.167537
    61  H    0.178492
    62  O   -0.521116
    63  N   -0.609821
    64  H    0.350343
    65  C   -0.042626
    66  H    0.190708
    67  C    0.620979
    68  C   -0.380045
    69  H    0.171674
    70  H    0.171465
    71  O   -0.537203
    72  C    0.177938
    73  C   -0.169266
    74  H    0.147745
    75  C   -0.196956
    76  H    0.143606
    77  C   -0.151082
    78  H    0.143250
    79  C   -0.149475
    80  H    0.143295
    81  O   -0.768351
    82  H    0.473671
    83  C    0.313148
    84  N   -0.622360
    85  H    0.356136
    86  C   -0.022747
    87  H    0.209576
    88  C    0.597709
    89  C   -0.369962
    90  H    0.177274
    91  H    0.217769
    92  O   -0.536064
    93  C    0.560612
    94  O   -0.622467
    95  O   -0.486128
    96  N   -0.621575
    97  H    0.383160
    98  C   -0.047320
    99  H    0.197044
   100  C    0.591568
   101  C   -0.302257
   102  H    0.171918
   103  H    0.151907
   104  O   -0.454068
   105  C   -0.271654
   106  H    0.148131
   107  H    0.164099
   108  C   -0.284506
   109  H    0.152525
   110  H    0.147406
   111  C   -0.129878
   112  H    0.150880
   113  H    0.160150
   114  N   -0.789546
   115  H    0.336336
   116  H    0.476970
   117  H    0.345694
   118  O   -0.566632
   119  H    0.417765
 Sum of Mulliken charges =   1.00000

 Dipole moment (field-independent basis, Debye):
    X=              0.5724    Y=              3.2608    Z=            -20.6154  Tot=             20.8796
 Quadrupole moment (field-independent basis, Debye-Ang):
   XX=           -172.8578   YY=           -328.7470   ZZ=            -95.1007
   XY=             49.6257   XZ=            130.3668   YZ=             47.4899

 Normal termination of Gaussian 16 at Sun Jun 19 13:53:08 2022.
