 Gaussian 16, Revision C.01,
 Gaussian 16:  ES64L-G16RevC.01  3-Jul-2019

 ----------------------------------------------------------------------
 # B3LYP/6-31G* empiricaldispersion=gd3 guess=read geom=check nosymm in
 tegral(ultrafinegrid)
 ----------------------------------------------------------------------

 ------------------------------------------------------
 Candidate Structure: Conf:242 Charge calc in gas phase
 ------------------------------------------------------
 Structure from the checkpoint file:  "conf-242.chk"
 Charge =  1 Multiplicity = 1

                          Input orientation:
 ---------------------------------------------------------------------
 Center     Atomic      Atomic             Coordinates (Angstroms)
 Number     Number       Type             X           Y           Z
 ---------------------------------------------------------------------
      1          7           0       -7.510252   -2.095902   -8.202354
      2          1           0       -8.131876   -2.907877   -8.146224
      3          1           0       -7.879234   -1.365126   -7.542543
      4          1           0       -7.464691   -1.784549   -9.184268
      5          6           0       -6.127590   -2.381984   -7.666777
      6          1           0       -5.926524   -3.449317   -7.778817
      7          6           0       -6.200993   -1.930207   -6.188363
      8          6           0       -5.080694   -1.538164   -8.419853
      9          1           0       -4.097722   -1.805050   -8.008747
     10          1           0       -5.238169   -0.480883   -8.163221
     11          8           0       -7.137330   -1.191935   -5.860518
     12          6           0       -5.153484   -1.734741   -9.903660
     13          6           0       -5.678689   -2.742535  -10.690558
     14          1           0       -6.142847   -3.668299  -10.370679
     15          7           0       -4.649823   -0.819766  -10.808829
     16          1           0       -4.164805    0.039013  -10.584319
     17          6           0       -4.878558   -1.315836  -12.063577
     18          1           0       -4.571590   -0.789417  -12.957268
     19          7           0       -5.504573   -2.470148  -12.025975
     20          7           0       -5.193951   -2.342585   -5.423429
     21          1           0       -4.361867   -2.759124   -5.861282
     22          6           0       -4.790963   -1.686788   -4.177401
     23          1           0       -5.250331   -0.693472   -4.132296
     24          6           0       -3.248164   -1.574011   -4.309937
     25          6           0       -5.203089   -2.512063   -2.933252
     26          1           0       -4.801543   -1.997505   -2.053459
     27          8           0       -2.678940   -2.096740   -5.280971
     28          6           0       -6.718140   -2.639366   -2.795586
     29          1           0       -7.199610   -1.658431   -2.731898
     30          1           0       -6.955646   -3.211149   -1.894361
     31          1           0       -7.144486   -3.163244   -3.660592
     32          8           0       -4.553680   -3.773801   -2.951455
     33          1           0       -5.024207   -4.342363   -3.581716
     34          7           0       -2.639613   -0.906693   -3.334695
     35          1           0       -3.140317   -0.491287   -2.547992
     36          6           0       -1.193346   -0.779813   -3.186350
     37          1           0       -0.735667   -1.742715   -3.431085
     38          6           0       -0.996332   -0.424337   -1.696165
     39          6           0       -0.646426    0.329293   -4.116680
     40          1           0       -1.149957    1.264502   -3.838758
     41          1           0       -0.969347    0.075313   -5.135231
     42          8           0       -1.923710    0.103881   -1.074781
     43          6           0        0.879737    0.545139   -4.111101
     44          1           0        1.203350    0.784993   -3.091751
     45          6           0        1.651273   -0.701374   -4.569103
     46          1           0        1.361896   -0.987363   -5.588944
     47          1           0        1.477262   -1.570081   -3.923722
     48          1           0        2.729328   -0.509852   -4.559293
     49          6           0        1.229922    1.746805   -5.001064
     50          1           0        0.939488    1.562886   -6.044280
     51          1           0        2.308277    1.942146   -4.984713
     52          1           0        0.718306    2.656137   -4.664164
     53          7           0        0.211076   -0.709155   -1.188933
     54          1           0        0.938166   -1.077469   -1.792136
     55          6           0        0.709013   -0.224863    0.100254
     56          1           0       -0.017612    0.479300    0.510504
     57          6           0        2.041565    0.475297   -0.208444
     58          6           0        0.934563   -1.374648    1.088844
     59          1           0        1.298784   -0.965072    2.038095
     60          1           0        1.667913   -2.082197    0.683782
     61          1           0       -0.010774   -1.901615    1.254462
     62          8           0        2.803636    0.015828   -1.074978
     63          7           0        2.301738    1.580213    0.513260
     64          1           0        1.649596    1.819717    1.296113
     65          6           0        3.618431    2.208487    0.424014
     66          1           0        4.378921    1.419492    0.519220
     67          6           0        3.754631    3.182082    1.604963
     68          6           0        3.839510    2.932813   -0.921806
     69          1           0        3.473198    2.267017   -1.706506
     70          1           0        3.244046    3.848469   -0.928469
     71          8           0        3.854828    4.405072    1.433919
     72          6           0        5.300891    3.235192   -1.158938
     73          6           0        5.840359    4.511422   -0.948077
     74          1           0        5.190883    5.305244   -0.596290
     75          6           0        6.163277    2.208078   -1.567680
     76          1           0        5.757472    1.211879   -1.726384
     77          6           0        7.194917    4.766137   -1.164730
     78          1           0        7.598798    5.766173   -1.031609
     79          6           0        7.526314    2.439373   -1.761710
     80          1           0        8.185398    1.628545   -2.066788
     81          8           0        9.393634    4.009701   -1.735466
     82          1           0        9.813701    3.272907   -2.207860
     83          6           0        8.025785    3.723841   -1.565155
     84          7           0        3.702469    2.611606    2.828840
     85          1           0        3.538258    1.601770    2.873074
     86          6           0        3.082946    3.351523    3.961287
     87          1           0        2.521235    4.176955    3.513766
     88          6           0        4.260525    3.910055    4.774367
     89          6           0        2.113021    2.421572    4.708946
     90          1           0        1.350896    3.032838    5.200756
     91          1           0        2.651352    1.833791    5.455031
     92          8           0        4.685826    3.427167    5.810498
     93          6           0        1.511959    1.498308    3.613118
     94          8           0        0.740127    2.048644    2.772467
     95          8           0        2.032670    0.355867    3.537910
     96          7           0        4.874032    4.963754    4.116990
     97          1           0        4.539608    5.095587    3.158820
     98          6           0        6.315099    5.115949    4.270753
     99          1           0        6.538083    4.966380    5.332731
    100          6           0        6.688065    6.551692    3.918068
    101          6           0        7.031743    4.048781    3.418043
    102          1           0        6.583374    4.073539    2.417670
    103          1           0        6.751441    3.085835    3.853760
    104          8           0        7.337642    6.908690    2.949439
    105          6           0        8.569106    4.168476    3.299576
    106          1           0        8.950763    4.940378    3.979787
    107          1           0        9.053820    3.228811    3.590119
    108          6           0        8.942429    4.531498    1.856878
    109          1           0        8.646566    3.720465    1.181219
    110          1           0        8.351695    5.413116    1.587817
    111          6           0       10.416390    4.844922    1.661336
    112          1           0       11.057828    3.960560    1.703295
    113          1           0       10.780972    5.583094    2.380692
    114          7           0       10.605534    5.453826    0.278293
    115          1           0       11.587904    5.650445    0.062960
    116          1           0       10.090009    6.338766    0.217492
    117          1           0       10.208688    4.828952   -0.475320
    118          8           0        6.202755    7.422105    4.818860
    119          1           0        6.440861    8.317120    4.511602
 ---------------------------------------------------------------------

 SCF Done:  E(RB3LYP) =  -2933.79015389     A.U. after    2 cycles

 Alpha  occ. eigenvalues --  -19.29588 -19.26241 -19.25233 -19.22308 -19.20324
 Alpha  occ. eigenvalues --  -19.20132 -19.16387 -19.15999 -19.14686 -19.14292
 Alpha  occ. eigenvalues --  -19.07839 -19.07711 -14.59799 -14.57454 -14.50435
 Alpha  occ. eigenvalues --  -14.48210 -14.43045 -14.41915 -14.39763 -14.38515
 Alpha  occ. eigenvalues --  -14.38124 -14.37395 -10.42988 -10.40830 -10.38040
 Alpha  occ. eigenvalues --  -10.37036 -10.36234 -10.35143 -10.34784 -10.34503
 Alpha  occ. eigenvalues --  -10.33161 -10.33086 -10.32693 -10.32644 -10.32442
 Alpha  occ. eigenvalues --  -10.31691 -10.31161 -10.30783 -10.28943 -10.28318
 Alpha  occ. eigenvalues --  -10.28027 -10.27008 -10.26732 -10.26533 -10.26293
 Alpha  occ. eigenvalues --  -10.26078 -10.25642 -10.25578 -10.25458 -10.25404
 Alpha  occ. eigenvalues --  -10.25338 -10.24948 -10.24200 -10.23926 -10.23606
 Alpha  occ. eigenvalues --  -10.22611 -10.22145 -10.22084 -10.18056 -10.17933
 Alpha  occ. eigenvalues --   -1.18678  -1.16491  -1.16222  -1.13886  -1.12525
 Alpha  occ. eigenvalues --   -1.12037  -1.11872  -1.09961  -1.07982  -1.07787
 Alpha  occ. eigenvalues --   -1.07369  -1.06274  -1.05679  -1.04977  -1.01242
 Alpha  occ. eigenvalues --   -0.99762  -0.98258  -0.96326  -0.96113  -0.95457
 Alpha  occ. eigenvalues --   -0.94381  -0.94048  -0.92478  -0.92074  -0.89805
 Alpha  occ. eigenvalues --   -0.88076  -0.86332  -0.85150  -0.84263  -0.83736
 Alpha  occ. eigenvalues --   -0.81992  -0.81550  -0.80673  -0.80197  -0.79281
 Alpha  occ. eigenvalues --   -0.78384  -0.77357  -0.76507  -0.74335  -0.73793
 Alpha  occ. eigenvalues --   -0.73264  -0.72995  -0.72567  -0.72151  -0.71379
 Alpha  occ. eigenvalues --   -0.71041  -0.70785  -0.70721  -0.69912  -0.68980
 Alpha  occ. eigenvalues --   -0.68787  -0.68057  -0.67382  -0.66621  -0.66442
 Alpha  occ. eigenvalues --   -0.65840  -0.65008  -0.64096  -0.63392  -0.63121
 Alpha  occ. eigenvalues --   -0.62503  -0.62321  -0.61390  -0.60832  -0.60777
 Alpha  occ. eigenvalues --   -0.60560  -0.60200  -0.59549  -0.58560  -0.58349
 Alpha  occ. eigenvalues --   -0.57683  -0.57365  -0.56829  -0.56626  -0.56380
 Alpha  occ. eigenvalues --   -0.55966  -0.55045  -0.54417  -0.54286  -0.54025
 Alpha  occ. eigenvalues --   -0.53559  -0.53240  -0.52928  -0.52916  -0.52496
 Alpha  occ. eigenvalues --   -0.52194  -0.52051  -0.52011  -0.51852  -0.51500
 Alpha  occ. eigenvalues --   -0.51197  -0.50963  -0.50749  -0.50542  -0.50323
 Alpha  occ. eigenvalues --   -0.50038  -0.49612  -0.49526  -0.49284  -0.48892
 Alpha  occ. eigenvalues --   -0.48726  -0.48244  -0.48121  -0.47756  -0.47371
 Alpha  occ. eigenvalues --   -0.46963  -0.46394  -0.46099  -0.45887  -0.45772
 Alpha  occ. eigenvalues --   -0.45509  -0.45219  -0.45048  -0.44838  -0.44577
 Alpha  occ. eigenvalues --   -0.43994  -0.43792  -0.43633  -0.43124  -0.42937
 Alpha  occ. eigenvalues --   -0.42743  -0.42312  -0.41928  -0.41736  -0.41577
 Alpha  occ. eigenvalues --   -0.41252  -0.40763  -0.40742  -0.40658  -0.40332
 Alpha  occ. eigenvalues --   -0.40251  -0.40149  -0.39950  -0.39575  -0.39278
 Alpha  occ. eigenvalues --   -0.39164  -0.39070  -0.38929  -0.38399  -0.38013
 Alpha  occ. eigenvalues --   -0.37692  -0.37514  -0.37505  -0.37284  -0.37213
 Alpha  occ. eigenvalues --   -0.36629  -0.35571  -0.35211  -0.34897  -0.34331
 Alpha  occ. eigenvalues --   -0.34037  -0.33651  -0.32650  -0.32251  -0.31108
 Alpha  occ. eigenvalues --   -0.30316  -0.30163  -0.29909  -0.29511  -0.28540
 Alpha  occ. eigenvalues --   -0.27850  -0.27545  -0.26923  -0.24018  -0.22329
 Alpha  occ. eigenvalues --   -0.21472
 Alpha virt. eigenvalues --   -0.11979  -0.10390  -0.09119  -0.08796  -0.07361
 Alpha virt. eigenvalues --   -0.06416  -0.06060  -0.05605  -0.05487  -0.03840
 Alpha virt. eigenvalues --   -0.03448  -0.03328  -0.03126  -0.02876  -0.02752

 Mulliken charges:
               1
     1  N   -0.739534
     2  H    0.417744
     3  H    0.426658
     4  H    0.406472
     5  C   -0.132705
     6  H    0.222897
     7  C    0.641453
     8  C   -0.369120
     9  H    0.235740
    10  H    0.187803
    11  O   -0.531381
    12  C    0.293816
    13  C   -0.095592
    14  H    0.140375
    15  N   -0.604146
    16  H    0.354234
    17  C    0.226206
    18  H    0.194905
    19  N   -0.397667
    20  N   -0.602447
    21  H    0.372989
    22  C   -0.103314
    23  H    0.190679
    24  C    0.660192
    25  C    0.130136
    26  H    0.177471
    27  O   -0.572265
    28  C   -0.467176
    29  H    0.168637
    30  H    0.186389
    31  H    0.129037
    32  O   -0.606000
    33  H    0.390794
    34  N   -0.618518
    35  H    0.366721
    36  C   -0.058653
    37  H    0.178823
    38  C    0.614330
    39  C   -0.252060
    40  H    0.145113
    41  H    0.143850
    42  O   -0.544914
    43  C   -0.100580
    44  H    0.163217
    45  C   -0.445347
    46  H    0.136847
    47  H    0.139916
    48  H    0.156518
    49  C   -0.444168
    50  H    0.130211
    51  H    0.147389
    52  H    0.145540
    53  N   -0.596938
    54  H    0.353825
    55  C   -0.073344
    56  H    0.209534
    57  C    0.628073
    58  C   -0.477208
    59  H    0.242082
    60  H    0.130734
    61  H    0.146374
    62  O   -0.586771
    63  N   -0.657502
    64  H    0.425846
    65  C   -0.020179
    66  H    0.163845
    67  C    0.600435
    68  C   -0.349407
    69  H    0.180989
    70  H    0.167066
    71  O   -0.556193
    72  C    0.146263
    73  C   -0.171935
    74  H    0.174706
    75  C   -0.190843
    76  H    0.174534
    77  C   -0.168872
    78  H    0.115468
    79  C   -0.184504
    80  H    0.134121
    81  O   -0.714254
    82  H    0.430447
    83  C    0.335873
    84  N   -0.611936
    85  H    0.369258
    86  C   -0.084409
    87  H    0.186246
    88  C    0.614040
    89  C   -0.328324
    90  H    0.150271
    91  H    0.169047
    92  O   -0.504641
    93  C    0.522928
    94  O   -0.598273
    95  O   -0.563617
    96  N   -0.613241
    97  H    0.367663
    98  C   -0.047932
    99  H    0.202014
   100  C    0.578238
   101  C   -0.290915
   102  H    0.163622
   103  H    0.185215
   104  O   -0.500199
   105  C   -0.267296
   106  H    0.146375
   107  H    0.152335
   108  C   -0.306763
   109  H    0.176112
   110  H    0.196096
   111  C   -0.199271
   112  H    0.204551
   113  H    0.208971
   114  N   -0.769908
   115  H    0.403212
   116  H    0.411884
   117  H    0.451764
   118  O   -0.536168
   119  H    0.413272
 Sum of Mulliken charges =   1.00000

 Dipole moment (field-independent basis, Debye):
    X=              8.9408    Y=              8.6395    Z=            -37.6173  Tot=             39.6187
 Quadrupole moment (field-independent basis, Debye-Ang):
   XX=            213.8905   YY=           -239.7549   ZZ=           -135.8385
   XY=            236.3837   XZ=            183.8205   YZ=             37.1452

 Normal termination of Gaussian 16 at Sun Jun 19 13:52:27 2022.
