 Gaussian 16, Revision C.01,
 Gaussian 16:  ES64L-G16RevC.01  3-Jul-2019

 ----------------------------------------------------------------------
 # B3LYP/6-31G* empiricaldispersion=gd3 guess=read geom=check nosymm in
 tegral(ultrafinegrid)
 ----------------------------------------------------------------------

 ------------------------------------------------------
 Candidate Structure: Conf:879 Charge calc in gas phase
 ------------------------------------------------------
 Structure from the checkpoint file:  "conf-879.chk"
 Charge =  1 Multiplicity = 1

                          Input orientation:
 ---------------------------------------------------------------------
 Center     Atomic      Atomic             Coordinates (Angstroms)
 Number     Number       Type             X           Y           Z
 ---------------------------------------------------------------------
      1          7           0       -7.786767   -2.304386   -8.835783
      2          1           0       -8.579303   -2.938263   -8.697619
      3          1           0       -7.950765   -1.423237   -8.249618
      4          1           0       -7.709264   -2.086882   -9.833502
      5          6           0       -6.497254   -2.812079   -8.223437
      6          1           0       -6.592442   -3.887351   -8.057119
      7          6           0       -6.447879   -2.033933   -6.879750
      8          6           0       -5.309911   -2.494008   -9.168205
      9          1           0       -5.338727   -1.425313   -9.413398
     10          1           0       -5.463017   -3.050505  -10.105021
     11          8           0       -7.183105   -1.036156   -6.781022
     12          6           0       -3.977714   -2.779267   -8.563374
     13          6           0       -2.971211   -1.930496   -8.169676
     14          1           0       -2.940072   -0.853386   -8.271005
     15          7           0       -3.543960   -4.044585   -8.177879
     16          1           0       -3.968364   -4.931851   -8.413070
     17          6           0       -2.306382   -3.886009   -7.608937
     18          1           0       -1.737795   -4.720139   -7.221991
     19          7           0       -1.938115   -2.626435   -7.590641
     20          7           0       -5.623967   -2.504946   -5.961503
     21          1           0       -5.055376   -3.327191   -6.142388
     22          6           0       -5.415883   -1.936831   -4.630007
     23          1           0       -5.772323   -0.904634   -4.628604
     24          6           0       -3.910335   -2.060124   -4.359354
     25          6           0       -6.185273   -2.795538   -3.577295
     26          1           0       -5.855423   -2.446776   -2.584560
     27          8           0       -3.361443   -3.149604   -4.594788
     28          6           0       -7.693972   -2.634667   -3.691995
     29          1           0       -7.994611   -1.594547   -3.533534
     30          1           0       -8.182501   -3.265306   -2.944484
     31          1           0       -8.037948   -2.954297   -4.681335
     32          8           0       -5.889217   -4.168213   -3.766695
     33          1           0       -4.918556   -4.267248   -3.747778
     34          7           0       -3.299943   -0.997216   -3.835776
     35          1           0       -3.782394   -0.121964   -3.641757
     36          6           0       -1.881555   -0.975198   -3.487163
     37          1           0       -1.629209   -1.935102   -3.028333
     38          6           0       -1.727566    0.179224   -2.485954
     39          6           0       -1.026833   -0.748465   -4.757709
     40          1           0       -1.274051    0.248909   -5.146490
     41          1           0       -1.363237   -1.478596   -5.501402
     42          8           0       -2.554950    1.095342   -2.457171
     43          6           0        0.500782   -0.883880   -4.607947
     44          1           0        0.868845   -0.138526   -3.890900
     45          6           0        0.911047   -2.276551   -4.105269
     46          1           0        0.518778   -3.057265   -4.769368
     47          1           0        0.546095   -2.489360   -3.093131
     48          1           0        2.001609   -2.369389   -4.074487
     49          6           0        1.154021   -0.592858   -5.968292
     50          1           0        0.801116   -1.303846   -6.725652
     51          1           0        2.244864   -0.672968   -5.903881
     52          1           0        0.911415    0.418018   -6.317662
     53          7           0       -0.636657    0.125700   -1.702628
     54          1           0        0.075395   -0.588643   -1.832037
     55          6           0       -0.201520    1.242368   -0.878914
     56          1           0       -0.428544    2.173497   -1.412988
     57          6           0        1.326460    1.091864   -0.742294
     58          6           0       -0.915240    1.262209    0.482119
     59          1           0       -0.600412    2.121752    1.082451
     60          1           0       -0.695342    0.348022    1.042680
     61          1           0       -1.993876    1.329935    0.317274
     62          8           0        1.908521    0.089407   -1.167058
     63          7           0        1.955094    2.104070   -0.115487
     64          1           0        1.470269    2.956756    0.144232
     65          6           0        3.395235    2.134442    0.080692
     66          1           0        3.726728    1.132268    0.367209
     67          6           0        3.685292    3.167096    1.175484
     68          6           0        4.131911    2.570135   -1.226024
     69          1           0        4.005838    1.758234   -1.949835
     70          1           0        3.603352    3.448877   -1.610929
     71          8           0        3.053550    4.224523    1.191674
     72          6           0        5.587998    2.901146   -0.995251
     73          6           0        5.982211    4.224461   -0.747018
     74          1           0        5.241904    5.019052   -0.791594
     75          6           0        6.560483    1.897940   -0.909042
     76          1           0        6.284526    0.863322   -1.100821
     77          6           0        7.292860    4.537271   -0.396022
     78          1           0        7.591115    5.560778   -0.191656
     79          6           0        7.875666    2.195366   -0.557069
     80          1           0        8.609937    1.398190   -0.465661
     81          8           0        9.504671    3.873279    0.110270
     82          1           0       10.050324    3.075122    0.186890
     83          6           0        8.239494    3.515939   -0.280690
     84          7           0        4.684456    2.836116    2.028313
     85          1           0        5.238874    2.016920    1.787982
     86          6           0        5.515928    3.827756    2.710977
     87          1           0        5.945932    4.478084    1.936895
     88          6           0        6.739712    3.053459    3.245292
     89          6           0        4.776112    4.760547    3.690238
     90          1           0        4.518388    4.261922    4.627673
     91          1           0        3.863043    5.091112    3.190124
     92          8           0        7.196231    2.123311    2.577231
     93          6           0        5.647081    5.976939    3.990047
     94          8           0        5.908193    6.693913    2.897916
     95          8           0        6.116196    6.214373    5.092025
     96          7           0        7.329971    3.501943    4.376353
     97          1           0        6.928910    4.265201    4.916402
     98          6           0        8.751189    3.269554    4.594859
     99          1           0        8.970183    2.209534    4.445271
    100          6           0        9.072056    3.632544    6.034349
    101          6           0        9.620433    4.121512    3.613993
    102          1           0        9.700993    3.582148    2.665848
    103          1           0       10.631243    4.212785    4.027819
    104          8           0        8.358991    4.273072    6.772726
    105          6           0        8.988351    5.494618    3.349357
    106          1           0        8.113822    5.352459    2.708263
    107          1           0        8.607950    5.918684    4.286175
    108          6           0        9.908465    6.507532    2.664218
    109          1           0       10.668057    6.866562    3.373544
    110          1           0       10.446464    6.026642    1.837798
    111          6           0        9.133325    7.697156    2.080165
    112          1           0        8.569766    7.362063    1.200467
    113          1           0        9.843801    8.463304    1.738104
    114          7           0        8.139681    8.254880    3.033236
    115          1           0        7.865632    9.191643    2.739054
    116          1           0        8.548264    8.355138    3.962380
    117          1           0        6.687081    7.332421    3.078298
    118          8           0       10.297097    3.179549    6.385721
    119          1           0       10.452174    3.477031    7.302143
 ---------------------------------------------------------------------

 SCF Done:  E(RB3LYP) =  -2933.86058266     A.U. after    2 cycles

 Alpha  occ. eigenvalues --  -19.27345 -19.24191 -19.22736 -19.22620 -19.21401
 Alpha  occ. eigenvalues --  -19.20249 -19.18734 -19.18572 -19.18037 -19.16871
 Alpha  occ. eigenvalues --  -19.16242 -19.16152 -14.61128 -14.50581 -14.50186
 Alpha  occ. eigenvalues --  -14.45281 -14.42402 -14.42002 -14.41770 -14.40435
 Alpha  occ. eigenvalues --  -14.39867 -14.39091 -10.44127 -10.42121 -10.38583
 Alpha  occ. eigenvalues --  -10.36494 -10.36317 -10.35718 -10.35042 -10.34776
 Alpha  occ. eigenvalues --  -10.34668 -10.34188 -10.33909 -10.33727 -10.33699
 Alpha  occ. eigenvalues --  -10.33329 -10.30961 -10.30674 -10.29829 -10.29253
 Alpha  occ. eigenvalues --  -10.28725 -10.28163 -10.28078 -10.26444 -10.26374
 Alpha  occ. eigenvalues --  -10.24599 -10.24567 -10.24123 -10.24085 -10.23508
 Alpha  occ. eigenvalues --  -10.23452 -10.23278 -10.23257 -10.23235 -10.23075
 Alpha  occ. eigenvalues --  -10.22914 -10.22875 -10.22838 -10.22348 -10.22032
 Alpha  occ. eigenvalues --   -1.19974  -1.15103  -1.14832  -1.13562  -1.12374
 Alpha  occ. eigenvalues --   -1.11963  -1.10853  -1.10390  -1.10380  -1.09781
 Alpha  occ. eigenvalues --   -1.08716  -1.07954  -1.06586  -1.06205  -1.03198
 Alpha  occ. eigenvalues --   -1.01634  -0.99244  -0.98477  -0.98267  -0.97336
 Alpha  occ. eigenvalues --   -0.96891  -0.95069  -0.94652  -0.89819  -0.89089
 Alpha  occ. eigenvalues --   -0.87282  -0.86121  -0.85130  -0.84395  -0.83249
 Alpha  occ. eigenvalues --   -0.82465  -0.82046  -0.81127  -0.79775  -0.79639
 Alpha  occ. eigenvalues --   -0.79112  -0.77462  -0.75020  -0.74586  -0.74301
 Alpha  occ. eigenvalues --   -0.73711  -0.73281  -0.72913  -0.72771  -0.72337
 Alpha  occ. eigenvalues --   -0.71722  -0.70309  -0.70207  -0.69454  -0.67785
 Alpha  occ. eigenvalues --   -0.67369  -0.67012  -0.66579  -0.66084  -0.65228
 Alpha  occ. eigenvalues --   -0.64636  -0.64122  -0.63903  -0.63570  -0.63422
 Alpha  occ. eigenvalues --   -0.62961  -0.62833  -0.61825  -0.61725  -0.61271
 Alpha  occ. eigenvalues --   -0.60765  -0.60301  -0.59705  -0.58714  -0.57963
 Alpha  occ. eigenvalues --   -0.57052  -0.56843  -0.56273  -0.55511  -0.55484
 Alpha  occ. eigenvalues --   -0.55074  -0.54615  -0.54509  -0.54113  -0.54050
 Alpha  occ. eigenvalues --   -0.53521  -0.53279  -0.53160  -0.52683  -0.52247
 Alpha  occ. eigenvalues --   -0.51750  -0.51669  -0.51573  -0.51373  -0.51273
 Alpha  occ. eigenvalues --   -0.51234  -0.50892  -0.50833  -0.50672  -0.50468
 Alpha  occ. eigenvalues --   -0.50298  -0.50138  -0.49782  -0.49604  -0.48978
 Alpha  occ. eigenvalues --   -0.48521  -0.48392  -0.48124  -0.47777  -0.47571
 Alpha  occ. eigenvalues --   -0.47329  -0.47164  -0.47053  -0.47000  -0.46505
 Alpha  occ. eigenvalues --   -0.46437  -0.45924  -0.45655  -0.45451  -0.45296
 Alpha  occ. eigenvalues --   -0.45135  -0.44583  -0.44058  -0.43913  -0.43883
 Alpha  occ. eigenvalues --   -0.43576  -0.43353  -0.43222  -0.42842  -0.42737
 Alpha  occ. eigenvalues --   -0.42352  -0.42273  -0.42164  -0.42062  -0.41476
 Alpha  occ. eigenvalues --   -0.41234  -0.40917  -0.40514  -0.40209  -0.39998
 Alpha  occ. eigenvalues --   -0.39869  -0.39572  -0.39211  -0.39054  -0.38537
 Alpha  occ. eigenvalues --   -0.38321  -0.38186  -0.37971  -0.37460  -0.37124
 Alpha  occ. eigenvalues --   -0.36883  -0.36506  -0.36140  -0.36094  -0.34945
 Alpha  occ. eigenvalues --   -0.34401  -0.33755  -0.33641  -0.32807  -0.32578
 Alpha  occ. eigenvalues --   -0.32181  -0.32117  -0.31490  -0.31362  -0.31177
 Alpha  occ. eigenvalues --   -0.30429  -0.29835  -0.29603  -0.29326  -0.28950
 Alpha  occ. eigenvalues --   -0.25960
 Alpha virt. eigenvalues --   -0.13123  -0.12131  -0.09838  -0.07645  -0.07026
 Alpha virt. eigenvalues --   -0.06100  -0.05048  -0.04736  -0.04238  -0.03926
 Alpha virt. eigenvalues --   -0.03800  -0.03108  -0.02976  -0.02568  -0.02391

 Mulliken charges:
               1
     1  N   -0.758429
     2  H    0.420085
     3  H    0.436663
     4  H    0.415179
     5  C   -0.115972
     6  H    0.212220
     7  C    0.662291
     8  C   -0.382701
     9  H    0.200689
    10  H    0.186792
    11  O   -0.547358
    12  C    0.296115
    13  C   -0.045326
    14  H    0.161015
    15  N   -0.626404
    16  H    0.343894
    17  C    0.243514
    18  H    0.194113
    19  N   -0.401554
    20  N   -0.556520
    21  H    0.371926
    22  C   -0.115442
    23  H    0.189418
    24  C    0.647672
    25  C    0.146544
    26  H    0.150630
    27  O   -0.572227
    28  C   -0.444055
    29  H    0.161719
    30  H    0.185731
    31  H    0.128785
    32  O   -0.640008
    33  H    0.414213
    34  N   -0.613834
    35  H    0.361390
    36  C   -0.064330
    37  H    0.180965
    38  C    0.618459
    39  C   -0.283275
    40  H    0.134813
    41  H    0.201238
    42  O   -0.551311
    43  C   -0.092004
    44  H    0.140326
    45  C   -0.450082
    46  H    0.145420
    47  H    0.135845
    48  H    0.160111
    49  C   -0.452749
    50  H    0.158389
    51  H    0.149033
    52  H    0.138483
    53  N   -0.617261
    54  H    0.374101
    55  C   -0.051730
    56  H    0.183323
    57  C    0.628083
    58  C   -0.444824
    59  H    0.159294
    60  H    0.163341
    61  H    0.182522
    62  O   -0.549016
    63  N   -0.618520
    64  H    0.353238
    65  C   -0.025385
    66  H    0.173778
    67  C    0.612482
    68  C   -0.354004
    69  H    0.174219
    70  H    0.156411
    71  O   -0.549051
    72  C    0.145833
    73  C   -0.196101
    74  H    0.149932
    75  C   -0.198527
    76  H    0.134943
    77  C   -0.175591
    78  H    0.150789
    79  C   -0.155258
    80  H    0.129202
    81  O   -0.650268
    82  H    0.414050
    83  C    0.359191
    84  N   -0.622966
    85  H    0.362353
    86  C   -0.044957
    87  H    0.219125
    88  C    0.606315
    89  C   -0.361308
    90  H    0.173821
    91  H    0.219522
    92  O   -0.546555
    93  C    0.552230
    94  O   -0.605812
    95  O   -0.478446
    96  N   -0.641227
    97  H    0.392970
    98  C   -0.031445
    99  H    0.196332
   100  C    0.576997
   101  C   -0.295365
   102  H    0.162459
   103  H    0.158680
   104  O   -0.448532
   105  C   -0.284093
   106  H    0.150912
   107  H    0.162530
   108  C   -0.285567
   109  H    0.136324
   110  H    0.162650
   111  C   -0.143208
   112  H    0.164220
   113  H    0.143142
   114  N   -0.774677
   115  H    0.329671
   116  H    0.333497
   117  H    0.473326
   118  O   -0.570369
   119  H    0.418157
 Sum of Mulliken charges =   1.00000

 Dipole moment (field-independent basis, Debye):
    X=            -18.3830    Y=             -7.8435    Z=            -34.3416  Tot=             39.7341
 Quadrupole moment (field-independent basis, Debye-Ang):
   XX=            -33.5333   YY=           -266.5266   ZZ=            -32.2446
   XY=            138.9566   XZ=            276.0193   YZ=            116.1174

 Normal termination of Gaussian 16 at Sun Jun 19 13:58:21 2022.
