 Gaussian 16, Revision C.01,
 Gaussian 16:  ES64L-G16RevC.01  3-Jul-2019

 ----------------------------------------------------------------------
 # B3LYP/6-31G* empiricaldispersion=gd3 guess=read geom=check nosymm in
 tegral(ultrafinegrid)
 ----------------------------------------------------------------------

 -----------------------------------------------------
 Candidate Structure: Conf:34 Charge calc in gas phase
 -----------------------------------------------------
 Structure from the checkpoint file:  "conf-34.chk"
 Charge =  1 Multiplicity = 1

                          Input orientation:
 ---------------------------------------------------------------------
 Center     Atomic      Atomic             Coordinates (Angstroms)
 Number     Number       Type             X           Y           Z
 ---------------------------------------------------------------------
      1          7           0       -1.803525   -5.891905    0.316671
      2          1           0       -2.570461   -5.831377    0.991360
      3          1           0       -2.203374   -6.239017   -0.588910
      4          1           0       -1.067578   -6.499480    0.706897
      5          6           0       -1.242936   -4.534332   -0.038133
      6          1           0       -1.442476   -3.839620    0.776498
      7          6           0       -2.012677   -4.129430   -1.309324
      8          6           0        0.279398   -4.653275   -0.255624
      9          1           0        0.648023   -3.688724   -0.603884
     10          1           0        0.490339   -5.369494   -1.057481
     11          8           0       -2.666629   -5.002620   -1.905197
     12          6           0        0.967368   -5.085120    0.995612
     13          6           0        1.502364   -6.300962    1.376173
     14          1           0        1.622460   -7.188625    0.766348
     15          7           0        1.086470   -4.278236    2.112374
     16          1           0        0.871882   -3.273619    2.166329
     17          6           0        1.697277   -5.026638    3.078470
     18          1           0        1.919977   -4.627878    4.059645
     19          7           0        1.961534   -6.253013    2.673728
     20          7           0       -1.859850   -2.858631   -1.671587
     21          1           0       -1.363770   -2.226859   -1.027442
     22          6           0       -2.661240   -2.244081   -2.715886
     23          1           0       -2.905053   -3.010798   -3.459396
     24          6           0       -1.837053   -1.111206   -3.333859
     25          6           0       -3.988989   -1.704574   -2.089620
     26          1           0       -3.711389   -0.944683   -1.350062
     27          8           0       -0.984675   -0.523385   -2.667275
     28          6           0       -4.940670   -1.093026   -3.116519
     29          1           0       -4.541942   -0.164143   -3.536806
     30          1           0       -5.890079   -0.868075   -2.622880
     31          1           0       -5.148082   -1.800302   -3.932629
     32          8           0       -4.603247   -2.738897   -1.331135
     33          1           0       -4.813390   -3.471043   -1.934832
     34          7           0       -2.133337   -0.768948   -4.608983
     35          1           0       -2.929164   -1.201539   -5.058875
     36          6           0       -1.620945    0.475351   -5.193542
     37          1           0       -0.536194    0.370445   -5.292078
     38          6           0       -1.966578    1.640572   -4.233994
     39          6           0       -2.266594    0.700030   -6.564951
     40          1           0       -3.353876    0.737177   -6.416271
     41          1           0       -2.044050   -0.167666   -7.202136
     42          8           0       -3.137426    1.890342   -3.959605
     43          6           0       -1.820375    1.988515   -7.282338
     44          1           0       -2.105346    2.839375   -6.647438
     45          6           0       -0.301947    2.043544   -7.507394
     46          1           0        0.044894    1.162006   -8.062114
     47          1           0        0.256082    2.094727   -6.565939
     48          1           0       -0.031616    2.930348   -8.090889
     49          6           0       -2.574020    2.120952   -8.613358
     50          1           0       -2.315356    1.298418   -9.292655
     51          1           0       -2.317908    3.059988   -9.115922
     52          1           0       -3.659652    2.104815   -8.462517
     53          7           0       -0.885984    2.308763   -3.765000
     54          1           0        0.026677    1.902439   -3.947911
     55          6           0       -0.864352    3.176713   -2.593998
     56          1           0       -1.176154    4.194050   -2.868774
     57          6           0        0.617794    3.216877   -2.158082
     58          6           0       -1.759975    2.659387   -1.449803
     59          1           0       -1.686681    3.301371   -0.566351
     60          1           0       -1.466866    1.639625   -1.183217
     61          1           0       -2.797321    2.640823   -1.783351
     62          8           0        1.485868    2.612542   -2.798965
     63          7           0        0.906074    3.879743   -1.014500
     64          1           0        0.194746    4.446173   -0.571698
     65          6           0        2.265658    3.942549   -0.457104
     66          1           0        2.958434    4.010522   -1.302723
     67          6           0        2.515186    2.614869    0.295703
     68          6           0        2.418639    5.164723    0.460520
     69          1           0        1.833334    4.992481    1.370033
     70          1           0        3.466965    5.206390    0.777713
     71          8           0        2.493766    2.554905    1.538414
     72          6           0        1.995892    6.448192   -0.216981
     73          6           0        2.751039    6.993452   -1.267308
     74          1           0        3.678535    6.511205   -1.568641
     75          6           0        0.812300    7.097653    0.147306
     76          1           0        0.215761    6.709241    0.971022
     77          6           0        2.342038    8.142473   -1.931672
     78          1           0        2.928047    8.568122   -2.739659
     79          6           0        0.385619    8.253784   -0.509744
     80          1           0       -0.534363    8.748110   -0.204496
     81          8           0        0.803960    9.901906   -2.244882
     82          1           0       -0.016547   10.269656   -1.881062
     83          6           0        1.151343    8.779698   -1.554597
     84          7           0        2.669828    1.543332   -0.509713
     85          1           0        2.602240    1.687818   -1.516330
     86          6           0        2.431628    0.216096    0.011894
     87          1           0        2.581788    0.313318    1.072540
     88          6           0        3.488542   -0.785531   -0.477207
     89          6           0        0.971740   -0.231652   -0.177753
     90          1           0        0.779917   -0.630291   -1.176151
     91          1           0        0.330890    0.654067   -0.088184
     92          8           0        4.217041   -0.586010   -1.435451
     93          6           0        0.473219   -1.235744    0.867421
     94          8           0       -0.587788   -1.840996    0.632285
     95          8           0        1.177063   -1.431228    1.934796
     96          7           0        3.581797   -1.867310    0.355133
     97          1           0        2.819397   -2.018378    1.008988
     98          6           0        4.587182   -2.889326    0.207621
     99          1           0        5.491393   -2.413526   -0.186965
    100          6           0        4.153207   -3.944358   -0.813046
    101          6           0        4.902084   -3.561763    1.564115
    102          1           0        5.702210   -4.285759    1.382305
    103          1           0        4.031228   -4.145127    1.891437
    104          8           0        3.032626   -4.076123   -1.253139
    105          6           0        5.341534   -2.610040    2.700843
    106          1           0        5.859805   -3.222484    3.445377
    107          1           0        6.095427   -1.908196    2.319217
    108          6           0        4.200497   -1.833296    3.422564
    109          1           0        3.234207   -2.274172    3.156812
    110          1           0        4.298734   -1.950816    4.508210
    111          6           0        4.182983   -0.335961    3.085525
    112          1           0        4.419031   -0.176634    2.034693
    113          1           0        4.899460    0.233111    3.683061
    114          7           0        2.816360    0.279433    3.299458
    115          1           0        2.590681    0.381720    4.292017
    116          1           0        2.081175   -0.339599    2.839062
    117          1           0        2.744424    1.210093    2.824672
    118          8           0        5.187256   -4.740985   -1.146300
    119          1           0        4.856639   -5.399020   -1.786694
 ---------------------------------------------------------------------

 SCF Done:  E(RB3LYP) =  -2933.91003270     A.U. after    3 cycles

 Alpha  occ. eigenvalues --  -19.27787 -19.24058 -19.22935 -19.22385 -19.22340
 Alpha  occ. eigenvalues --  -19.22329 -19.21727 -19.21391 -19.20593 -19.20116
 Alpha  occ. eigenvalues --  -19.19794 -19.18394 -14.56683 -14.53745 -14.46451
 Alpha  occ. eigenvalues --  -14.45966 -14.45188 -14.44825 -14.44633 -14.43701
 Alpha  occ. eigenvalues --  -14.42507 -14.39488 -10.40108 -10.39658 -10.38616
 Alpha  occ. eigenvalues --  -10.38489 -10.38445 -10.37644 -10.36913 -10.36048
 Alpha  occ. eigenvalues --  -10.35508 -10.35126 -10.32691 -10.32318 -10.32206
 Alpha  occ. eigenvalues --  -10.32203 -10.32145 -10.32003 -10.31811 -10.31547
 Alpha  occ. eigenvalues --  -10.30960 -10.30708 -10.30452 -10.29947 -10.28649
 Alpha  occ. eigenvalues --  -10.28593 -10.28137 -10.27397 -10.27322 -10.26247
 Alpha  occ. eigenvalues --  -10.26187 -10.25821 -10.25714 -10.25692 -10.25577
 Alpha  occ. eigenvalues --  -10.25212 -10.25100 -10.24855 -10.23193 -10.22831
 Alpha  occ. eigenvalues --   -1.18730  -1.15268  -1.14031  -1.13827  -1.13076
 Alpha  occ. eigenvalues --   -1.12715  -1.12195  -1.11701  -1.10719  -1.10039
 Alpha  occ. eigenvalues --   -1.09820  -1.09795  -1.09328  -1.08806  -1.04779
 Alpha  occ. eigenvalues --   -1.02479  -1.02347  -1.01586  -1.01102  -1.01037
 Alpha  occ. eigenvalues --   -0.99547  -0.95101  -0.92307  -0.90487  -0.90423
 Alpha  occ. eigenvalues --   -0.88509  -0.88086  -0.87029  -0.86167  -0.85249
 Alpha  occ. eigenvalues --   -0.84362  -0.83071  -0.81564  -0.81295  -0.80608
 Alpha  occ. eigenvalues --   -0.80386  -0.78842  -0.76716  -0.76035  -0.74720
 Alpha  occ. eigenvalues --   -0.74619  -0.73983  -0.73207  -0.71754  -0.70610
 Alpha  occ. eigenvalues --   -0.70567  -0.70073  -0.69884  -0.69399  -0.69201
 Alpha  occ. eigenvalues --   -0.69150  -0.68852  -0.68503  -0.67990  -0.67414
 Alpha  occ. eigenvalues --   -0.67241  -0.67201  -0.66232  -0.65922  -0.65531
 Alpha  occ. eigenvalues --   -0.64002  -0.63913  -0.62744  -0.62192  -0.61910
 Alpha  occ. eigenvalues --   -0.61157  -0.60931  -0.60449  -0.60092  -0.59502
 Alpha  occ. eigenvalues --   -0.59272  -0.58499  -0.58377  -0.58066  -0.57378
 Alpha  occ. eigenvalues --   -0.57177  -0.56980  -0.56433  -0.56174  -0.55979
 Alpha  occ. eigenvalues --   -0.55615  -0.54984  -0.54741  -0.54448  -0.53895
 Alpha  occ. eigenvalues --   -0.53788  -0.53718  -0.53543  -0.53400  -0.53025
 Alpha  occ. eigenvalues --   -0.52586  -0.52470  -0.52157  -0.51760  -0.51567
 Alpha  occ. eigenvalues --   -0.51434  -0.51261  -0.50779  -0.50477  -0.50349
 Alpha  occ. eigenvalues --   -0.49878  -0.49782  -0.49498  -0.49269  -0.49159
 Alpha  occ. eigenvalues --   -0.49035  -0.48987  -0.48896  -0.48683  -0.48541
 Alpha  occ. eigenvalues --   -0.48278  -0.48160  -0.47751  -0.47595  -0.47446
 Alpha  occ. eigenvalues --   -0.47123  -0.46890  -0.46808  -0.46616  -0.46364
 Alpha  occ. eigenvalues --   -0.46089  -0.45926  -0.45474  -0.45181  -0.44950
 Alpha  occ. eigenvalues --   -0.44662  -0.44168  -0.44155  -0.43904  -0.43657
 Alpha  occ. eigenvalues --   -0.43577  -0.43366  -0.42933  -0.42710  -0.42664
 Alpha  occ. eigenvalues --   -0.42216  -0.42076  -0.40730  -0.40329  -0.39946
 Alpha  occ. eigenvalues --   -0.39503  -0.39147  -0.38747  -0.38487  -0.37942
 Alpha  occ. eigenvalues --   -0.37773  -0.37318  -0.36734  -0.36433  -0.36088
 Alpha  occ. eigenvalues --   -0.36042  -0.35952  -0.35498  -0.35332  -0.34989
 Alpha  occ. eigenvalues --   -0.34757  -0.34310  -0.34060  -0.33630  -0.33369
 Alpha  occ. eigenvalues --   -0.32970  -0.32318  -0.31975  -0.31467  -0.31241
 Alpha  occ. eigenvalues --   -0.28423
 Alpha virt. eigenvalues --   -0.08908  -0.08745  -0.07568  -0.07419  -0.07315
 Alpha virt. eigenvalues --   -0.07118  -0.06970  -0.06446  -0.06039  -0.05608
 Alpha virt. eigenvalues --   -0.05594  -0.05065  -0.04699  -0.03263  -0.01120

 Mulliken charges:
               1
     1  N   -0.745789
     2  H    0.413117
     3  H    0.417069
     4  H    0.395645
     5  C   -0.123303
     6  H    0.245281
     7  C    0.657453
     8  C   -0.366884
     9  H    0.223043
    10  H    0.183286
    11  O   -0.574999
    12  C    0.282146
    13  C   -0.106471
    14  H    0.144882
    15  N   -0.622242
    16  H    0.394484
    17  C    0.187723
    18  H    0.160971
    19  N   -0.411205
    20  N   -0.603609
    21  H    0.408944
    22  C   -0.125477
    23  H    0.172941
    24  C    0.652687
    25  C    0.157589
    26  H    0.160578
    27  O   -0.543729
    28  C   -0.509968
    29  H    0.201782
    30  H    0.181812
    31  H    0.129878
    32  O   -0.619102
    33  H    0.397517
    34  N   -0.613893
    35  H    0.342609
    36  C   -0.019093
    37  H    0.165786
    38  C    0.643679
    39  C   -0.303486
    40  H    0.159846
    41  H    0.144342
    42  O   -0.542961
    43  C   -0.084784
    44  H    0.148680
    45  C   -0.452588
    46  H    0.145212
    47  H    0.141601
    48  H    0.156939
    49  C   -0.445671
    50  H    0.144530
    51  H    0.153942
    52  H    0.149303
    53  N   -0.621128
    54  H    0.370377
    55  C   -0.019713
    56  H    0.187560
    57  C    0.632929
    58  C   -0.490231
    59  H    0.132212
    60  H    0.185255
    61  H    0.214026
    62  O   -0.550929
    63  N   -0.611601
    64  H    0.348799
    65  C   -0.053997
    66  H    0.196823
    67  C    0.641739
    68  C   -0.396944
    69  H    0.169849
    70  H    0.174973
    71  O   -0.576422
    72  C    0.171883
    73  C   -0.184971
    74  H    0.135661
    75  C   -0.216683
    76  H    0.127703
    77  C   -0.154499
    78  H    0.157406
    79  C   -0.190353
    80  H    0.132391
    81  O   -0.631458
    82  H    0.414329
    83  C    0.353589
    84  N   -0.588158
    85  H    0.393040
    86  C   -0.065655
    87  H    0.114899
    88  C    0.607720
    89  C   -0.390277
    90  H    0.224471
    91  H    0.184936
    92  O   -0.500323
    93  C    0.624368
    94  O   -0.557873
    95  O   -0.648428
    96  N   -0.637116
    97  H    0.369305
    98  C   -0.039192
    99  H    0.199541
   100  C    0.608189
   101  C   -0.321483
   102  H    0.186343
   103  H    0.177207
   104  O   -0.472798
   105  C   -0.273033
   106  H    0.171442
   107  H    0.157152
   108  C   -0.293732
   109  H    0.167333
   110  H    0.162497
   111  C   -0.196072
   112  H    0.217804
   113  H    0.200178
   114  N   -0.809531
   115  H    0.389842
   116  H    0.437524
   117  H    0.436802
   118  O   -0.556552
   119  H    0.421017
 Sum of Mulliken charges =   1.00000

 Dipole moment (field-independent basis, Debye):
    X=              1.5134    Y=             -5.3684    Z=              3.4862  Tot=              6.5775
 Quadrupole moment (field-independent basis, Debye-Ang):
   XX=           -309.0561   YY=           -230.1325   ZZ=           -289.1926
   XY=             12.5250   XZ=             39.2731   YZ=              6.7002

 Normal termination of Gaussian 16 at Sun Jun 19 13:54:15 2022.
