 Gaussian 16, Revision C.01,
 Gaussian 16:  ES64L-G16RevC.01  3-Jul-2019

 ----------------------------------------------------------------------
 # B3LYP/6-31G* empiricaldispersion=gd3 guess=read geom=check nosymm in
 tegral(ultrafinegrid)
 ----------------------------------------------------------------------

 ------------------------------------------------------
 Candidate Structure: Conf:102 Charge calc in gas phase
 ------------------------------------------------------
 Structure from the checkpoint file:  "conf-102.chk"
 Charge =  1 Multiplicity = 1

                          Input orientation:
 ---------------------------------------------------------------------
 Center     Atomic      Atomic             Coordinates (Angstroms)
 Number     Number       Type             X           Y           Z
 ---------------------------------------------------------------------
      1          7           0       -3.351111    1.087764   -8.698860
      2          1           0       -4.045993    1.801504   -8.469539
      3          1           0       -2.438265    1.459726   -8.428286
      4          1           0       -3.355167    0.945845   -9.709398
      5          6           0       -3.638742   -0.172339   -7.973739
      6          1           0       -4.613925   -0.535135   -8.295503
      7          6           0       -3.684929    0.083518   -6.452420
      8          6           0       -2.555518   -1.224566   -8.252411
      9          1           0       -1.691737   -0.927268   -7.645238
     10          1           0       -2.243990   -1.159966   -9.293988
     11          8           0       -2.736618    0.686046   -5.891781
     12          6           0       -2.929865   -2.648165   -7.967493
     13          6           0       -2.575681   -3.803408   -8.592034
     14          1           0       -1.968817   -3.921738   -9.476699
     15          7           0       -3.676458   -3.055804   -6.890644
     16          1           0       -4.154677   -2.442795   -6.237719
     17          6           0       -3.753662   -4.401007   -6.923844
     18          1           0       -4.270848   -4.953043   -6.151085
     19          7           0       -3.096121   -4.901576   -7.939412
     20          7           0       -4.761948   -0.491650   -5.817522
     21          1           0       -5.612785   -0.586828   -6.356431
     22          6           0       -4.930326   -0.391826   -4.375305
     23          1           0       -4.623898    0.616068   -4.080171
     24          6           0       -4.009989   -1.428226   -3.692027
     25          6           0       -6.403354   -0.614518   -4.017509
     26          1           0       -6.712266   -1.568293   -4.459982
     27          8           0       -4.231336   -2.664624   -3.695941
     28          6           0       -6.623305   -0.646169   -2.518478
     29          1           0       -6.015959   -1.436319   -2.071643
     30          1           0       -7.675587   -0.833600   -2.300457
     31          1           0       -6.328848    0.311919   -2.086839
     32          8           0       -7.208769    0.380674   -4.636870
     33          1           0       -7.129527    1.183574   -4.115575
     34          7           0       -2.937547   -0.834594   -3.108491
     35          1           0       -2.751853    0.119265   -3.374394
     36          6           0       -1.823445   -1.577457   -2.581895
     37          1           0       -2.153072   -2.616759   -2.499221
     38          6           0       -1.485078   -1.037132   -1.194379
     39          6           0       -0.587528   -1.470593   -3.478046
     40          1           0        0.228687   -2.025453   -3.014566
     41          1           0       -0.267993   -0.423032   -3.506923
     42          8           0       -1.721141    0.113563   -0.860949
     43          6           0       -0.785274   -1.958518   -4.911867
     44          1           0       -1.609253   -1.383226   -5.347242
     45          6           0        0.455889   -1.655178   -5.737819
     46          1           0        1.336754   -2.122651   -5.291677
     47          1           0        0.626786   -0.577607   -5.787129
     48          1           0        0.355457   -2.037045   -6.757842
     49          6           0       -1.134436   -3.439608   -4.940626
     50          1           0       -0.340537   -4.020470   -4.466656
     51          1           0       -1.250924   -3.797330   -5.967764
     52          1           0       -2.073922   -3.623656   -4.413972
     53          7           0       -0.876507   -1.928819   -0.352659
     54          1           0       -0.455032   -2.728849   -0.791032
     55          6           0       -0.111379   -1.423534    0.777451
     56          1           0       -0.712277   -0.641789    1.242766
     57          6           0        1.203206   -0.824501    0.263711
     58          6           0        0.172781   -2.550592    1.758874
     59          1           0        0.735611   -2.185373    2.621948
     60          1           0        0.761856   -3.331013    1.271206
     61          1           0       -0.763633   -2.987125    2.108551
     62          8           0        1.766540   -1.263958   -0.727377
     63          7           0        1.689436    0.207682    1.002266
     64          1           0        1.314442    0.396865    1.918877
     65          6           0        2.994596    0.777983    0.743500
     66          1           0        3.509447    0.105233    0.058936
     67          6           0        3.709802    0.870289    2.088516
     68          6           0        2.887467    2.176863    0.112282
     69          1           0        2.339175    2.811276    0.812197
     70          1           0        3.891304    2.599743    0.011522
     71          8           0        3.119522    1.266168    3.081084
     72          6           0        2.199708    2.154543   -1.227004
     73          6           0        2.919069    2.152700   -2.422133
     74          1           0        4.000575    2.207623   -2.400459
     75          6           0        0.802412    2.100825   -1.304641
     76          1           0        0.220237    2.076615   -0.389074
     77          6           0        2.274493    2.090543   -3.657953
     78          1           0        2.838020    2.084382   -4.581161
     79          6           0        0.144055    2.048759   -2.532338
     80          1           0       -0.938680    2.004395   -2.552357
     81          8           0        0.297677    1.928036   -4.946670
     82          1           0       -0.640733    1.749478   -4.834366
     83          6           0        0.888179    2.028608   -3.709347
     84          7           0        5.014920    0.495281    2.087184
     85          1           0        5.499291    0.363559    1.211547
     86          6           0        5.868711    0.638651    3.249629
     87          1           0        5.266298    1.081112    4.045018
     88          6           0        7.037482    1.545016    2.849227
     89          6           0        6.403254   -0.722890    3.703746
     90          1           0        7.031844   -0.596231    4.587859
     91          1           0        6.981284   -1.186063    2.903820
     92          8           0        7.609089    1.405063    1.781946
     93          6           0        5.194375   -1.619165    4.094110
     94          8           0        4.600394   -1.232282    5.117123
     95          8           0        4.964327   -2.612196    3.381028
     96          7           0        7.386582    2.486326    3.762142
     97          1           0        6.926029    2.505685    4.656443
     98          6           0        8.555708    3.334672    3.575764
     99          1           0        8.763656    3.361797    2.505796
    100          6           0        9.729304    2.698421    4.296339
    101          6           0        8.281736    4.729871    4.117518
    102          1           0        8.070963    4.653349    5.186756
    103          1           0        7.375582    5.095248    3.630276
    104          8           0        9.973188    2.844517    5.469518
    105          6           0        9.420236    5.709671    3.879034
    106          1           0       10.310120    5.383404    4.423586
    107          1           0        9.682600    5.706033    2.816927
    108          6           0        9.052988    7.121961    4.298705
    109          1           0        8.161219    7.448386    3.756516
    110          1           0        8.804160    7.134902    5.363058
    111          6           0       10.169012    8.110993    4.045616
    112          1           0       10.412870    8.110258    2.980552
    113          1           0       11.064117    7.784539    4.580442
    114          7           0        9.812676    9.487606    4.470905
    115          1           0       10.567819   10.153404    4.303910
    116          1           0        9.592796    9.515449    5.465923
    117          1           0        8.991053    9.822933    3.969168
    118          8           0       10.461640    1.909694    3.485149
    119          1           0       11.151625    1.523823    4.039923
 ---------------------------------------------------------------------

 SCF Done:  E(RB3LYP) =  -2933.66629504     A.U. after    3 cycles

 Alpha  occ. eigenvalues --  -19.26165 -19.25131 -19.24005 -19.22129 -19.19961
 Alpha  occ. eigenvalues --  -19.19865 -19.16289 -19.14588 -19.13716 -19.12511
 Alpha  occ. eigenvalues --  -19.02695 -19.02314 -14.64991 -14.63235 -14.49810
 Alpha  occ. eigenvalues --  -14.45477 -14.43915 -14.40971 -14.39431 -14.37816
 Alpha  occ. eigenvalues --  -14.37399 -14.36780 -10.43118 -10.41011 -10.40888
 Alpha  occ. eigenvalues --  -10.37688 -10.37367 -10.33628 -10.33446 -10.33388
 Alpha  occ. eigenvalues --  -10.33161 -10.33017 -10.31376 -10.30616 -10.30055
 Alpha  occ. eigenvalues --  -10.30031 -10.29945 -10.29904 -10.29667 -10.28476
 Alpha  occ. eigenvalues --  -10.28179 -10.27546 -10.26707 -10.25861 -10.25524
 Alpha  occ. eigenvalues --  -10.24930 -10.23484 -10.23250 -10.23130 -10.22111
 Alpha  occ. eigenvalues --  -10.22084 -10.21935 -10.21905 -10.21762 -10.21731
 Alpha  occ. eigenvalues --  -10.21641 -10.20842 -10.20607 -10.20536 -10.15361
 Alpha  occ. eigenvalues --   -1.19946  -1.18957  -1.16636  -1.15723  -1.12121
 Alpha  occ. eigenvalues --   -1.10466  -1.10123  -1.08925  -1.08485  -1.07697
 Alpha  occ. eigenvalues --   -1.07319  -1.06044  -1.05545  -1.04806  -1.00421
 Alpha  occ. eigenvalues --   -0.97906  -0.96370  -0.96172  -0.95599  -0.94984
 Alpha  occ. eigenvalues --   -0.94750  -0.93415  -0.92944  -0.88577  -0.88440
 Alpha  occ. eigenvalues --   -0.88432  -0.87326  -0.86464  -0.84559  -0.82863
 Alpha  occ. eigenvalues --   -0.82539  -0.81677  -0.80296  -0.79004  -0.78919
 Alpha  occ. eigenvalues --   -0.78107  -0.78059  -0.77918  -0.77277  -0.76747
 Alpha  occ. eigenvalues --   -0.75327  -0.74641  -0.74452  -0.73509  -0.72797
 Alpha  occ. eigenvalues --   -0.71317  -0.70932  -0.70548  -0.69298  -0.68626
 Alpha  occ. eigenvalues --   -0.68075  -0.67558  -0.66884  -0.66328  -0.66051
 Alpha  occ. eigenvalues --   -0.65706  -0.65389  -0.64201  -0.63686  -0.63464
 Alpha  occ. eigenvalues --   -0.62823  -0.62583  -0.61878  -0.61759  -0.61619
 Alpha  occ. eigenvalues --   -0.61295  -0.60737  -0.60144  -0.59680  -0.58625
 Alpha  occ. eigenvalues --   -0.58077  -0.57903  -0.57018  -0.56623  -0.55965
 Alpha  occ. eigenvalues --   -0.55262  -0.54604  -0.54364  -0.54173  -0.53997
 Alpha  occ. eigenvalues --   -0.53510  -0.53351  -0.53078  -0.52332  -0.52001
 Alpha  occ. eigenvalues --   -0.51889  -0.51714  -0.51014  -0.50440  -0.50410
 Alpha  occ. eigenvalues --   -0.50270  -0.50051  -0.49941  -0.49434  -0.49015
 Alpha  occ. eigenvalues --   -0.48796  -0.48656  -0.48297  -0.48040  -0.47869
 Alpha  occ. eigenvalues --   -0.47357  -0.47325  -0.47088  -0.46861  -0.46639
 Alpha  occ. eigenvalues --   -0.46417  -0.46267  -0.45752  -0.45602  -0.45384
 Alpha  occ. eigenvalues --   -0.45193  -0.44901  -0.44821  -0.44353  -0.44225
 Alpha  occ. eigenvalues --   -0.44170  -0.43972  -0.43600  -0.43495  -0.43019
 Alpha  occ. eigenvalues --   -0.42726  -0.42546  -0.41830  -0.41818  -0.41546
 Alpha  occ. eigenvalues --   -0.41474  -0.41009  -0.40620  -0.40243  -0.40024
 Alpha  occ. eigenvalues --   -0.39767  -0.39671  -0.39109  -0.38203  -0.37811
 Alpha  occ. eigenvalues --   -0.37665  -0.37400  -0.37228  -0.37186  -0.36982
 Alpha  occ. eigenvalues --   -0.36846  -0.36695  -0.36368  -0.35728  -0.35573
 Alpha  occ. eigenvalues --   -0.34625  -0.34117  -0.33829  -0.32930  -0.32672
 Alpha  occ. eigenvalues --   -0.32088  -0.30843  -0.30827  -0.30027  -0.29999
 Alpha  occ. eigenvalues --   -0.29555  -0.28803  -0.28441  -0.27984  -0.27420
 Alpha  occ. eigenvalues --   -0.26337  -0.25799  -0.24848  -0.17990  -0.16838
 Alpha  occ. eigenvalues --   -0.15859
 Alpha virt. eigenvalues --   -0.15123  -0.15019  -0.12059  -0.08574  -0.08507
 Alpha virt. eigenvalues --   -0.07754  -0.07010  -0.06362  -0.05593  -0.05181
 Alpha virt. eigenvalues --   -0.04556  -0.03603  -0.03286  -0.02623  -0.02234

 Mulliken charges:
               1
     1  N   -0.698338
     2  H    0.407841
     3  H    0.430638
     4  H    0.414745
     5  C   -0.133613
     6  H    0.204438
     7  C    0.594117
     8  C   -0.380829
     9  H    0.225675
    10  H    0.169878
    11  O   -0.529641
    12  C    0.317667
    13  C   -0.082935
    14  H    0.143228
    15  N   -0.619168
    16  H    0.374394
    17  C    0.209763
    18  H    0.185183
    19  N   -0.409515
    20  N   -0.623469
    21  H    0.361261
    22  C   -0.035229
    23  H    0.157620
    24  C    0.619906
    25  C    0.087877
    26  H    0.170100
    27  O   -0.551378
    28  C   -0.482549
    29  H    0.198917
    30  H    0.186239
    31  H    0.149284
    32  O   -0.626627
    33  H    0.399776
    34  N   -0.551548
    35  H    0.348690
    36  C   -0.116831
    37  H    0.195950
    38  C    0.645556
    39  C   -0.284638
    40  H    0.180993
    41  H    0.158347
    42  O   -0.535069
    43  C   -0.086485
    44  H    0.097310
    45  C   -0.462979
    46  H    0.162872
    47  H    0.157296
    48  H    0.125753
    49  C   -0.476345
    50  H    0.146268
    51  H    0.157715
    52  H    0.168345
    53  N   -0.574125
    54  H    0.335005
    55  C   -0.082665
    56  H    0.174793
    57  C    0.646393
    58  C   -0.462781
    59  H    0.198139
    60  H    0.170413
    61  H    0.162471
    62  O   -0.539292
    63  N   -0.608394
    64  H    0.349374
    65  C   -0.047911
    66  H    0.186652
    67  C    0.627793
    68  C   -0.355540
    69  H    0.156833
    70  H    0.139091
    71  O   -0.532713
    72  C    0.181067
    73  C   -0.185447
    74  H    0.124070
    75  C   -0.174922
    76  H    0.147653
    77  C   -0.159600
    78  H    0.128655
    79  C   -0.201279
    80  H    0.116765
    81  O   -0.676631
    82  H    0.405966
    83  C    0.352680
    84  N   -0.584877
    85  H    0.337481
    86  C   -0.083663
    87  H    0.185336
    88  C    0.619192
    89  C   -0.321028
    90  H    0.121247
    91  H    0.134081
    92  O   -0.530136
    93  C    0.557774
    94  O   -0.570668
    95  O   -0.560928
    96  N   -0.621459
    97  H    0.347063
    98  C   -0.019814
    99  H    0.193624
   100  C    0.580044
   101  C   -0.282405
   102  H    0.168626
   103  H    0.158574
   104  O   -0.471400
   105  C   -0.283627
   106  H    0.177366
   107  H    0.158852
   108  C   -0.289391
   109  H    0.166049
   110  H    0.172711
   111  C   -0.227867
   112  H    0.228869
   113  H    0.232808
   114  N   -0.702711
   115  H    0.423889
   116  H    0.421097
   117  H    0.419088
   118  O   -0.539910
   119  H    0.417141
 Sum of Mulliken charges =   1.00000

 Dipole moment (field-independent basis, Debye):
    X=             13.8238    Y=             51.3286    Z=            -20.3787  Tot=             56.9299
 Quadrupole moment (field-independent basis, Debye-Ang):
   XX=             86.6389   YY=             -1.7891   ZZ=            -75.3560
   XY=            399.0612   XZ=            250.8151   YZ=            144.1824

 Normal termination of Gaussian 16 at Sun Jun 19 13:53:35 2022.
