 Gaussian 16, Revision C.01,
 Gaussian 16:  ES64L-G16RevC.01  3-Jul-2019

 ----------------------------------------------------------------------
 # B3LYP/6-31G* empiricaldispersion=gd3 guess=read geom=check nosymm in
 tegral(ultrafinegrid)
 ----------------------------------------------------------------------

 ------------------------------------------------------
 Candidate Structure: Conf:197 Charge calc in gas phase
 ------------------------------------------------------
 Structure from the checkpoint file:  "conf-197.chk"
 Charge =  1 Multiplicity = 1

                          Input orientation:
 ---------------------------------------------------------------------
 Center     Atomic      Atomic             Coordinates (Angstroms)
 Number     Number       Type             X           Y           Z
 ---------------------------------------------------------------------
      1          7           0        0.269299   -4.968361   -0.176389
      2          1           0       -0.081598   -5.616108    0.533500
      3          1           0       -0.261915   -5.138881   -1.081089
      4          1           0        1.282379   -5.100655   -0.273173
      5          6           0       -0.083646   -3.526890    0.107660
      6          1           0       -0.321166   -3.414960    1.166720
      7          6           0       -1.319443   -3.280168   -0.784493
      8          6           0        1.096291   -2.609944   -0.278289
      9          1           0        0.748607   -1.578210   -0.180030
     10          1           0        1.341105   -2.748204   -1.336612
     11          8           0       -1.570328   -4.103607   -1.673814
     12          6           0        2.282057   -2.877717    0.594700
     13          6           0        3.603015   -3.169398    0.339200
     14          1           0        4.101406   -3.241155   -0.617759
     15          7           0        2.159993   -2.907103    1.974035
     16          1           0        1.387008   -2.462366    2.514636
     17          6           0        3.380656   -3.170261    2.479814
     18          1           0        3.564388   -3.232875    3.541223
     19          7           0        4.288018   -3.346187    1.530603
     20          7           0       -1.959926   -2.157830   -0.477257
     21          1           0       -1.587480   -1.652548    0.328949
     22          6           0       -2.774971   -1.376209   -1.391226
     23          1           0       -3.776010   -1.810661   -1.492844
     24          6           0       -2.050637   -1.279579   -2.747797
     25          6           0       -2.882429    0.067488   -0.761503
     26          1           0       -1.885008    0.515413   -0.867601
     27          8           0       -0.844740   -1.520017   -2.846834
     28          6           0       -3.935421    0.951450   -1.425264
     29          1           0       -3.658265    1.262747   -2.434977
     30          1           0       -4.048858    1.853850   -0.818921
     31          1           0       -4.908634    0.447163   -1.448627
     32          8           0       -3.222720   -0.042332    0.608822
     33          1           0       -2.389082   -0.023396    1.118711
     34          7           0       -2.781921   -0.791323   -3.778805
     35          1           0       -3.751382   -0.552254   -3.614725
     36          6           0       -2.143418   -0.173346   -4.955416
     37          1           0       -1.286420   -0.805804   -5.199097
     38          6           0       -1.633077    1.242738   -4.544061
     39          6           0       -3.129546   -0.111176   -6.120606
     40          1           0       -3.934426    0.584128   -5.850565
     41          1           0       -3.575053   -1.108161   -6.239349
     42          8           0       -2.155230    2.275376   -4.947625
     43          6           0       -2.519877    0.337605   -7.463693
     44          1           0       -2.066373    1.323759   -7.308148
     45          6           0       -1.438714   -0.630550   -7.967192
     46          1           0       -1.845883   -1.642736   -8.090935
     47          1           0       -0.581936   -0.694694   -7.285962
     48          1           0       -1.054372   -0.306381   -8.940729
     49          6           0       -3.635702    0.488035   -8.507448
     50          1           0       -4.135089   -0.472685   -8.689740
     51          1           0       -3.233160    0.840105   -9.463750
     52          1           0       -4.395323    1.206055   -8.177805
     53          7           0       -0.595357    1.199576   -3.663044
     54          1           0       -0.309209    0.284114   -3.322316
     55          6           0       -0.041900    2.345388   -2.952061
     56          1           0        0.524190    2.971180   -3.655633
     57          6           0        0.903324    1.748885   -1.900793
     58          6           0       -1.089803    3.228838   -2.247458
     59          1           0       -0.596484    4.070490   -1.749217
     60          1           0       -1.633881    2.651064   -1.496245
     61          1           0       -1.796390    3.612394   -2.984105
     62          8           0        0.633161    0.684888   -1.329981
     63          7           0        2.035467    2.432396   -1.620571
     64          1           0        2.231466    3.299147   -2.103971
     65          6           0        3.101718    1.821156   -0.820138
     66          1           0        3.006055    0.740568   -0.976499
     67          6           0        2.926569    2.062687    0.698890
     68          6           0        4.479556    2.288961   -1.315047
     69          1           0        4.432638    2.383363   -2.406891
     70          1           0        4.698253    3.275409   -0.896581
     71          8           0        3.759181    2.666783    1.367693
     72          6           0        5.568500    1.304547   -0.950802
     73          6           0        6.459135    1.551488    0.099084
     74          1           0        6.366612    2.470766    0.667279
     75          6           0        5.681360    0.100170   -1.657534
     76          1           0        5.003812   -0.103404   -2.483633
     77          6           0        7.446135    0.624305    0.430456
     78          1           0        8.159765    0.822622    1.223619
     79          6           0        6.638970   -0.852970   -1.314978
     80          1           0        6.705408   -1.793101   -1.858642
     81          8           0        8.437827   -1.526451    0.184951
     82          1           0        8.694487   -2.105924   -0.551189
     83          6           0        7.517053   -0.578877   -0.267564
     84          7           0        1.786865    1.538932    1.223228
     85          1           0        1.189467    0.966479    0.630015
     86          6           0        1.599144    1.511116    2.656371
     87          1           0        1.763039    2.521825    3.048824
     88          6           0        2.620023    0.559514    3.323690
     89          6           0        0.158272    1.055859    3.012554
     90          1           0       -0.554265    1.704401    2.497074
     91          1           0        0.003878    1.152303    4.090718
     92          8           0        3.297269   -0.242443    2.688674
     93          6           0       -0.060731   -0.402466    2.594797
     94          8           0        0.420784   -1.309605    3.344341
     95          8           0       -0.627563   -0.607092    1.488424
     96          7           0        2.634137    0.632997    4.683590
     97          1           0        2.067423    1.341985    5.130935
     98          6           0        3.096832   -0.471730    5.521704
     99          1           0        3.175646   -1.326734    4.842103
    100          6           0        1.993930   -0.820653    6.544363
    101          6           0        4.453485   -0.202696    6.180173
    102          1           0        4.670894   -1.019793    6.876747
    103          1           0        4.372976    0.703425    6.789917
    104          8           0        2.215337   -0.902431    7.729230
    105          6           0        5.574097   -0.047194    5.141341
    106          1           0        5.254090    0.678336    4.384062
    107          1           0        6.467178    0.370764    5.619610
    108          6           0        5.938885   -1.379407    4.454874
    109          1           0        6.647352   -1.942969    5.078023
    110          1           0        5.045451   -1.999631    4.350593
    111          6           0        6.513750   -1.143880    3.067247
    112          1           0        7.448071   -0.579473    3.107762
    113          1           0        5.797589   -0.606155    2.442957
    114          7           0        6.808192   -2.444553    2.352002
    115          1           0        7.435721   -2.276552    1.542068
    116          1           0        5.898920   -2.891830    1.998284
    117          1           0        7.276737   -3.106532    2.976833
    118          8           0        0.772045   -1.014881    6.030338
    119          1           0        0.747243   -1.043024    5.034279
 ---------------------------------------------------------------------

 SCF Done:  E(RB3LYP) =  -2933.92003875     A.U. after    3 cycles

 Alpha  occ. eigenvalues --  -19.30028 -19.23794 -19.23401 -19.21872 -19.20816
 Alpha  occ. eigenvalues --  -19.20804 -19.20526 -19.20453 -19.20340 -19.19843
 Alpha  occ. eigenvalues --  -19.19270 -19.18516 -14.57584 -14.53674 -14.47878
 Alpha  occ. eigenvalues --  -14.46496 -14.45094 -14.45011 -14.44639 -14.43941
 Alpha  occ. eigenvalues --  -14.43460 -14.42410 -10.39876 -10.38635 -10.38270
 Alpha  occ. eigenvalues --  -10.37795 -10.37630 -10.37495 -10.37413 -10.36779
 Alpha  occ. eigenvalues --  -10.35522 -10.35197 -10.35151 -10.34312 -10.32953
 Alpha  occ. eigenvalues --  -10.32651 -10.32577 -10.32105 -10.31897 -10.31872
 Alpha  occ. eigenvalues --  -10.31737 -10.31422 -10.31357 -10.30374 -10.29453
 Alpha  occ. eigenvalues --  -10.29369 -10.29009 -10.28916 -10.28626 -10.28422
 Alpha  occ. eigenvalues --  -10.28302 -10.28187 -10.27397 -10.26553 -10.25547
 Alpha  occ. eigenvalues --  -10.24797 -10.24657 -10.24193 -10.22762 -10.22089
 Alpha  occ. eigenvalues --   -1.17127  -1.15972  -1.15189  -1.13929  -1.13660
 Alpha  occ. eigenvalues --   -1.12693  -1.12501  -1.12060  -1.11320  -1.11051
 Alpha  occ. eigenvalues --   -1.10147  -1.08807  -1.08706  -1.07128  -1.04660
 Alpha  occ. eigenvalues --   -1.02675  -1.02564  -1.01551  -1.00932  -1.00436
 Alpha  occ. eigenvalues --   -0.99283  -0.97823  -0.95395  -0.91465  -0.90437
 Alpha  occ. eigenvalues --   -0.88935  -0.87679  -0.87132  -0.86207  -0.85359
 Alpha  occ. eigenvalues --   -0.84775  -0.84654  -0.84281  -0.82057  -0.80769
 Alpha  occ. eigenvalues --   -0.79621  -0.79390  -0.77171  -0.76636  -0.74859
 Alpha  occ. eigenvalues --   -0.74019  -0.73497  -0.73186  -0.72035  -0.71820
 Alpha  occ. eigenvalues --   -0.71318  -0.71078  -0.70763  -0.70076  -0.69740
 Alpha  occ. eigenvalues --   -0.69130  -0.69017  -0.68015  -0.67737  -0.67604
 Alpha  occ. eigenvalues --   -0.67517  -0.67172  -0.66898  -0.66365  -0.65830
 Alpha  occ. eigenvalues --   -0.64783  -0.64485  -0.64341  -0.63437  -0.62992
 Alpha  occ. eigenvalues --   -0.62393  -0.61564  -0.61276  -0.61048  -0.59492
 Alpha  occ. eigenvalues --   -0.59336  -0.59228  -0.59123  -0.57989  -0.57784
 Alpha  occ. eigenvalues --   -0.57510  -0.57147  -0.56798  -0.56433  -0.56159
 Alpha  occ. eigenvalues --   -0.56134  -0.55707  -0.55379  -0.55001  -0.54842
 Alpha  occ. eigenvalues --   -0.54334  -0.54012  -0.53954  -0.53638  -0.52811
 Alpha  occ. eigenvalues --   -0.52677  -0.52480  -0.52388  -0.52196  -0.52051
 Alpha  occ. eigenvalues --   -0.51863  -0.51581  -0.51219  -0.50768  -0.50628
 Alpha  occ. eigenvalues --   -0.50451  -0.50174  -0.49916  -0.49859  -0.49697
 Alpha  occ. eigenvalues --   -0.49232  -0.49196  -0.49007  -0.48829  -0.48792
 Alpha  occ. eigenvalues --   -0.48500  -0.48175  -0.48080  -0.47773  -0.47422
 Alpha  occ. eigenvalues --   -0.47211  -0.46838  -0.46671  -0.46542  -0.46410
 Alpha  occ. eigenvalues --   -0.46009  -0.45778  -0.45521  -0.45125  -0.44816
 Alpha  occ. eigenvalues --   -0.44620  -0.44521  -0.44439  -0.44229  -0.43966
 Alpha  occ. eigenvalues --   -0.43526  -0.43397  -0.43153  -0.42710  -0.42643
 Alpha  occ. eigenvalues --   -0.42561  -0.42007  -0.41704  -0.41188  -0.40773
 Alpha  occ. eigenvalues --   -0.39658  -0.39274  -0.38517  -0.38014  -0.37837
 Alpha  occ. eigenvalues --   -0.37733  -0.37172  -0.36901  -0.36838  -0.36429
 Alpha  occ. eigenvalues --   -0.36188  -0.35881  -0.35166  -0.35069  -0.35010
 Alpha  occ. eigenvalues --   -0.34839  -0.34456  -0.34073  -0.33821  -0.33407
 Alpha  occ. eigenvalues --   -0.33142  -0.32771  -0.32438  -0.32331  -0.31992
 Alpha  occ. eigenvalues --   -0.30945
 Alpha virt. eigenvalues --   -0.10346  -0.10048  -0.09492  -0.08509  -0.07988
 Alpha virt. eigenvalues --   -0.07886  -0.07565  -0.07111  -0.06693  -0.06171
 Alpha virt. eigenvalues --   -0.05745  -0.05184  -0.04993  -0.04177  -0.03642

 Mulliken charges:
               1
     1  N   -0.747760
     2  H    0.411812
     3  H    0.424311
     4  H    0.398034
     5  C   -0.147115
     6  H    0.224158
     7  C    0.680214
     8  C   -0.389659
     9  H    0.268437
    10  H    0.188845
    11  O   -0.547991
    12  C    0.274581
    13  C   -0.067771
    14  H    0.147364
    15  N   -0.612245
    16  H    0.418463
    17  C    0.272655
    18  H    0.174392
    19  N   -0.524619
    20  N   -0.635480
    21  H    0.404954
    22  C   -0.029677
    23  H    0.177769
    24  C    0.636917
    25  C    0.068175
    26  H    0.170159
    27  O   -0.556660
    28  C   -0.481496
    29  H    0.159322
    30  H    0.179789
    31  H    0.159007
    32  O   -0.647433
    33  H    0.427784
    34  N   -0.601306
    35  H    0.343524
    36  C   -0.073960
    37  H    0.185650
    38  C    0.632848
    39  C   -0.271001
    40  H    0.151539
    41  H    0.142260
    42  O   -0.525969
    43  C   -0.082874
    44  H    0.157337
    45  C   -0.451618
    46  H    0.143348
    47  H    0.134025
    48  H    0.153403
    49  C   -0.446861
    50  H    0.140592
    51  H    0.149886
    52  H    0.151193
    53  N   -0.668133
    54  H    0.400127
    55  C    0.014758
    56  H    0.160218
    57  C    0.590560
    58  C   -0.475708
    59  H    0.150265
    60  H    0.168686
    61  H    0.215644
    62  O   -0.539981
    63  N   -0.602778
    64  H    0.346642
    65  C   -0.065930
    66  H    0.186241
    67  C    0.649477
    68  C   -0.381568
    69  H    0.157598
    70  H    0.185619
    71  O   -0.530893
    72  C    0.162777
    73  C   -0.166885
    74  H    0.175747
    75  C   -0.181689
    76  H    0.141687
    77  C   -0.169467
    78  H    0.155345
    79  C   -0.177790
    80  H    0.133890
    81  O   -0.674857
    82  H    0.428241
    83  C    0.304963
    84  N   -0.631231
    85  H    0.390018
    86  C   -0.077125
    87  H    0.189050
    88  C    0.656858
    89  C   -0.365316
    90  H    0.181514
    91  H    0.171534
    92  O   -0.552566
    93  C    0.617324
    94  O   -0.609410
    95  O   -0.586094
    96  N   -0.598595
    97  H    0.344406
    98  C   -0.086711
    99  H    0.162703
   100  C    0.580013
   101  C   -0.255856
   102  H    0.166959
   103  H    0.164137
   104  O   -0.439515
   105  C   -0.281299
   106  H    0.173531
   107  H    0.155978
   108  C   -0.279403
   109  H    0.149657
   110  H    0.146672
   111  C   -0.193771
   112  H    0.187453
   113  H    0.243028
   114  N   -0.805519
   115  H    0.423567
   116  H    0.423661
   117  H    0.379049
   118  O   -0.609514
   119  H    0.460755
 Sum of Mulliken charges =   1.00000

 Dipole moment (field-independent basis, Debye):
    X=             19.9882    Y=            -11.9620    Z=             -2.2489  Tot=             23.4025
 Quadrupole moment (field-independent basis, Debye-Ang):
   XX=           -202.2717   YY=           -267.7645   ZZ=           -357.7900
   XY=            -44.9370   XZ=             31.4331   YZ=             -2.1763

 Normal termination of Gaussian 16 at Sun Jun 19 13:53:45 2022.
