 Gaussian 16, Revision C.01,
 Gaussian 16:  ES64L-G16RevC.01  3-Jul-2019

 -------------------------------------------------------------------
 # B3LYP/6-31G* guess=read geom=check nosymm integral(ultrafinegrid)
 -------------------------------------------------------------------

 ------------------------------------------------------
 Candidate Structure: Conf:961 Charge calc in gas phase
 ------------------------------------------------------
 Structure from the checkpoint file:  "conf-961.chk"
 Charge =  1 Multiplicity = 1

                          Input orientation:
 ---------------------------------------------------------------------
 Center     Atomic      Atomic             Coordinates (Angstroms)
 Number     Number       Type             X           Y           Z
 ---------------------------------------------------------------------
      1          7           0        0.053673   -2.554187    2.990129
      2          1           0       -0.045661   -3.256341    2.223820
      3          1           0        1.049098   -2.268179    3.005366
      4          1           0       -0.228801   -2.932527    3.897405
      5          6           0       -0.756089   -1.363156    2.531765
      6          1           0       -0.201410   -0.481757    2.846038
      7          6           0       -0.666570   -1.469896    0.991832
      8          6           0       -2.178185   -1.325884    3.103237
      9          1           0       -2.643741   -2.317027    3.027796
     10          1           0       -2.766057   -0.665091    2.459253
     11          8           0       -0.358673   -2.546852    0.489487
     12          6           0       -2.243874   -0.802434    4.545330
     13          1           0       -1.753128   -1.473651    5.261220
     14          1           0       -3.292739   -0.764949    4.864582
     15          6           0       -1.654715    0.590428    4.780412
     16          8           0       -1.463481    1.303753    3.661495
     17          8           0       -1.394686    0.995069    5.896198
     18          7           0       -0.882366   -0.306726    0.331445
     19          1           0       -1.076921    0.482110    0.939698
     20          6           0       -0.145883    0.048533   -0.917131
     21          1           0       -0.467460    1.068010   -1.155435
     22          6           0        1.348431    0.046165   -0.499344
     23          6           0       -0.446400   -0.858652   -2.119482
     24          1           0        0.022930   -1.829876   -1.951383
     25          1           0       -1.530320   -1.015530   -2.147456
     26          8           0        2.117343   -0.871248   -0.741049
     27          6           0        0.028922   -0.238333   -3.419216
     28          6           0        1.316708   -0.487296   -3.919559
     29          1           0        1.982744   -1.146011   -3.370141
     30          6           0       -0.807850    0.613692   -4.150675
     31          1           0       -1.819034    0.811113   -3.799278
     32          6           0        1.755623    0.093703   -5.104509
     33          1           0        2.748221   -0.106057   -5.495331
     34          6           0       -0.382130    1.204072   -5.339875
     35          1           0       -1.053228    1.854197   -5.897929
     36          8           0        1.389376    1.483792   -6.976216
     37          1           0        0.700940    2.023356   -7.395721
     38          6           0        0.905878    0.944581   -5.821588
     39          7           0        1.697654    1.066730    0.346042
     40          1           0        1.100349    1.875557    0.441056
     41          6           0        2.957802    1.055752    1.064723
     42          1           0        3.797531    1.117612    0.364543
     43          6           0        3.127778   -0.262844    1.828893
     44          6           0        3.028600    2.256617    2.041682
     45          1           0        4.023151    2.260486    2.501767
     46          1           0        2.972193    3.168318    1.431553
     47          8           0        2.232119   -0.894674    2.372175
     48          6           0        1.940118    2.277504    3.128082
     49          1           0        2.067976    1.414884    3.794365
     50          1           0        0.950453    2.157254    2.671738
     51          6           0        1.953699    3.562910    3.966163
     52          1           0        2.939989    3.687446    4.431631
     53          1           0        1.817176    4.437693    3.312843
     54          6           0        0.905861    3.593381    5.083758
     55          1           0        0.988548    2.699893    5.711853
     56          1           0        1.094478    4.462533    5.727695
     57          7           0       -0.485625    3.615198    4.563761
     58          1           0       -1.122829    3.661132    5.360496
     59          1           0       -1.062635    2.229374    3.939968
     60          1           0       -0.641857    4.466187    4.021022
     61          8           0        4.413658   -0.601220    1.911657
     62          1           0        4.490432   -1.421884    2.434812
 ---------------------------------------------------------------------

 SCF Done:  E(RB3LYP) =  -1526.22541129     A.U. after    1 cycles

 Alpha  occ. eigenvalues --  -19.32451 -19.27774 -19.27703 -19.26399 -19.24040
 Alpha  occ. eigenvalues --  -19.23195 -19.23070 -14.58686 -14.49388 -14.47858
 Alpha  occ. eigenvalues --  -14.45377 -10.45496 -10.43015 -10.42029 -10.39976
 Alpha  occ. eigenvalues --  -10.38991 -10.35923 -10.35233 -10.33676 -10.32166
 Alpha  occ. eigenvalues --  -10.32034 -10.31450 -10.31310 -10.29994 -10.29504
 Alpha  occ. eigenvalues --  -10.27524 -10.26132 -10.26077 -10.25589 -10.25444
 Alpha  occ. eigenvalues --  -10.24815  -1.23751  -1.19019  -1.18672  -1.15260
 Alpha  occ. eigenvalues --   -1.14533  -1.12846  -1.12164  -1.10234  -1.06155
 Alpha  occ. eigenvalues --   -1.04171  -1.00840  -0.94151  -0.92341  -0.91947
 Alpha  occ. eigenvalues --   -0.88872  -0.87049  -0.85485  -0.81662  -0.81303
 Alpha  occ. eigenvalues --   -0.80849  -0.77780  -0.76275  -0.74811  -0.72993
 Alpha  occ. eigenvalues --   -0.72675  -0.71914  -0.70845  -0.69878  -0.69609
 Alpha  occ. eigenvalues --   -0.69342  -0.68348  -0.65994  -0.65350  -0.63306
 Alpha  occ. eigenvalues --   -0.62567  -0.62262  -0.61513  -0.60987  -0.60494
 Alpha  occ. eigenvalues --   -0.59583  -0.58702  -0.58567  -0.58438  -0.57843
 Alpha  occ. eigenvalues --   -0.57259  -0.57094  -0.55899  -0.55755  -0.54845
 Alpha  occ. eigenvalues --   -0.54304  -0.53858  -0.53259  -0.53202  -0.52303
 Alpha  occ. eigenvalues --   -0.52114  -0.51315  -0.50786  -0.50130  -0.49791
 Alpha  occ. eigenvalues --   -0.49408  -0.49119  -0.48584  -0.48517  -0.48000
 Alpha  occ. eigenvalues --   -0.47625  -0.47437  -0.46759  -0.46266  -0.45196
 Alpha  occ. eigenvalues --   -0.45182  -0.44542  -0.44242  -0.43944  -0.42754
 Alpha  occ. eigenvalues --   -0.41245  -0.41016  -0.40716  -0.40129  -0.39546
 Alpha  occ. eigenvalues --   -0.39336  -0.38121  -0.37297  -0.36682  -0.35518
 Alpha  occ. eigenvalues --   -0.31748  -0.28393
 Alpha virt. eigenvalues --   -0.13064  -0.12229  -0.09620  -0.09084  -0.08904
 Alpha virt. eigenvalues --   -0.06785  -0.06773  -0.05689  -0.04387  -0.03240
 Alpha virt. eigenvalues --   -0.02981  -0.01849  -0.01084  -0.00436   0.00003

 Mulliken charges:
               1
     1  N   -0.762615
     2  H    0.421633
     3  H    0.435154
     4  H    0.403674
     5  C   -0.117582
     6  H    0.235571
     7  C    0.643142
     8  C   -0.294527
     9  H    0.177952
    10  H    0.203289
    11  O   -0.499668
    12  C   -0.369219
    13  H    0.168626
    14  H    0.217009
    15  C    0.579112
    16  O   -0.645290
    17  O   -0.469835
    18  N   -0.598629
    19  H    0.345816
    20  C   -0.079176
    21  H    0.168545
    22  C    0.653657
    23  C   -0.353431
    24  H    0.203688
    25  H    0.161228
    26  O   -0.500182
    27  C    0.135316
    28  C   -0.190228
    29  H    0.157922
    30  C   -0.192435
    31  H    0.124751
    32  C   -0.159426
    33  H    0.153252
    34  C   -0.191137
    35  H    0.130474
    36  O   -0.632502
    37  H    0.413598
    38  C    0.354745
    39  N   -0.624510
    40  H    0.333091
    41  C   -0.000731
    42  H    0.209744
    43  C    0.638170
    44  C   -0.326324
    45  H    0.183931
    46  H    0.170885
    47  O   -0.530053
    48  C   -0.272584
    49  H    0.150276
    50  H    0.130098
    51  C   -0.270893
    52  H    0.164358
    53  H    0.142975
    54  C   -0.146823
    55  H    0.177262
    56  H    0.163842
    57  N   -0.785181
    58  H    0.355328
    59  H    0.480601
    60  H    0.329473
    61  O   -0.532361
    62  H    0.427153
 Sum of Mulliken charges =   1.00000

 Dipole moment (field-independent basis, Debye):
    X=              0.6137    Y=              2.5468    Z=             12.7969  Tot=             13.0623
 Quadrupole moment (field-independent basis, Debye-Ang):
   XX=           -155.3335   YY=           -129.3925   ZZ=           -120.8830
   XY=              1.6420   XZ=             16.6583   YZ=            -16.0248

 Normal termination of Gaussian 16 at Tue May 24 03:12:44 2022.
