 Gaussian 16, Revision C.01,
 Gaussian 16:  ES64L-G16RevC.01  3-Jul-2019

 -------------------------------------------------------------------
 # B3LYP/6-31G* guess=read geom=check nosymm integral(ultrafinegrid)
 -------------------------------------------------------------------

 ------------------------------------------------------
 Candidate Structure: Conf:446 Charge calc in gas phase
 ------------------------------------------------------
 Structure from the checkpoint file:  "conf-446.chk"
 Charge =  1 Multiplicity = 1

                          Input orientation:
 ---------------------------------------------------------------------
 Center     Atomic      Atomic             Coordinates (Angstroms)
 Number     Number       Type             X           Y           Z
 ---------------------------------------------------------------------
      1          7           0       -0.115088   -2.714671    3.199516
      2          1           0        0.818925   -2.861565    2.814581
      3          1           0       -0.237350   -2.070167    4.937824
      4          1           0       -0.662850   -3.519249    2.891805
      5          6           0       -0.661530   -1.484254    2.612208
      6          1           0       -0.133420   -0.652641    3.100381
      7          6           0       -0.286342   -1.361373    1.121839
      8          6           0       -2.163115   -1.343076    2.932603
      9          1           0       -2.750904   -1.996382    2.274253
     10          1           0       -2.476741   -0.312438    2.724240
     11          8           0        0.649498   -2.003343    0.656635
     12          6           0       -2.524719   -1.663573    4.402027
     13          1           0       -2.416960   -2.738306    4.585399
     14          1           0       -3.569645   -1.397462    4.575817
     15          6           0       -1.679884   -0.885420    5.416036
     16          8           0       -2.090681    0.083147    6.011159
     17          8           0       -0.420903   -1.338527    5.587619
     18          7           0       -0.947711   -0.409119    0.387842
     19          1           0       -1.850927   -0.103283    0.723980
     20          6           0       -0.706384   -0.264093   -1.052915
     21          1           0       -1.286074    0.618220   -1.354517
     22          6           0        0.775315    0.069317   -1.326368
     23          6           0       -1.173650   -1.470719   -1.899945
     24          1           0       -0.993308   -1.217942   -2.949638
     25          1           0       -0.529160   -2.321946   -1.668046
     26          8           0        1.359232   -0.326220   -2.325385
     27          6           0       -2.626372   -1.819175   -1.662452
     28          6           0       -2.983080   -2.908969   -0.853210
     29          1           0       -2.199730   -3.533487   -0.429182
     30          6           0       -3.661513   -1.057722   -2.220058
     31          1           0       -3.423861   -0.217502   -2.870132
     32          6           0       -4.314809   -3.227127   -0.600204
     33          1           0       -4.585855   -4.080834    0.012983
     34          6           0       -5.001139   -1.359599   -1.976131
     35          1           0       -5.787501   -0.757683   -2.427824
     36          8           0       -6.619575   -2.802324   -0.880305
     37          1           0       -7.229137   -2.211935   -1.350231
     38          6           0       -5.333322   -2.447865   -1.161153
     39          7           0        1.360740    0.915637   -0.413512
     40          1           0        0.860796    1.030751    0.459508
     41          6           0        2.813224    0.997160   -0.337696
     42          1           0        3.217272    0.073113   -0.775529
     43          6           0        3.315851    1.039467    1.108155
     44          6           0        3.428277    2.189480   -1.103423
     45          1           0        3.018043    3.117262   -0.679857
     46          1           0        4.502005    2.182785   -0.881566
     47          8           0        4.450090    1.329977    1.409391
     48          6           0        3.200268    2.132000   -2.620563
     49          1           0        2.151852    2.341856   -2.861015
     50          1           0        3.382577    1.117224   -2.984208
     51          6           0        4.118030    3.083500   -3.414552
     52          1           0        5.167530    2.824829   -3.213678
     53          1           0        3.942819    2.934192   -4.488930
     54          6           0        3.884870    4.548041   -3.065127
     55          1           0        2.867503    4.876972   -3.291777
     56          1           0        4.110964    4.778177   -2.022179
     57          7           0        4.809714    5.446684   -3.895172
     58          1           0        4.676470    6.443950   -3.686756
     59          1           0        4.646800    5.311937   -4.900852
     60          1           0        5.795879    5.219109   -3.716411
     61          8           0        2.368089    0.719550    2.018041
     62          1           0        2.792230    0.763257    2.897341
 ---------------------------------------------------------------------

 SCF Done:  E(RB3LYP) =  -1526.18406481     A.U. after    1 cycles

 Alpha  occ. eigenvalues --  -19.29867 -19.23933 -19.23682 -19.21683 -19.20662
 Alpha  occ. eigenvalues --  -19.20550 -19.16764 -14.65938 -14.45167 -14.44621
 Alpha  occ. eigenvalues --  -14.41261 -10.42764 -10.42105 -10.37630 -10.37305
 Alpha  occ. eigenvalues --  -10.35481 -10.35216 -10.34005 -10.32351 -10.31356
 Alpha  occ. eigenvalues --  -10.31085 -10.31044 -10.30296 -10.27873 -10.25942
 Alpha  occ. eigenvalues --  -10.25903 -10.25869 -10.25730 -10.25607 -10.25555
 Alpha  occ. eigenvalues --  -10.24937  -1.20563  -1.19784  -1.12968  -1.12715
 Alpha  occ. eigenvalues --   -1.12062  -1.12052  -1.11505  -1.04730  -1.02197
 Alpha  occ. eigenvalues --   -1.00761  -0.98036  -0.96268  -0.91876  -0.89635
 Alpha  occ. eigenvalues --   -0.86761  -0.85360  -0.84609  -0.81276  -0.80951
 Alpha  occ. eigenvalues --   -0.79840  -0.78375  -0.77475  -0.76981  -0.73094
 Alpha  occ. eigenvalues --   -0.71994  -0.70692  -0.69367  -0.68747  -0.67901
 Alpha  occ. eigenvalues --   -0.67483  -0.66278  -0.64745  -0.64007  -0.63163
 Alpha  occ. eigenvalues --   -0.62155  -0.61445  -0.60736  -0.58838  -0.58715
 Alpha  occ. eigenvalues --   -0.57916  -0.57599  -0.56957  -0.56261  -0.55404
 Alpha  occ. eigenvalues --   -0.54955  -0.54475  -0.53218  -0.52899  -0.52547
 Alpha  occ. eigenvalues --   -0.52361  -0.51705  -0.51224  -0.50410  -0.50364
 Alpha  occ. eigenvalues --   -0.49816  -0.49706  -0.48709  -0.48607  -0.48202
 Alpha  occ. eigenvalues --   -0.48058  -0.47332  -0.46808  -0.46474  -0.46207
 Alpha  occ. eigenvalues --   -0.45883  -0.45360  -0.44607  -0.44177  -0.43158
 Alpha  occ. eigenvalues --   -0.43073  -0.42158  -0.41625  -0.41521  -0.40084
 Alpha  occ. eigenvalues --   -0.40046  -0.39199  -0.37837  -0.35986  -0.35319
 Alpha  occ. eigenvalues --   -0.34644  -0.34446  -0.33771  -0.33132  -0.31780
 Alpha  occ. eigenvalues --   -0.30362  -0.28141
 Alpha virt. eigenvalues --   -0.16261  -0.09634  -0.09541  -0.09071  -0.07645
 Alpha virt. eigenvalues --   -0.07406  -0.06916  -0.06299  -0.05365  -0.03595
 Alpha virt. eigenvalues --   -0.03177  -0.02669  -0.02274  -0.00711  -0.00254

 Mulliken charges:
               1
     1  N   -0.752552
     2  H    0.342061
     3  H    0.446627
     4  H    0.322671
     5  C   -0.085475
     6  H    0.187318
     7  C    0.609726
     8  C   -0.312477
     9  H    0.167483
    10  H    0.156935
    11  O   -0.520089
    12  C   -0.364267
    13  H    0.165386
    14  H    0.185450
    15  C    0.578134
    16  O   -0.449876
    17  O   -0.596635
    18  N   -0.637700
    19  H    0.349904
    20  C   -0.058570
    21  H    0.167321
    22  C    0.639935
    23  C   -0.355711
    24  H    0.170123
    25  H    0.189816
    26  O   -0.523650
    27  C    0.160898
    28  C   -0.205987
    29  H    0.135167
    30  C   -0.197069
    31  H    0.123630
    32  C   -0.160599
    33  H    0.151283
    34  C   -0.190101
    35  H    0.129798
    36  O   -0.633178
    37  H    0.413723
    38  C    0.353110
    39  N   -0.620412
    40  H    0.358438
    41  C   -0.050105
    42  H    0.218366
    43  C    0.596904
    44  C   -0.275659
    45  H    0.135204
    46  H    0.171692
    47  O   -0.451458
    48  C   -0.270842
    49  H    0.166235
    50  H    0.207044
    51  C   -0.301467
    52  H    0.170557
    53  H    0.171028
    54  C   -0.205164
    55  H    0.227712
    56  H    0.234086
    57  N   -0.731291
    58  H    0.432404
    59  H    0.427918
    60  H    0.429211
    61  O   -0.577301
    62  H    0.434335
 Sum of Mulliken charges =   1.00000

 Dipole moment (field-independent basis, Debye):
    X=             15.3598    Y=             21.6170    Z=            -19.1017  Tot=             32.6817
 Quadrupole moment (field-independent basis, Debye-Ang):
   XX=            -66.5376   YY=            -48.4217   ZZ=           -150.1125
   XY=            111.3682   XZ=            -62.8454   YZ=           -104.5111

 Normal termination of Gaussian 16 at Tue May 24 03:13:02 2022.
