 Gaussian 16, Revision C.01,
 Gaussian 16:  ES64L-G16RevC.01  3-Jul-2019

 -------------------------------------------------------------------
 # B3LYP/6-31G* guess=read geom=check nosymm integral(ultrafinegrid)
 -------------------------------------------------------------------

 -----------------------------------------------------
 Candidate Structure: Conf:90 Charge calc in gas phase
 -----------------------------------------------------
 Structure from the checkpoint file:  "conf-90.chk"
 Charge =  1 Multiplicity = 1

                          Input orientation:
 ---------------------------------------------------------------------
 Center     Atomic      Atomic             Coordinates (Angstroms)
 Number     Number       Type             X           Y           Z
 ---------------------------------------------------------------------
      1          7           0        0.952490   -3.901657    1.619866
      2          1           0        0.827185   -4.633867    2.321904
      3          1           0        0.987351   -4.335071    0.562482
      4          1           0        1.850871   -3.432752    1.771158
      5          6           0       -0.159044   -2.891946    1.665854
      6          1           0       -0.301503   -2.600238    2.712219
      7          6           0        0.341263   -1.654447    0.878999
      8          6           0       -1.486729   -3.478917    1.125698
      9          1           0       -2.157282   -2.631497    0.953527
     10          1           0       -1.951845   -4.074979    1.918616
     11          8           0        1.375063   -1.721599    0.218084
     12          6           0       -1.435084   -4.346328   -0.167553
     13          1           0       -2.388217   -4.234995   -0.688427
     14          1           0       -1.335220   -5.400298    0.113062
     15          6           0       -0.292169   -4.048853   -1.146334
     16          8           0        0.862592   -4.519745   -0.833770
     17          8           0       -0.512975   -3.381753   -2.184015
     18          7           0       -0.430780   -0.558469    1.013950
     19          1           0       -1.282169   -0.632252    1.554336
     20          6           0       -0.256685    0.702827    0.283500
     21          1           0       -0.699406    1.469606    0.929479
     22          6           0        1.249722    1.070127    0.236571
     23          6           0       -1.038417    0.692319   -1.053504
     24          1           0       -0.948003    1.689065   -1.506581
     25          1           0       -0.577225   -0.030346   -1.736352
     26          8           0        1.923101    1.019780    1.253371
     27          6           0       -2.505723    0.352492   -0.878507
     28          6           0       -3.012179   -0.889049   -1.293705
     29          1           0       -2.349874   -1.606936   -1.773540
     30          6           0       -3.393268    1.263431   -0.290358
     31          1           0       -3.038912    2.244002    0.022021
     32          6           0       -4.355297   -1.215338   -1.120508
     33          1           0       -4.752333   -2.166767   -1.460695
     34          6           0       -4.739100    0.948775   -0.107441
     35          1           0       -5.411429    1.674872    0.344956
     36          8           0       -6.526590   -0.673063   -0.376960
     37          1           0       -7.039870    0.057526    0.002931
     38          6           0       -5.226668   -0.296519   -0.522492
     39          7           0        1.735274    1.460744   -0.978319
     40          1           0        1.093542    1.618329   -1.741135
     41          6           0        3.103262    1.921672   -1.138024
     42          1           0        3.591051    1.719538   -0.178394
     43          6           0        3.217968    3.433080   -1.361489
     44          6           0        3.868350    1.177918   -2.255225
     45          1           0        3.425222    1.421879   -3.231418
     46          1           0        4.876878    1.599667   -2.270248
     47          8           0        4.265012    3.992158   -1.587456
     48          6           0        3.935214   -0.352171   -2.069145
     49          1           0        3.913849   -0.592683   -0.998896
     50          1           0        4.902632   -0.705239   -2.449078
     51          6           0        2.821466   -1.140645   -2.780384
     52          1           0        1.841318   -0.812011   -2.421686
     53          1           0        2.868095   -0.945656   -3.861982
     54          6           0        2.971160   -2.633669   -2.509295
     55          1           0        3.951639   -3.003878   -2.824589
     56          1           0        2.820433   -2.855346   -1.452722
     57          7           0        1.931489   -3.447754   -3.236371
     58          1           0        2.061275   -4.444008   -3.036562
     59          1           0        1.970938   -3.304890   -4.249470
     60          1           0        0.925889   -3.263942   -2.874827
     61          8           0        2.029669    4.075628   -1.288201
     62          1           0        2.224488    5.022479   -1.430433
 ---------------------------------------------------------------------

 SCF Done:  E(RB3LYP) =  -1526.22733064     A.U. after    1 cycles

 Alpha  occ. eigenvalues --  -19.28232 -19.25937 -19.24642 -19.23249 -19.23203
 Alpha  occ. eigenvalues --  -19.22066 -19.20461 -14.54850 -14.54551 -14.48717
 Alpha  occ. eigenvalues --  -14.45720 -10.42019 -10.40796 -10.40359 -10.38703
 Alpha  occ. eigenvalues --  -10.38549 -10.35136 -10.34668 -10.33533 -10.33096
 Alpha  occ. eigenvalues --  -10.32760 -10.30650 -10.30061 -10.29820 -10.28654
 Alpha  occ. eigenvalues --  -10.28370 -10.28283 -10.28134 -10.27678 -10.27640
 Alpha  occ. eigenvalues --  -10.27097  -1.18938  -1.17128  -1.16357  -1.14108
 Alpha  occ. eigenvalues --   -1.12773  -1.10169  -1.09886  -1.09332  -1.07044
 Alpha  occ. eigenvalues --   -1.05080  -1.02242  -0.94322  -0.92489  -0.91058
 Alpha  occ. eigenvalues --   -0.89174  -0.86464  -0.84748  -0.83439  -0.82325
 Alpha  occ. eigenvalues --   -0.80468  -0.76708  -0.75347  -0.74712  -0.72113
 Alpha  occ. eigenvalues --   -0.70874  -0.70706  -0.70544  -0.69016  -0.68899
 Alpha  occ. eigenvalues --   -0.68636  -0.67984  -0.67299  -0.66000  -0.64293
 Alpha  occ. eigenvalues --   -0.63079  -0.62863  -0.61814  -0.61009  -0.59634
 Alpha  occ. eigenvalues --   -0.58989  -0.58598  -0.57584  -0.56894  -0.56485
 Alpha  occ. eigenvalues --   -0.56208  -0.55890  -0.55326  -0.54729  -0.54513
 Alpha  occ. eigenvalues --   -0.53813  -0.53452  -0.53004  -0.52680  -0.52434
 Alpha  occ. eigenvalues --   -0.51799  -0.51622  -0.50725  -0.50229  -0.50027
 Alpha  occ. eigenvalues --   -0.49469  -0.49028  -0.48701  -0.48405  -0.47434
 Alpha  occ. eigenvalues --   -0.47302  -0.46982  -0.46323  -0.46160  -0.45988
 Alpha  occ. eigenvalues --   -0.44519  -0.44064  -0.43592  -0.43286  -0.42276
 Alpha  occ. eigenvalues --   -0.41464  -0.39930  -0.39152  -0.38631  -0.37989
 Alpha  occ. eigenvalues --   -0.37505  -0.37298  -0.37106  -0.34601  -0.33982
 Alpha  occ. eigenvalues --   -0.33561  -0.30372
 Alpha virt. eigenvalues --   -0.11231  -0.09294  -0.08502  -0.08185  -0.07805
 Alpha virt. eigenvalues --   -0.07544  -0.07385  -0.06526  -0.03019  -0.02473
 Alpha virt. eigenvalues --   -0.02234  -0.01224  -0.00831  -0.00484  -0.00033

 Mulliken charges:
               1
     1  N   -0.765279
     2  H    0.387111
     3  H    0.458523
     4  H    0.399732
     5  C   -0.134170
     6  H    0.205872
     7  C    0.665677
     8  C   -0.293991
     9  H    0.193274
    10  H    0.179500
    11  O   -0.531250
    12  C   -0.359471
    13  H    0.196768
    14  H    0.176605
    15  C    0.611455
    16  O   -0.633802
    17  O   -0.559870
    18  N   -0.591152
    19  H    0.350871
    20  C   -0.055794
    21  H    0.193432
    22  C    0.645919
    23  C   -0.394373
    24  H    0.167340
    25  H    0.173086
    26  O   -0.515555
    27  C    0.146971
    28  C   -0.227469
    29  H    0.167828
    30  C   -0.196543
    31  H    0.138636
    32  C   -0.172280
    33  H    0.153446
    34  C   -0.192090
    35  H    0.141075
    36  O   -0.630280
    37  H    0.417904
    38  C    0.357144
    39  N   -0.612995
    40  H    0.341187
    41  C   -0.071375
    42  H    0.227031
    43  C    0.596408
    44  C   -0.282668
    45  H    0.142071
    46  H    0.195272
    47  O   -0.444677
    48  C   -0.273722
    49  H    0.172490
    50  H    0.152780
    51  C   -0.281465
    52  H    0.177449
    53  H    0.143233
    54  C   -0.187130
    55  H    0.183922
    56  H    0.227597
    57  N   -0.754149
    58  H    0.399386
    59  H    0.383082
    60  H    0.440487
    61  O   -0.573498
    62  H    0.424480
 Sum of Mulliken charges =   1.00000

 Dipole moment (field-independent basis, Debye):
    X=              0.7145    Y=            -11.3648    Z=             -2.3641  Tot=             11.6300
 Quadrupole moment (field-independent basis, Debye-Ang):
   XX=           -148.5339   YY=           -112.4151   ZZ=           -138.8044
   XY=            -32.7851   XZ=            -28.1381   YZ=             -3.6895

 Normal termination of Gaussian 16 at Tue May 24 03:12:19 2022.
