 Gaussian 16, Revision C.01,
 Gaussian 16:  ES64L-G16RevC.01  3-Jul-2019

 -------------------------------------------------------------------
 # B3LYP/6-31G* guess=read geom=check nosymm integral(ultrafinegrid)
 -------------------------------------------------------------------

 ------------------------------------------------------
 Candidate Structure: Conf:234 Charge calc in gas phase
 ------------------------------------------------------
 Structure from the checkpoint file:  "conf-234.chk"
 Charge =  1 Multiplicity = 1

                          Input orientation:
 ---------------------------------------------------------------------
 Center     Atomic      Atomic             Coordinates (Angstroms)
 Number     Number       Type             X           Y           Z
 ---------------------------------------------------------------------
      1          7           0       -2.787530   -2.156430    1.982806
      2          1           0       -2.661416   -3.151561    1.773607
      3          1           0       -3.317415   -2.073644    2.855083
      4          1           0       -3.288392   -1.703498    1.169138
      5          6           0       -1.472401   -1.397822    2.022594
      6          1           0       -0.685261   -2.117568    2.252193
      7          6           0       -1.378137   -0.841037    0.572917
      8          6           0       -1.542324   -0.317490    3.119371
      9          1           0       -1.971121   -0.777121    4.016964
     10          1           0       -2.196917    0.499695    2.794759
     11          8           0       -2.442479   -0.761665   -0.062961
     12          6           0       -0.155506    0.203784    3.508467
     13          1           0       -0.277013    0.958851    4.295225
     14          1           0        0.354900    0.695636    2.678332
     15          6           0        0.693121   -0.935977    4.100174
     16          8           0        2.005976   -0.865004    3.929069
     17          8           0        0.160177   -1.844881    4.709367
     18          7           0       -0.175711   -0.513354    0.100234
     19          1           0        0.651056   -0.528104    0.704383
     20          6           0        0.038704   -0.104168   -1.315282
     21          1           0       -0.613896    0.753577   -1.516386
     22          6           0        1.522120    0.321713   -1.383332
     23          6           0       -0.278134   -1.230821   -2.319065
     24          1           0        0.517789   -1.977467   -2.253228
     25          1           0       -1.217656   -1.699556   -2.014039
     26          8           0        2.377996   -0.394221   -1.877040
     27          6           0       -0.413414   -0.706870   -3.734537
     28          6           0       -1.628530   -0.152705   -4.167899
     29          1           0       -2.475238   -0.120329   -3.484644
     30          6           0        0.653235   -0.747291   -4.639547
     31          1           0        1.606127   -1.161477   -4.324229
     32          6           0       -1.781301    0.344753   -5.457277
     33          1           0       -2.723576    0.765188   -5.793857
     34          6           0        0.513550   -0.256804   -5.937671
     35          1           0        1.352266   -0.303872   -6.629932
     36          8           0       -0.908638    0.788450   -7.605420
     37          1           0       -0.103314    0.669635   -8.132997
     38          6           0       -0.704869    0.291742   -6.351330
     39          7           0        1.805491    1.519391   -0.773928
     40          1           0        1.040647    1.946653   -0.264890
     41          6           0        3.133613    1.715070   -0.201245
     42          1           0        3.776913    1.027966   -0.763226
     43          6           0        3.141322    1.222947    1.277371
     44          6           0        3.665115    3.150160   -0.375549
     45          1           0        3.244567    3.566668   -1.295995
     46          1           0        3.291622    3.775938    0.445133
     47          8           0        3.995576    1.679314    2.089035
     48          6           0        5.208691    3.187153   -0.452266
     49          1           0        5.518928    3.082946   -1.497815
     50          1           0        5.620484    2.305664    0.054774
     51          6           0        5.873320    4.452044    0.118124
     52          1           0        6.957715    4.390907   -0.043823
     53          1           0        5.535883    5.344032   -0.423498
     54          6           0        5.604715    4.703693    1.604891
     55          1           0        6.260036    5.484395    1.999556
     56          1           0        4.570291    5.001110    1.791282
     57          7           0        5.816259    3.450389    2.413676
     58          1           0        5.735672    3.634764    3.417534
     59          1           0        6.746212    3.052360    2.253042
     60          1           0        5.049525    2.684082    2.164127
     61          8           0        2.273796    0.361864    1.591292
     62          1           0        2.247280   -0.252492    3.173663
 ---------------------------------------------------------------------

 SCF Done:  E(RB3LYP) =  -1526.21483587     A.U. after    1 cycles

 Alpha  occ. eigenvalues --  -19.25853 -19.24787 -19.23439 -19.21833 -19.21588
 Alpha  occ. eigenvalues --  -19.21224 -19.20617 -14.59194 -14.55155 -14.48778
 Alpha  occ. eigenvalues --  -14.45245 -10.42662 -10.39455 -10.39446 -10.39304
 Alpha  occ. eigenvalues --  -10.38210 -10.36794 -10.33529 -10.32714 -10.32274
 Alpha  occ. eigenvalues --  -10.31262 -10.30753 -10.30076 -10.29684 -10.29069
 Alpha  occ. eigenvalues --  -10.26695 -10.25299 -10.25099 -10.24895 -10.24710
 Alpha  occ. eigenvalues --  -10.24300  -1.18250  -1.16494  -1.14911  -1.13215
 Alpha  occ. eigenvalues --   -1.12883  -1.11532  -1.10302  -1.08353  -1.05824
 Alpha  occ. eigenvalues --   -1.04893  -1.01625  -0.93298  -0.91970  -0.91458
 Alpha  occ. eigenvalues --   -0.87922  -0.86357  -0.84404  -0.81721  -0.80574
 Alpha  occ. eigenvalues --   -0.79812  -0.76827  -0.75412  -0.73847  -0.72834
 Alpha  occ. eigenvalues --   -0.71117  -0.70351  -0.70072  -0.69380  -0.68927
 Alpha  occ. eigenvalues --   -0.68146  -0.67772  -0.67416  -0.65738  -0.64917
 Alpha  occ. eigenvalues --   -0.63267  -0.62664  -0.60975  -0.60265  -0.59967
 Alpha  occ. eigenvalues --   -0.59210  -0.58801  -0.58102  -0.56953  -0.56483
 Alpha  occ. eigenvalues --   -0.56015  -0.55262  -0.55013  -0.54084  -0.53353
 Alpha  occ. eigenvalues --   -0.53034  -0.52430  -0.52226  -0.51076  -0.50882
 Alpha  occ. eigenvalues --   -0.50725  -0.50377  -0.50158  -0.49725  -0.49053
 Alpha  occ. eigenvalues --   -0.48309  -0.47959  -0.47923  -0.47673  -0.46930
 Alpha  occ. eigenvalues --   -0.46417  -0.46070  -0.45646  -0.44604  -0.44351
 Alpha  occ. eigenvalues --   -0.44052  -0.43241  -0.42895  -0.42023  -0.40073
 Alpha  occ. eigenvalues --   -0.39349  -0.39294  -0.38168  -0.38012  -0.37821
 Alpha  occ. eigenvalues --   -0.37059  -0.35928  -0.34963  -0.34460  -0.33706
 Alpha  occ. eigenvalues --   -0.31017  -0.27657
 Alpha virt. eigenvalues --   -0.11852  -0.09821  -0.08391  -0.08083  -0.07051
 Alpha virt. eigenvalues --   -0.06377  -0.06051  -0.05467  -0.04822  -0.02828
 Alpha virt. eigenvalues --   -0.02629  -0.01847  -0.01302  -0.00138   0.00190

 Mulliken charges:
               1
     1  N   -0.751463
     2  H    0.419876
     3  H    0.414172
     4  H    0.428789
     5  C   -0.112944
     6  H    0.233335
     7  C    0.652781
     8  C   -0.292804
     9  H    0.190846
    10  H    0.175917
    11  O   -0.544154
    12  C   -0.406340
    13  H    0.201269
    14  H    0.180894
    15  C    0.591243
    16  O   -0.582735
    17  O   -0.476328
    18  N   -0.651479
    19  H    0.402213
    20  C   -0.035225
    21  H    0.183098
    22  C    0.580927
    23  C   -0.358135
    24  H    0.177200
    25  H    0.161721
    26  O   -0.483371
    27  C    0.137648
    28  C   -0.192918
    29  H    0.131529
    30  C   -0.185607
    31  H    0.156165
    32  C   -0.156529
    33  H    0.148476
    34  C   -0.195210
    35  H    0.128456
    36  O   -0.635311
    37  H    0.412547
    38  C    0.353914
    39  N   -0.575889
    40  H    0.324182
    41  C   -0.090243
    42  H    0.217069
    43  C    0.639298
    44  C   -0.276367
    45  H    0.177977
    46  H    0.130404
    47  O   -0.614101
    48  C   -0.293074
    49  H    0.180331
    50  H    0.145000
    51  C   -0.292404
    52  H    0.166968
    53  H    0.185720
    54  C   -0.183519
    55  H    0.202239
    56  H    0.202694
    57  N   -0.770459
    58  H    0.398552
    59  H    0.391440
    60  H    0.471896
    61  O   -0.592306
    62  H    0.452130
 Sum of Mulliken charges =   1.00000

 Dipole moment (field-independent basis, Debye):
    X=              7.5094    Y=              8.8300    Z=              6.7575  Tot=             13.4173
 Quadrupole moment (field-independent basis, Debye-Ang):
   XX=            -58.4551   YY=           -117.4018   ZZ=           -157.4162
   XY=             92.5604   XZ=             -3.3425   YZ=             21.5632

 Normal termination of Gaussian 16 at Tue May 24 03:12:15 2022.
