 Gaussian 16, Revision C.01,
 Gaussian 16:  ES64L-G16RevC.01  3-Jul-2019

 -------------------------------------------------------------------
 # B3LYP/6-31G* guess=read geom=check nosymm integral(ultrafinegrid)
 -------------------------------------------------------------------

 ------------------------------------------------------
 Candidate Structure: Conf:472 Charge calc in gas phase
 ------------------------------------------------------
 Structure from the checkpoint file:  "conf-472.chk"
 Charge =  1 Multiplicity = 1

                          Input orientation:
 ---------------------------------------------------------------------
 Center     Atomic      Atomic             Coordinates (Angstroms)
 Number     Number       Type             X           Y           Z
 ---------------------------------------------------------------------
      1          7           0       -3.108423   -0.258607    2.713284
      2          1           0       -3.570778   -0.092784    1.772074
      3          1           0       -3.701397   -0.806817    3.340921
      4          1           0       -2.912802    0.647639    3.152270
      5          6           0       -1.828903   -0.968722    2.299413
      6          1           0       -2.104663   -2.027959    2.245951
      7          6           0       -1.676253   -0.507908    0.816471
      8          6           0       -0.698167   -0.795892    3.313454
      9          1           0        0.103266   -1.477672    3.010833
     10          1           0       -1.061788   -1.174798    4.276847
     11          8           0       -2.732744   -0.190247    0.244592
     12          6           0       -0.107633    0.618964    3.474901
     13          1           0       -0.056850    0.906747    4.527891
     14          1           0       -0.725755    1.388302    2.985174
     15          6           0        1.313389    0.779708    2.878722
     16          8           0        1.677952   -0.019316    1.970377
     17          8           0        1.977965    1.740562    3.353414
     18          7           0       -0.465570   -0.581184    0.272115
     19          1           0        0.345938   -0.659299    0.906168
     20          6           0       -0.236057   -0.398153   -1.173078
     21          1           0       -1.209784   -0.227723   -1.631590
     22          6           0        0.600708    0.856876   -1.502957
     23          6           0        0.408129   -1.687076   -1.758587
     24          1           0        1.378957   -1.844409   -1.272112
     25          1           0       -0.234859   -2.524387   -1.461603
     26          8           0        0.263232    1.614801   -2.396046
     27          6           0        0.568976   -1.666561   -3.262873
     28          6           0        1.751659   -1.212858   -3.864838
     29          1           0        2.574665   -0.868578   -3.243259
     30          6           0       -0.470366   -2.095944   -4.095990
     31          1           0       -1.397268   -2.461662   -3.658883
     32          6           0        1.895498   -1.184497   -5.247286
     33          1           0        2.811177   -0.834262   -5.712537
     34          6           0       -0.342706   -2.073701   -5.483340
     35          1           0       -1.161543   -2.417367   -6.112292
     36          8           0        1.042065   -1.570138   -7.412836
     37          1           0        0.245553   -1.886266   -7.867422
     38          6           0        0.844548   -1.615504   -6.064991
     39          7           0        1.771031    0.994439   -0.794771
     40          1           0        1.886003    0.517928    0.101775
     41          6           0        2.633844    2.158789   -0.986650
     42          1           0        2.361324    2.595418   -1.949940
     43          6           0        4.053468    1.603957   -1.088630
     44          6           0        2.440886    3.156565    0.170514
     45          1           0        1.450877    3.604730    0.028806
     46          1           0        2.356950    2.577272    1.092426
     47          8           0        4.816471    1.427131   -0.147196
     48          6           0        3.493041    4.276080    0.352177
     49          1           0        3.161850    5.179951   -0.169204
     50          1           0        4.452965    4.004601   -0.104070
     51          6           0        3.719782    4.612664    1.842835
     52          1           0        4.091209    5.639841    1.938947
     53          1           0        2.765099    4.577840    2.381943
     54          6           0        4.748808    3.742053    2.574527
     55          1           0        5.744504    3.872436    2.139451
     56          1           0        4.797109    4.024519    3.629420
     57          7           0        4.449625    2.265678    2.533227
     58          1           0        5.114800    1.752860    3.117553
     59          1           0        4.545710    1.897894    1.564252
     60          1           0        3.448572    2.018840    2.876386
     61          8           0        4.385404    1.267833   -2.336834
     62          1           0        5.278203    0.869784   -2.314335
 ---------------------------------------------------------------------

 SCF Done:  E(RB3LYP) =  -1526.22723170     A.U. after    2 cycles

 Alpha  occ. eigenvalues --  -19.30759 -19.26047 -19.25502 -19.23552 -19.21134
 Alpha  occ. eigenvalues --  -19.20933 -19.20238 -14.59606 -14.51705 -14.48119
 Alpha  occ. eigenvalues --  -14.44801 -10.43538 -10.42516 -10.40195 -10.39128
 Alpha  occ. eigenvalues --  -10.37599 -10.34708 -10.33341 -10.32895 -10.32879
 Alpha  occ. eigenvalues --  -10.30942 -10.30728 -10.29530 -10.28629 -10.28372
 Alpha  occ. eigenvalues --  -10.28037 -10.25706 -10.25541 -10.25298 -10.25019
 Alpha  occ. eigenvalues --  -10.24434  -1.22094  -1.18137  -1.14143  -1.13211
 Alpha  occ. eigenvalues --   -1.12931  -1.12247  -1.11673  -1.07287  -1.05578
 Alpha  occ. eigenvalues --   -1.04597  -1.01523  -0.93435  -0.91806  -0.90532
 Alpha  occ. eigenvalues --   -0.87943  -0.85954  -0.84970  -0.81731  -0.80895
 Alpha  occ. eigenvalues --   -0.80100  -0.77075  -0.75651  -0.74025  -0.73743
 Alpha  occ. eigenvalues --   -0.72052  -0.71207  -0.69777  -0.68846  -0.68408
 Alpha  occ. eigenvalues --   -0.67680  -0.66907  -0.65683  -0.65514  -0.65407
 Alpha  occ. eigenvalues --   -0.63103  -0.61629  -0.60534  -0.60421  -0.59693
 Alpha  occ. eigenvalues --   -0.59536  -0.58840  -0.58219  -0.57778  -0.56297
 Alpha  occ. eigenvalues --   -0.55777  -0.55399  -0.55182  -0.54025  -0.53499
 Alpha  occ. eigenvalues --   -0.53180  -0.53062  -0.52662  -0.52179  -0.51256
 Alpha  occ. eigenvalues --   -0.50780  -0.50412  -0.50322  -0.49905  -0.49433
 Alpha  occ. eigenvalues --   -0.48710  -0.48311  -0.48104  -0.47803  -0.46929
 Alpha  occ. eigenvalues --   -0.46438  -0.46235  -0.45872  -0.45652  -0.44096
 Alpha  occ. eigenvalues --   -0.44066  -0.43447  -0.43055  -0.42688  -0.42352
 Alpha  occ. eigenvalues --   -0.40175  -0.39806  -0.39676  -0.39245  -0.38534
 Alpha  occ. eigenvalues --   -0.36637  -0.35832  -0.35191  -0.34308  -0.33296
 Alpha  occ. eigenvalues --   -0.31233  -0.27813
 Alpha virt. eigenvalues --   -0.12658  -0.11087  -0.09576  -0.06954  -0.06610
 Alpha virt. eigenvalues --   -0.05997  -0.05330  -0.05110  -0.04632  -0.03163
 Alpha virt. eigenvalues --   -0.02322  -0.00779   0.00482   0.00734   0.01100

 Mulliken charges:
               1
     1  N   -0.748221
     2  H    0.433475
     3  H    0.412862
     4  H    0.410156
     5  C   -0.133405
     6  H    0.230083
     7  C    0.639395
     8  C   -0.299194
     9  H    0.215058
    10  H    0.169052
    11  O   -0.542660
    12  C   -0.384823
    13  H    0.193444
    14  H    0.150657
    15  C    0.627777
    16  O   -0.584811
    17  O   -0.588741
    18  N   -0.631938
    19  H    0.395438
    20  C   -0.088547
    21  H    0.215855
    22  C    0.623051
    23  C   -0.360878
    24  H    0.155044
    25  H    0.157606
    26  O   -0.484690
    27  C    0.171857
    28  C   -0.180024
    29  H    0.123643
    30  C   -0.185831
    31  H    0.126417
    32  C   -0.154799
    33  H    0.146231
    34  C   -0.188076
    35  H    0.130998
    36  O   -0.633939
    37  H    0.413819
    38  C    0.356242
    39  N   -0.655060
    40  H    0.377704
    41  C   -0.037220
    42  H    0.219806
    43  C    0.608531
    44  C   -0.311255
    45  H    0.176295
    46  H    0.158437
    47  O   -0.502956
    48  C   -0.288432
    49  H    0.172797
    50  H    0.149836
    51  C   -0.287223
    52  H    0.175509
    53  H    0.177982
    54  C   -0.178441
    55  H    0.191270
    56  H    0.195499
    57  N   -0.810404
    58  H    0.383119
    59  H    0.433916
    60  H    0.442553
    61  O   -0.529052
    62  H    0.429205
 Sum of Mulliken charges =   1.00000

 Dipole moment (field-independent basis, Debye):
    X=              2.2102    Y=              2.4212    Z=             11.6123  Tot=             12.0662
 Quadrupole moment (field-independent basis, Debye-Ang):
   XX=            -89.7827   YY=           -150.5293   ZZ=           -125.7796
   XY=             41.0441   XZ=             -9.1417   YZ=             17.6278

 Normal termination of Gaussian 16 at Tue May 24 03:12:59 2022.
