 Gaussian 16, Revision C.01,
 Gaussian 16:  ES64L-G16RevC.01  3-Jul-2019

 -------------------------------------------------------------------
 # B3LYP/6-31G* guess=read geom=check nosymm integral(ultrafinegrid)
 -------------------------------------------------------------------

 ------------------------------------------------------
 Candidate Structure: Conf:948 Charge calc in gas phase
 ------------------------------------------------------
 Structure from the checkpoint file:  "conf-948.chk"
 Charge =  1 Multiplicity = 1

                          Input orientation:
 ---------------------------------------------------------------------
 Center     Atomic      Atomic             Coordinates (Angstroms)
 Number     Number       Type             X           Y           Z
 ---------------------------------------------------------------------
      1          7           0        0.593869   -3.457957    1.133188
      2          1           0        1.472995   -3.409637    1.758799
      3          1           0       -0.091542   -4.124315    1.499161
      4          1           0        0.767235   -3.697825    0.147729
      5          6           0        0.102826   -2.044644    1.201550
      6          1           0        0.994517   -1.439533    1.006430
      7          6           0       -0.706642   -1.743153   -0.068042
      8          6           0       -0.351790   -1.738736    2.641083
      9          1           0       -0.687298   -2.669772    3.115744
     10          1           0       -1.232600   -1.088267    2.638762
     11          8           0       -0.579601   -2.506247   -1.019720
     12          6           0        0.760146   -1.059618    3.474443
     13          1           0        0.548073   -1.175031    4.543781
     14          1           0        0.751590    0.017261    3.281149
     15          6           0        2.214426   -1.506456    3.229862
     16          8           0        3.082722   -0.684518    3.658555
     17          8           0        2.509812   -2.575950    2.621052
     18          7           0       -1.321179   -0.517894   -0.114424
     19          1           0       -1.234708   -0.022563    0.766902
     20          6           0       -0.956312    0.417207   -1.213626
     21          1           0       -1.532173    1.327150   -1.011387
     22          6           0        0.537251    0.780192   -0.947747
     23          6           0       -1.345116   -0.098090   -2.613393
     24          1           0       -0.721548   -0.953926   -2.880401
     25          1           0       -2.367040   -0.486617   -2.523211
     26          8           0        0.949288    0.739687    0.221187
     27          6           0       -1.284414    0.955860   -3.705088
     28          6           0       -2.021020    2.150874   -3.621880
     29          1           0       -2.642649    2.347052   -2.750763
     30          6           0       -0.530579    0.736295   -4.865260
     31          1           0        0.029283   -0.190236   -4.974899
     32          6           0       -1.999788    3.090534   -4.644087
     33          1           0       -2.576240    4.007592   -4.578704
     34          6           0       -0.500307    1.669563   -5.903613
     35          1           0        0.085769    1.469044   -6.798216
     36          8           0       -1.257940    3.809788   -6.763198
     37          1           0       -0.748021    3.511024   -7.532658
     38          6           0       -1.236539    2.852743   -5.796143
     39          7           0        1.357924    1.100081   -1.967987
     40          1           0        1.007600    1.204678   -2.914797
     41          6           0        2.766087    1.368521   -1.667290
     42          1           0        2.788113    1.978543   -0.759923
     43          6           0        3.463647    2.176998   -2.746857
     44          6           0        3.541187    0.044722   -1.392989
     45          1           0        2.840018   -0.615319   -0.874003
     46          1           0        3.782245   -0.435588   -2.348970
     47          8           0        4.587977    2.604715   -2.621721
     48          6           0        4.813754    0.171536   -0.538222
     49          1           0        5.582572    0.728213   -1.083670
     50          1           0        5.207525   -0.848968   -0.412353
     51          6           0        4.581237    0.833838    0.837716
     52          1           0        4.628436    1.922797    0.726085
     53          1           0        3.576961    0.613135    1.219921
     54          6           0        5.610052    0.449543    1.905108
     55          1           0        6.627728    0.448354    1.501327
     56          1           0        5.575256    1.146395    2.746156
     57          7           0        5.317841   -0.905560    2.489655
     58          1           0        6.063832   -1.207151    3.120902
     59          1           0        5.225071   -1.622817    1.766239
     60          1           0        4.308498   -0.886584    3.079491
     61          8           0        2.719112    2.339342   -3.861373
     62          1           0        3.251102    2.864810   -4.489950
 ---------------------------------------------------------------------

 SCF Done:  E(RB3LYP) =  -1526.21614101     A.U. after    1 cycles

 Alpha  occ. eigenvalues --  -19.30174 -19.25604 -19.25347 -19.23959 -19.22811
 Alpha  occ. eigenvalues --  -19.22583 -19.22255 -14.55353 -14.52169 -14.47303
 Alpha  occ. eigenvalues --  -14.47139 -10.42444 -10.42078 -10.40237 -10.39919
 Alpha  occ. eigenvalues --  -10.37473 -10.35042 -10.34960 -10.34516 -10.33188
 Alpha  occ. eigenvalues --  -10.32622 -10.29864 -10.29836 -10.29702 -10.29365
 Alpha  occ. eigenvalues --  -10.28774 -10.28045 -10.27831 -10.27617 -10.27304
 Alpha  occ. eigenvalues --  -10.26741  -1.20903  -1.17323  -1.15829  -1.14755
 Alpha  occ. eigenvalues --   -1.13789  -1.11836  -1.10715  -1.07618  -1.05999
 Alpha  occ. eigenvalues --   -1.04433  -1.03245  -0.94058  -0.92067  -0.91383
 Alpha  occ. eigenvalues --   -0.88688  -0.86642  -0.84022  -0.83186  -0.82356
 Alpha  occ. eigenvalues --   -0.80876  -0.76570  -0.75658  -0.75480  -0.72378
 Alpha  occ. eigenvalues --   -0.71533  -0.70600  -0.70270  -0.69261  -0.68559
 Alpha  occ. eigenvalues --   -0.68013  -0.66904  -0.66602  -0.65846  -0.64519
 Alpha  occ. eigenvalues --   -0.63269  -0.62569  -0.62008  -0.60916  -0.59620
 Alpha  occ. eigenvalues --   -0.59166  -0.58061  -0.57837  -0.57150  -0.56432
 Alpha  occ. eigenvalues --   -0.56321  -0.56023  -0.55785  -0.55082  -0.54887
 Alpha  occ. eigenvalues --   -0.54241  -0.53306  -0.53175  -0.52392  -0.52114
 Alpha  occ. eigenvalues --   -0.51602  -0.51425  -0.50583  -0.50514  -0.50161
 Alpha  occ. eigenvalues --   -0.49926  -0.49211  -0.48539  -0.48272  -0.48077
 Alpha  occ. eigenvalues --   -0.48003  -0.47648  -0.46820  -0.45738  -0.45340
 Alpha  occ. eigenvalues --   -0.45132  -0.44066  -0.43902  -0.43657  -0.41983
 Alpha  occ. eigenvalues --   -0.41882  -0.41092  -0.39277  -0.38132  -0.38056
 Alpha  occ. eigenvalues --   -0.37641  -0.37053  -0.36747  -0.36627  -0.35930
 Alpha  occ. eigenvalues --   -0.33625  -0.30096
 Alpha virt. eigenvalues --   -0.12356  -0.09746  -0.09005  -0.08895  -0.07487
 Alpha virt. eigenvalues --   -0.07283  -0.06379  -0.06243  -0.03601  -0.03115
 Alpha virt. eigenvalues --   -0.02243  -0.01599  -0.01006  -0.00442   0.00442

 Mulliken charges:
               1
     1  N   -0.746448
     2  H    0.441631
     3  H    0.391744
     4  H    0.402609
     5  C   -0.130416
     6  H    0.249913
     7  C    0.595912
     8  C   -0.307493
     9  H    0.166566
    10  H    0.185943
    11  O   -0.499267
    12  C   -0.368199
    13  H    0.199631
    14  H    0.202060
    15  C    0.626319
    16  O   -0.593496
    17  O   -0.612961
    18  N   -0.559214
    19  H    0.345957
    20  C   -0.100068
    21  H    0.195450
    22  C    0.624638
    23  C   -0.359012
    24  H    0.182414
    25  H    0.189659
    26  O   -0.560675
    27  C    0.126010
    28  C   -0.186946
    29  H    0.137635
    30  C   -0.213577
    31  H    0.139242
    32  C   -0.152207
    33  H    0.162218
    34  C   -0.184240
    35  H    0.135385
    36  O   -0.628184
    37  H    0.416157
    38  C    0.354608
    39  N   -0.634314
    40  H    0.385149
    41  C   -0.039010
    42  H    0.212821
    43  C    0.591308
    44  C   -0.275278
    45  H    0.151068
    46  H    0.160198
    47  O   -0.448161
    48  C   -0.279401
    49  H    0.191769
    50  H    0.121514
    51  C   -0.304379
    52  H    0.184390
    53  H    0.188214
    54  C   -0.178266
    55  H    0.189305
    56  H    0.203325
    57  N   -0.776010
    58  H    0.383793
    59  H    0.377503
    60  H    0.464677
    61  O   -0.570006
    62  H    0.430497
 Sum of Mulliken charges =   1.00000

 Dipole moment (field-independent basis, Debye):
    X=             10.1684    Y=             -4.8425    Z=             -0.3676  Tot=             11.2687
 Quadrupole moment (field-independent basis, Debye-Ang):
   XX=           -114.0384   YY=           -151.0996   ZZ=           -122.7549
   XY=             -9.4339   XZ=              6.5652   YZ=            -26.4806

 Normal termination of Gaussian 16 at Tue May 24 03:12:49 2022.
