 Gaussian 16, Revision C.01,
 Gaussian 16:  ES64L-G16RevC.01  3-Jul-2019

 -------------------------------------------------------------------
 # B3LYP/6-31G* guess=read geom=check nosymm integral(ultrafinegrid)
 -------------------------------------------------------------------

 -----------------------------------------------------
 Candidate Structure: Conf:34 Charge calc in gas phase
 -----------------------------------------------------
 Structure from the checkpoint file:  "conf-34.chk"
 Charge =  1 Multiplicity = 1

                          Input orientation:
 ---------------------------------------------------------------------
 Center     Atomic      Atomic             Coordinates (Angstroms)
 Number     Number       Type             X           Y           Z
 ---------------------------------------------------------------------
      1          7           0       -0.237918    1.365938    3.905612
      2          1           0       -0.130325    1.298889    4.918300
      3          1           0        0.621649    1.805020    3.482892
      4          1           0       -1.016657    1.991459    3.635240
      5          6           0       -0.543831    0.050294    3.234926
      6          1           0       -1.414896   -0.353772    3.762542
      7          6           0       -1.004356    0.526335    1.818269
      8          6           0        0.604199   -0.980354    3.251704
      9          1           0        1.287786   -0.783865    2.417964
     10          1           0        0.129574   -1.945234    3.038526
     11          8           0       -1.560793    1.622354    1.745424
     12          6           0        1.463946   -1.135405    4.540971
     13          1           0        1.743316   -2.184762    4.653853
     14          1           0        0.916467   -0.840584    5.443599
     15          6           0        2.747003   -0.331114    4.384605
     16          8           0        2.506236    0.988277    4.545181
     17          8           0        3.813812   -0.788956    4.048860
     18          7           0       -0.712669   -0.253437    0.761471
     19          1           0       -0.230257   -1.129322    0.912671
     20          6           0       -0.627891    0.287874   -0.612920
     21          1           0       -1.239683    1.191693   -0.614928
     22          6           0        0.880269    0.618981   -0.762690
     23          6           0       -1.120977   -0.710751   -1.666972
     24          1           0       -1.001703   -0.225189   -2.643637
     25          1           0       -0.439985   -1.568768   -1.675877
     26          8           0        1.674592   -0.230017   -1.146889
     27          6           0       -2.551173   -1.156316   -1.456178
     28          6           0       -2.841770   -2.422387   -0.930160
     29          1           0       -2.027517   -3.107708   -0.702877
     30          6           0       -3.625880   -0.314628   -1.766540
     31          1           0       -3.438210    0.669386   -2.191314
     32          6           0       -4.151461   -2.838355   -0.711626
     33          1           0       -4.372890   -3.824195   -0.315532
     34          6           0       -4.943927   -0.713549   -1.553782
     35          1           0       -5.763809   -0.045034   -1.808797
     36          8           0       -6.475314   -2.435814   -0.788221
     37          1           0       -7.118577   -1.770579   -1.078242
     38          6           0       -5.211867   -1.980202   -1.022230
     39          7           0        1.252755    1.851543   -0.296616
     40          1           0        0.549637    2.383166    0.208082
     41          6           0        2.623730    2.077100    0.165521
     42          1           0        3.175057    1.162042   -0.076604
     43          6           0        2.601328    2.226374    1.706249
     44          6           0        3.288938    3.253145   -0.594629
     45          1           0        2.967439    3.153603   -1.635677
     46          1           0        2.888527    4.210554   -0.236018
     47          8           0        1.500516    2.455382    2.247803
     48          6           0        4.830386    3.260629   -0.557890
     49          1           0        5.201225    3.742943   -1.468595
     50          1           0        5.180539    2.219718   -0.629535
     51          6           0        5.461203    3.965576    0.668648
     52          1           0        5.794745    4.973143    0.396935
     53          1           0        4.723991    4.088227    1.467622
     54          6           0        6.671851    3.232779    1.241983
     55          1           0        7.445053    3.055355    0.490352
     56          1           0        7.121477    3.790373    2.066135
     57          7           0        6.261379    1.871820    1.802931
     58          1           0        6.474597    1.112229    1.153176
     59          1           0        5.178687    1.848416    2.003649
     60          1           0        6.748353    1.652641    2.675073
     61          8           0        3.696264    2.056109    2.351073
     62          1           0        3.172171    1.490359    4.011418
 ---------------------------------------------------------------------

 SCF Done:  E(RB3LYP) =  -1526.22443682     A.U. after    1 cycles

 Alpha  occ. eigenvalues --  -19.28084 -19.24469 -19.24120 -19.23781 -19.23641
 Alpha  occ. eigenvalues --  -19.22603 -19.21253 -14.56326 -14.55282 -14.48588
 Alpha  occ. eigenvalues --  -14.45048 -10.42009 -10.41895 -10.40642 -10.38905
 Alpha  occ. eigenvalues --  -10.38268 -10.37401 -10.33572 -10.33485 -10.32824
 Alpha  occ. eigenvalues --  -10.31836 -10.31538 -10.30899 -10.30043 -10.29117
 Alpha  occ. eigenvalues --  -10.27490 -10.26180 -10.26047 -10.25988 -10.25656
 Alpha  occ. eigenvalues --  -10.25101  -1.19566  -1.17006  -1.16254  -1.13143
 Alpha  occ. eigenvalues --   -1.12250  -1.11041  -1.10946  -1.10264  -1.07194
 Alpha  occ. eigenvalues --   -1.04871  -1.01533  -0.93158  -0.92226  -0.92033
 Alpha  occ. eigenvalues --   -0.88328  -0.86956  -0.85133  -0.82072  -0.81510
 Alpha  occ. eigenvalues --   -0.80048  -0.77003  -0.75298  -0.73736  -0.71677
 Alpha  occ. eigenvalues --   -0.71383  -0.71011  -0.70133  -0.69975  -0.68926
 Alpha  occ. eigenvalues --   -0.68783  -0.68228  -0.67611  -0.66073  -0.65154
 Alpha  occ. eigenvalues --   -0.62968  -0.62265  -0.61284  -0.61007  -0.59067
 Alpha  occ. eigenvalues --   -0.58923  -0.58239  -0.57679  -0.57389  -0.57220
 Alpha  occ. eigenvalues --   -0.56737  -0.56272  -0.55778  -0.55481  -0.54836
 Alpha  occ. eigenvalues --   -0.53436  -0.53272  -0.52796  -0.52410  -0.51833
 Alpha  occ. eigenvalues --   -0.51669  -0.50584  -0.50407  -0.50046  -0.49649
 Alpha  occ. eigenvalues --   -0.49027  -0.48882  -0.48829  -0.48457  -0.47812
 Alpha  occ. eigenvalues --   -0.47062  -0.46826  -0.46695  -0.45819  -0.45171
 Alpha  occ. eigenvalues --   -0.44724  -0.44121  -0.43622  -0.42243  -0.41492
 Alpha  occ. eigenvalues --   -0.40367  -0.39499  -0.39318  -0.38906  -0.38686
 Alpha  occ. eigenvalues --   -0.38503  -0.37237  -0.36582  -0.34751  -0.34088
 Alpha  occ. eigenvalues --   -0.31925  -0.28423
 Alpha virt. eigenvalues --   -0.11965  -0.09629  -0.09261  -0.08381  -0.07143
 Alpha virt. eigenvalues --   -0.06935  -0.05800  -0.05463  -0.04559  -0.03323
 Alpha virt. eigenvalues --   -0.01783  -0.01159  -0.00594   0.00220   0.00477

 Mulliken charges:
               1
     1  N   -0.759664
     2  H    0.397057
     3  H    0.470363
     4  H    0.413671
     5  C   -0.113405
     6  H    0.220289
     7  C    0.659650
     8  C   -0.328804
     9  H    0.190707
    10  H    0.192952
    11  O   -0.527828
    12  C   -0.348659
    13  H    0.205475
    14  H    0.166299
    15  C    0.566761
    16  O   -0.610525
    17  O   -0.447925
    18  N   -0.591148
    19  H    0.351925
    20  C   -0.071861
    21  H    0.197840
    22  C    0.604821
    23  C   -0.386660
    24  H    0.176205
    25  H    0.175941
    26  O   -0.512238
    27  C    0.183473
    28  C   -0.201787
    29  H    0.120467
    30  C   -0.186989
    31  H    0.131005
    32  C   -0.157801
    33  H    0.150194
    34  C   -0.190193
    35  H    0.133166
    36  O   -0.633980
    37  H    0.414369
    38  C    0.353159
    39  N   -0.591928
    40  H    0.354509
    41  C   -0.079658
    42  H    0.181239
    43  C    0.644013
    44  C   -0.270738
    45  H    0.180900
    46  H    0.158743
    47  O   -0.584352
    48  C   -0.285236
    49  H    0.176783
    50  H    0.123468
    51  C   -0.294651
    52  H    0.185350
    53  H    0.187248
    54  C   -0.185193
    55  H    0.204537
    56  H    0.205592
    57  N   -0.774547
    58  H    0.400181
    59  H    0.458995
    60  H    0.404409
    61  O   -0.645620
    62  H    0.439636
 Sum of Mulliken charges =   1.00000

 Dipole moment (field-independent basis, Debye):
    X=             12.6133    Y=              7.5349    Z=             10.7478  Tot=             18.2040
 Quadrupole moment (field-independent basis, Debye-Ang):
   XX=            -46.4662   YY=           -157.0233   ZZ=           -133.8708
   XY=             43.2306   XZ=             20.5321   YZ=              4.2402

 Normal termination of Gaussian 16 at Tue May 24 03:12:17 2022.
