 Gaussian 16, Revision C.01,
 Gaussian 16:  ES64L-G16RevC.01  3-Jul-2019

 -------------------------------------------------------------------
 # B3LYP/6-31G* guess=read geom=check nosymm integral(ultrafinegrid)
 -------------------------------------------------------------------

 ------------------------------------------------------
 Candidate Structure: Conf:123 Charge calc in gas phase
 ------------------------------------------------------
 Structure from the checkpoint file:  "conf-123.chk"
 Charge =  1 Multiplicity = 1

                          Input orientation:
 ---------------------------------------------------------------------
 Center     Atomic      Atomic             Coordinates (Angstroms)
 Number     Number       Type             X           Y           Z
 ---------------------------------------------------------------------
      1          7           0        0.324540   -3.920312    3.045461
      2          1           0        0.258693   -4.292712    3.995026
      3          1           0        0.228480   -4.689447    2.356785
      4          1           0        1.237264   -3.439925    2.871608
      5          6           0       -0.732906   -2.885583    2.717004
      6          1           0       -1.136501   -2.537047    3.674486
      7          6           0        0.059045   -1.750363    2.036110
      8          6           0       -1.815156   -3.484830    1.805314
      9          1           0       -2.475642   -2.665350    1.493288
     10          1           0       -2.451118   -4.179932    2.363547
     11          8           0        1.289638   -1.827867    1.922210
     12          6           0       -1.300275   -4.198234    0.560528
     13          1           0       -0.794059   -5.151524    0.803710
     14          1           0       -0.612682   -3.580138   -0.028549
     15          6           0       -2.602933   -4.594958   -0.294031
     16          8           0       -2.599571   -4.148082   -1.459452
     17          8           0       -3.427647   -5.247729    0.374307
     18          7           0       -0.705334   -0.716327    1.669184
     19          1           0       -1.707236   -0.882052    1.660136
     20          6           0       -0.307407    0.396377    0.792686
     21          1           0       -0.939457    1.237785    1.105652
     22          6           0        1.141467    0.870251    1.003403
     23          6           0       -0.628150    0.051954   -0.676143
     24          1           0       -0.254568    0.880874   -1.287059
     25          1           0       -0.052813   -0.833893   -0.963821
     26          8           0        1.924708    1.023414    0.074409
     27          6           0       -2.109508   -0.183915   -0.898784
     28          6           0       -2.603077   -1.487316   -1.105419
     29          1           0       -1.940066   -2.351042   -1.160903
     30          6           0       -3.028214    0.874634   -0.882160
     31          1           0       -2.680240    1.898226   -0.748135
     32          6           0       -3.962689   -1.730140   -1.275900
     33          1           0       -4.310407   -2.746795   -1.431681
     34          6           0       -4.393144    0.645747   -1.055732
     35          1           0       -5.090939    1.481415   -1.049773
     36          8           0       -6.187565   -0.946126   -1.424502
     37          1           0       -6.698948   -0.122041   -1.416354
     38          6           0       -4.865521   -0.661370   -1.251351
     39          7           0        1.465333    1.236611    2.283490
     40          1           0        0.900282    0.903096    3.056763
     41          6           0        2.868376    1.447878    2.586163
     42          1           0        3.452896    0.672558    2.066948
     43          6           0        3.065471    1.215559    4.076335
     44          6           0        3.370505    2.832509    2.092463
     45          1           0        2.701490    3.128935    1.281128
     46          1           0        3.280546    3.582920    2.886959
     47          8           0        2.222585    0.770786    4.823819
     48          6           0        4.803414    2.778346    1.548685
     49          1           0        4.850920    1.976515    0.800149
     50          1           0        5.507417    2.525364    2.350118
     51          6           0        5.215505    4.103558    0.883492
     52          1           0        4.476830    4.360391    0.111221
     53          1           0        5.212775    4.915069    1.624514
     54          6           0        6.594766    3.984386    0.248500
     55          1           0        7.385410    3.812436    0.982859
     56          1           0        6.635414    3.197836   -0.508933
     57          7           0        6.973859    5.279767   -0.479213
     58          1           0        7.900921    5.221131   -0.918837
     59          1           0        6.984930    6.078157    0.167622
     60          1           0        6.292502    5.497502   -1.217335
     61          8           0        4.312361    1.543756    4.476831
     62          1           0        4.363538    1.347740    5.432543
 ---------------------------------------------------------------------

 SCF Done:  E(RB3LYP) =  -1526.09449091     A.U. after    1 cycles

 Alpha  occ. eigenvalues --  -19.31115 -19.25420 -19.24003 -19.21106 -19.20627
 Alpha  occ. eigenvalues --  -19.07117 -19.06954 -14.66503 -14.56077 -14.47110
 Alpha  occ. eigenvalues --  -14.45132 -10.43478 -10.43408 -10.40526 -10.38228
 Alpha  occ. eigenvalues --  -10.36059 -10.36039 -10.34675 -10.32562 -10.32361
 Alpha  occ. eigenvalues --  -10.30675 -10.27788 -10.26589 -10.26206 -10.25146
 Alpha  occ. eigenvalues --  -10.23104 -10.22781 -10.22473 -10.22052 -10.20624
 Alpha  occ. eigenvalues --  -10.20000  -1.21974  -1.20342  -1.15965  -1.13308
 Alpha  occ. eigenvalues --   -1.12786  -1.10232  -1.08734  -1.04065  -1.02088
 Alpha  occ. eigenvalues --   -1.00570  -0.97079  -0.92606  -0.90846  -0.89582
 Alpha  occ. eigenvalues --   -0.88227  -0.85856  -0.84305  -0.80618  -0.79442
 Alpha  occ. eigenvalues --   -0.78930  -0.77979  -0.77471  -0.77299  -0.73571
 Alpha  occ. eigenvalues --   -0.72399  -0.71666  -0.71151  -0.69080  -0.68921
 Alpha  occ. eigenvalues --   -0.68008  -0.67530  -0.66549  -0.65268  -0.64472
 Alpha  occ. eigenvalues --   -0.63125  -0.61953  -0.60658  -0.59848  -0.59373
 Alpha  occ. eigenvalues --   -0.58476  -0.57886  -0.57297  -0.57065  -0.56351
 Alpha  occ. eigenvalues --   -0.56162  -0.55439  -0.54175  -0.52799  -0.52184
 Alpha  occ. eigenvalues --   -0.51681  -0.51552  -0.51167  -0.50848  -0.50232
 Alpha  occ. eigenvalues --   -0.49461  -0.48939  -0.48384  -0.47852  -0.47227
 Alpha  occ. eigenvalues --   -0.46997  -0.46667  -0.46154  -0.45268  -0.44621
 Alpha  occ. eigenvalues --   -0.43369  -0.43305  -0.43203  -0.43113  -0.41857
 Alpha  occ. eigenvalues --   -0.40561  -0.40258  -0.39120  -0.38698  -0.37893
 Alpha  occ. eigenvalues --   -0.36925  -0.36851  -0.36080  -0.35925  -0.35433
 Alpha  occ. eigenvalues --   -0.35213  -0.34422  -0.28048  -0.24990  -0.22779
 Alpha  occ. eigenvalues --   -0.21606  -0.21385
 Alpha virt. eigenvalues --   -0.16794  -0.10283  -0.10057  -0.10047  -0.09346
 Alpha virt. eigenvalues --   -0.07970  -0.07607  -0.06769  -0.04405  -0.03561
 Alpha virt. eigenvalues --   -0.03379  -0.02906  -0.02459  -0.02005  -0.01534

 Mulliken charges:
               1
     1  N   -0.742368
     2  H    0.405148
     3  H    0.399316
     4  H    0.414959
     5  C   -0.125613
     6  H    0.202408
     7  C    0.652427
     8  C   -0.303745
     9  H    0.184806
    10  H    0.200192
    11  O   -0.550628
    12  C   -0.412695
    13  H    0.126790
    14  H    0.139674
    15  C    0.599709
    16  O   -0.567359
    17  O   -0.575801
    18  N   -0.604329
    19  H    0.366523
    20  C   -0.083808
    21  H    0.182080
    22  C    0.637718
    23  C   -0.335277
    24  H    0.165245
    25  H    0.176381
    26  O   -0.526052
    27  C    0.126499
    28  C   -0.245261
    29  H    0.199816
    30  C   -0.200001
    31  H    0.103790
    32  C   -0.174769
    33  H    0.210668
    34  C   -0.194534
    35  H    0.113546
    36  O   -0.628017
    37  H    0.404824
    38  C    0.347080
    39  N   -0.619589
    40  H    0.354608
    41  C   -0.017653
    42  H    0.203182
    43  C    0.577392
    44  C   -0.265470
    45  H    0.185265
    46  H    0.155979
    47  O   -0.458427
    48  C   -0.288936
    49  H    0.178235
    50  H    0.175136
    51  C   -0.295319
    52  H    0.176248
    53  H    0.170924
    54  C   -0.207759
    55  H    0.230699
    56  H    0.235877
    57  N   -0.731961
    58  H    0.434251
    59  H    0.428626
    60  H    0.430815
    61  O   -0.570231
    62  H    0.428766
 Sum of Mulliken charges =   1.00000

 Dipole moment (field-independent basis, Debye):
    X=             37.6846    Y=             26.8803    Z=             12.8206  Tot=             48.0318
 Quadrupole moment (field-independent basis, Debye-Ang):
   XX=             22.5010   YY=            -77.3398   ZZ=           -139.4003
   XY=            104.5384   XZ=             -3.8139   YZ=            -50.3785

 Normal termination of Gaussian 16 at Tue May 24 03:12:15 2022.
