 Gaussian 16, Revision C.01,
 Gaussian 16:  ES64L-G16RevC.01  3-Jul-2019

 -------------------------------------------------------------------
 # B3LYP/6-31G* guess=read geom=check nosymm integral(ultrafinegrid)
 -------------------------------------------------------------------

 ------------------------------------------------------
 Candidate Structure: Conf:879 Charge calc in gas phase
 ------------------------------------------------------
 Structure from the checkpoint file:  "conf-879.chk"
 Charge =  1 Multiplicity = 1

                          Input orientation:
 ---------------------------------------------------------------------
 Center     Atomic      Atomic             Coordinates (Angstroms)
 Number     Number       Type             X           Y           Z
 ---------------------------------------------------------------------
      1          7           0       -1.039716   -4.007312    2.289476
      2          1           0       -0.468310   -4.402613    3.039900
      3          1           0       -2.006320   -4.321511    2.412858
      4          1           0       -0.703832   -4.319252    1.326181
      5          6           0       -0.941202   -2.499416    2.166413
      6          1           0        0.001730   -2.229224    2.653893
      7          6           0       -0.712273   -2.301336    0.630684
      8          6           0       -2.118349   -1.745849    2.838351
      9          1           0       -2.834141   -2.474736    3.242442
     10          1           0       -2.655946   -1.171531    2.078040
     11          8           0       -0.423262   -3.311402   -0.036328
     12          6           0       -1.665821   -0.790173    3.952771
     13          1           0       -1.138040   -1.335239    4.743702
     14          1           0       -2.547416   -0.346131    4.428756
     15          6           0       -0.743058    0.359309    3.477955
     16          8           0       -0.006788    0.861209    4.349293
     17          8           0       -0.799402    0.695131    2.247866
     18          7           0       -0.816765   -1.039132    0.247326
     19          1           0       -0.973869   -0.355012    1.040253
     20          6           0       -0.340975   -0.407158   -0.988929
     21          1           0       -0.946242    0.503956   -1.068349
     22          6           0        1.135805    0.070528   -0.795454
     23          6           0       -0.540455   -1.221977   -2.278345
     24          1           0        0.082697   -2.116824   -2.252405
     25          1           0       -1.585605   -1.551909   -2.310001
     26          8           0        2.058100   -0.321425   -1.505393
     27          6           0       -0.212168   -0.368155   -3.488623
     28          6           0       -1.006671    0.738747   -3.816742
     29          1           0       -1.929338    0.922849   -3.271065
     30          6           0        0.936126   -0.609433   -4.253501
     31          1           0        1.562272   -1.462395   -4.018054
     32          6           0       -0.631193    1.631358   -4.822995
     33          1           0       -1.242855    2.493273   -5.072292
     34          6           0        1.328365    0.270163   -5.261341
     35          1           0        2.244310    0.090757   -5.820610
     36          8           0        1.011095    2.417939   -6.371692
     37          1           0        1.408609    2.020508   -7.164707
     38          6           0        0.556409    1.403621   -5.510604
     39          7           0        1.283972    0.979998    0.201661
     40          1           0        0.541368    1.043761    0.904285
     41          6           0        2.626213    1.400394    0.657512
     42          1           0        3.255407    0.505570    0.724200
     43          6           0        2.402316    1.958253    2.069838
     44          6           0        3.289790    2.383503   -0.318110
     45          1           0        4.268434    2.657000    0.094636
     46          1           0        3.487055    1.813311   -1.233387
     47          8           0        2.410502    3.142193    2.338597
     48          6           0        2.487474    3.662382   -0.627461
     49          1           0        2.709192    4.425872    0.119561
     50          1           0        1.412565    3.462566   -0.537865
     51          6           0        2.772028    4.231096   -2.033366
     52          1           0        2.387909    5.258790   -2.097736
     53          1           0        3.858156    4.281686   -2.201023
     54          6           0        2.118638    3.386983   -3.122957
     55          1           0        2.462268    2.350327   -3.129890
     56          1           0        1.030014    3.379368   -3.039637
     57          7           0        2.423693    3.942556   -4.511949
     58          1           0        1.955424    3.394149   -5.277468
     59          1           0        3.434607    3.942549   -4.683699
     60          1           0        2.110080    4.916317   -4.585937
     61          8           0        2.109029    0.959309    2.896312
     62          1           0        1.421589    1.222809    3.599464
 ---------------------------------------------------------------------

 SCF Done:  E(RB3LYP) =  -1526.18622043     A.U. after    1 cycles

 Alpha  occ. eigenvalues --  -19.31619 -19.24457 -19.21725 -19.20218 -19.18627
 Alpha  occ. eigenvalues --  -19.17457 -19.16041 -14.59374 -14.57907 -14.46000
 Alpha  occ. eigenvalues --  -14.43125 -10.40980 -10.37992 -10.37573 -10.37074
 Alpha  occ. eigenvalues --  -10.36645 -10.36037 -10.34852 -10.33463 -10.31182
 Alpha  occ. eigenvalues --  -10.30850 -10.30211 -10.29973 -10.29809 -10.29680
 Alpha  occ. eigenvalues --  -10.29584 -10.29245 -10.28416 -10.27303 -10.26851
 Alpha  occ. eigenvalues --  -10.26443  -1.18456  -1.16580  -1.13825  -1.13651
 Alpha  occ. eigenvalues --   -1.11828  -1.11460  -1.09964  -1.05461  -1.03953
 Alpha  occ. eigenvalues --   -1.01085  -0.99604  -0.96190  -0.91775  -0.91210
 Alpha  occ. eigenvalues --   -0.88701  -0.85894  -0.85474  -0.83876  -0.81589
 Alpha  occ. eigenvalues --   -0.80463  -0.76563  -0.75107  -0.74386  -0.72922
 Alpha  occ. eigenvalues --   -0.72507  -0.72276  -0.71888  -0.70363  -0.69270
 Alpha  occ. eigenvalues --   -0.68405  -0.67556  -0.65640  -0.65237  -0.64020
 Alpha  occ. eigenvalues --   -0.63623  -0.62844  -0.60964  -0.60703  -0.58905
 Alpha  occ. eigenvalues --   -0.58183  -0.57939  -0.57877  -0.56820  -0.56128
 Alpha  occ. eigenvalues --   -0.55337  -0.55054  -0.54035  -0.53780  -0.53196
 Alpha  occ. eigenvalues --   -0.53098  -0.52953  -0.52022  -0.51753  -0.51201
 Alpha  occ. eigenvalues --   -0.50209  -0.50036  -0.49302  -0.49280  -0.49034
 Alpha  occ. eigenvalues --   -0.48663  -0.48070  -0.47653  -0.47113  -0.46586
 Alpha  occ. eigenvalues --   -0.46390  -0.45694  -0.45248  -0.44703  -0.44383
 Alpha  occ. eigenvalues --   -0.43667  -0.43397  -0.42835  -0.42276  -0.41968
 Alpha  occ. eigenvalues --   -0.40264  -0.38898  -0.38052  -0.35856  -0.35655
 Alpha  occ. eigenvalues --   -0.34456  -0.33522  -0.32738  -0.32170  -0.32018
 Alpha  occ. eigenvalues --   -0.31720  -0.30292
 Alpha virt. eigenvalues --   -0.11142  -0.10881  -0.10511  -0.10425  -0.08353
 Alpha virt. eigenvalues --   -0.06507  -0.05453  -0.04964  -0.04815  -0.04696
 Alpha virt. eigenvalues --   -0.03270  -0.02718  -0.01071  -0.00718  -0.00122

 Mulliken charges:
               1
     1  N   -0.760774
     2  H    0.414533
     3  H    0.405429
     4  H    0.427447
     5  C   -0.106734
     6  H    0.241417
     7  C    0.637370
     8  C   -0.312820
     9  H    0.148026
    10  H    0.199758
    11  O   -0.555846
    12  C   -0.362220
    13  H    0.159998
    14  H    0.189110
    15  C    0.614724
    16  O   -0.561078
    17  O   -0.612418
    18  N   -0.645511
    19  H    0.421782
    20  C   -0.070380
    21  H    0.173585
    22  C    0.621728
    23  C   -0.353811
    24  H    0.198417
    25  H    0.164940
    26  O   -0.532100
    27  C    0.165124
    28  C   -0.192643
    29  H    0.151786
    30  C   -0.149183
    31  H    0.170746
    32  C   -0.165777
    33  H    0.157482
    34  C   -0.185567
    35  H    0.142890
    36  O   -0.685865
    37  H    0.435901
    38  C    0.284524
    39  N   -0.661179
    40  H    0.399691
    41  C    0.002387
    42  H    0.177902
    43  C    0.550030
    44  C   -0.285753
    45  H    0.163033
    46  H    0.148082
    47  O   -0.455056
    48  C   -0.263658
    49  H    0.199378
    50  H    0.154409
    51  C   -0.296524
    52  H    0.156342
    53  H    0.155541
    54  C   -0.202385
    55  H    0.233962
    56  H    0.213437
    57  N   -0.772614
    58  H    0.451604
    59  H    0.403897
    60  H    0.406071
    61  O   -0.605651
    62  H    0.453064
 Sum of Mulliken charges =   1.00000

 Dipole moment (field-independent basis, Debye):
    X=              2.2445    Y=             -0.1865    Z=            -15.3214  Tot=             15.4861
 Quadrupole moment (field-independent basis, Debye-Ang):
   XX=           -147.6919   YY=            -89.4983   ZZ=            -86.4599
   XY=             44.8094   XZ=            -58.3151   YZ=           -108.4327

 Normal termination of Gaussian 16 at Tue May 24 03:13:05 2022.
