 Gaussian 16, Revision C.01,
 Gaussian 16:  ES64L-G16RevC.01  3-Jul-2019

 -------------------------------------------------------------------
 # B3LYP/6-31G* guess=read geom=check nosymm integral(ultrafinegrid)
 -------------------------------------------------------------------

 ------------------------------------------------------
 Candidate Structure: Conf:883 Charge calc in gas phase
 ------------------------------------------------------
 Structure from the checkpoint file:  "conf-883.chk"
 Charge =  1 Multiplicity = 1

                          Input orientation:
 ---------------------------------------------------------------------
 Center     Atomic      Atomic             Coordinates (Angstroms)
 Number     Number       Type             X           Y           Z
 ---------------------------------------------------------------------
      1          7           0       -0.214902   -3.207301    3.185638
      2          1           0        0.644878   -2.845884    3.597104
      3          1           0       -1.448001   -3.637005    4.596813
      4          1           0        0.082881   -3.791700    2.403919
      5          6           0       -1.035880   -2.102313    2.687680
      6          1           0       -1.311929   -1.491807    3.556566
      7          6           0       -0.284791   -1.215476    1.683644
      8          6           0       -2.333731   -2.643017    2.035064
      9          1           0       -2.091862   -3.064282    1.050480
     10          1           0       -3.016160   -1.802569    1.860205
     11          8           0        0.707373   -1.597084    1.075736
     12          6           0       -3.064389   -3.721254    2.866035
     13          1           0       -2.488010   -4.652197    2.852430
     14          1           0       -4.035941   -3.919285    2.407694
     15          6           0       -3.315484   -3.291028    4.313077
     16          8           0       -2.240763   -3.373498    5.128003
     17          8           0       -4.378278   -2.875684    4.707591
     18          7           0       -0.780168    0.060321    1.517817
     19          1           0       -1.678928    0.280130    1.929963
     20          6           0       -0.331637    0.900313    0.406235
     21          1           0       -0.743664    1.897772    0.604721
     22          6           0        1.203936    1.066916    0.439526
     23          6           0       -0.839512    0.421722   -0.975363
     24          1           0       -0.333229   -0.513649   -1.225706
     25          1           0       -1.905536    0.191079   -0.852934
     26          8           0        1.875180    1.015354   -0.602482
     27          6           0       -0.666150    1.429986   -2.096704
     28          6           0        0.097113    1.123746   -3.232540
     29          1           0        0.573511    0.149700   -3.304516
     30          6           0       -1.283839    2.687951   -2.052793
     31          1           0       -1.913446    2.955308   -1.206467
     32          6           0        0.259628    2.037823   -4.276584
     33          1           0        0.807103    1.773355   -5.177142
     34          6           0       -1.131377    3.619585   -3.081592
     35          1           0       -1.634674    4.582445   -3.023403
     36          8           0       -0.168432    4.145185   -5.251741
     37          1           0       -0.743347    4.922110   -5.160939
     38          6           0       -0.361108    3.296398   -4.206256
     39          7           0        1.721494    1.390805    1.639063
     40          1           0        1.118913    1.277471    2.446574
     41          6           0        3.155951    1.537198    1.920068
     42          1           0        3.624614    0.542326    1.864940
     43          6           0        3.345943    2.001963    3.369169
     44          6           0        3.913544    2.464148    0.948146
     45          1           0        4.921274    2.586352    1.356045
     46          1           0        4.016624    1.926682    0.004526
     47          8           0        4.290386    2.642748    3.757472
     48          6           0        3.271363    3.849942    0.745471
     49          1           0        3.540042    4.482654    1.597350
     50          1           0        2.176275    3.770074    0.766375
     51          6           0        3.696206    4.562672   -0.558031
     52          1           0        3.687984    5.647281   -0.398838
     53          1           0        4.734137    4.313104   -0.818667
     54          6           0        2.783049    4.335208   -1.765508
     55          1           0        1.739627    4.552221   -1.521635
     56          1           0        3.076353    4.968317   -2.606802
     57          7           0        2.787752    2.913087   -2.278972
     58          1           0        2.114835    2.792255   -3.055867
     59          1           0        2.485387    2.210763   -1.549242
     60          1           0        3.715583    2.639441   -2.616738
     61          8           0        2.350043    1.567900    4.177437
     62          1           0        2.556182    1.871760    5.082986
 ---------------------------------------------------------------------

 SCF Done:  E(RB3LYP) =  -1526.21759390     A.U. after    2 cycles

 Alpha  occ. eigenvalues --  -19.31930 -19.29081 -19.25897 -19.25665 -19.23628
 Alpha  occ. eigenvalues --  -19.23299 -19.18195 -14.57777 -14.49297 -14.48569
 Alpha  occ. eigenvalues --  -14.43351 -10.44235 -10.42830 -10.40137 -10.38717
 Alpha  occ. eigenvalues --  -10.36941 -10.36883 -10.36810 -10.36638 -10.33382
 Alpha  occ. eigenvalues --  -10.33001 -10.31221 -10.31115 -10.31004 -10.30962
 Alpha  occ. eigenvalues --  -10.30792 -10.30779 -10.30642 -10.30386 -10.29663
 Alpha  occ. eigenvalues --  -10.27335  -1.22676  -1.17426  -1.17290  -1.15439
 Alpha  occ. eigenvalues --   -1.14248  -1.13758  -1.12692  -1.06273  -1.06231
 Alpha  occ. eigenvalues --   -1.04294  -1.00189  -0.97108  -0.93811  -0.91243
 Alpha  occ. eigenvalues --   -0.89780  -0.87761  -0.86535  -0.85478  -0.84104
 Alpha  occ. eigenvalues --   -0.80128  -0.79027  -0.77231  -0.74246  -0.73837
 Alpha  occ. eigenvalues --   -0.73387  -0.71681  -0.71336  -0.70689  -0.70127
 Alpha  occ. eigenvalues --   -0.69462  -0.69116  -0.65946  -0.65647  -0.65212
 Alpha  occ. eigenvalues --   -0.64398  -0.63660  -0.61780  -0.61449  -0.60925
 Alpha  occ. eigenvalues --   -0.60224  -0.59603  -0.58757  -0.58370  -0.57832
 Alpha  occ. eigenvalues --   -0.57230  -0.56535  -0.56170  -0.55447  -0.54978
 Alpha  occ. eigenvalues --   -0.54317  -0.53869  -0.53794  -0.53335  -0.53103
 Alpha  occ. eigenvalues --   -0.52998  -0.52258  -0.52081  -0.51935  -0.50629
 Alpha  occ. eigenvalues --   -0.50333  -0.50108  -0.49709  -0.49391  -0.48579
 Alpha  occ. eigenvalues --   -0.48128  -0.47028  -0.46807  -0.46526  -0.46342
 Alpha  occ. eigenvalues --   -0.45827  -0.45309  -0.44643  -0.44220  -0.43871
 Alpha  occ. eigenvalues --   -0.43828  -0.41815  -0.40124  -0.40039  -0.38707
 Alpha  occ. eigenvalues --   -0.38146  -0.37523  -0.37217  -0.35959  -0.35619
 Alpha  occ. eigenvalues --   -0.33309  -0.31805
 Alpha virt. eigenvalues --   -0.12759  -0.12338  -0.11181  -0.10660  -0.09491
 Alpha virt. eigenvalues --   -0.08963  -0.05365  -0.04450  -0.03893  -0.03557
 Alpha virt. eigenvalues --   -0.03271  -0.02298  -0.01949  -0.01444  -0.00984

 Mulliken charges:
               1
     1  N   -0.737015
     2  H    0.329922
     3  H    0.443050
     4  H    0.334535
     5  C   -0.098435
     6  H    0.179077
     7  C    0.598179
     8  C   -0.285248
     9  H    0.164636
    10  H    0.155452
    11  O   -0.506355
    12  C   -0.362268
    13  H    0.171063
    14  H    0.188929
    15  C    0.577222
    16  O   -0.590199
    17  O   -0.442186
    18  N   -0.625963
    19  H    0.348434
    20  C   -0.065664
    21  H    0.173267
    22  C    0.672716
    23  C   -0.348749
    24  H    0.195717
    25  H    0.167256
    26  O   -0.583953
    27  C    0.174016
    28  C   -0.192261
    29  H    0.160859
    30  C   -0.197989
    31  H    0.143837
    32  C   -0.242701
    33  H    0.171658
    34  C   -0.202845
    35  H    0.149647
    36  O   -0.626960
    37  H    0.423634
    38  C    0.355630
    39  N   -0.614604
    40  H    0.374021
    41  C   -0.030827
    42  H    0.218302
    43  C    0.593285
    44  C   -0.288560
    45  H    0.197501
    46  H    0.140861
    47  O   -0.432885
    48  C   -0.288779
    49  H    0.190328
    50  H    0.142732
    51  C   -0.288748
    52  H    0.193022
    53  H    0.168972
    54  C   -0.198158
    55  H    0.205797
    56  H    0.208709
    57  N   -0.788996
    58  H    0.407685
    59  H    0.469318
    60  H    0.396087
    61  O   -0.583714
    62  H    0.438706
 Sum of Mulliken charges =   1.00000

 Dipole moment (field-independent basis, Debye):
    X=              9.3155    Y=             13.7184    Z=             -6.2551  Tot=             17.7229
 Quadrupole moment (field-independent basis, Debye-Ang):
   XX=           -163.8290   YY=           -113.9984   ZZ=           -165.2465
   XY=             14.3469   XZ=             11.3130   YZ=            -18.8332

 Normal termination of Gaussian 16 at Tue May 24 03:12:56 2022.
