 Gaussian 16, Revision C.01,
 Gaussian 16:  ES64L-G16RevC.01  3-Jul-2019

 -------------------------------------------------------------------
 # B3LYP/6-31G* guess=read geom=check nosymm integral(ultrafinegrid)
 -------------------------------------------------------------------

 ------------------------------------------------------
 Candidate Structure: Conf:549 Charge calc in gas phase
 ------------------------------------------------------
 Structure from the checkpoint file:  "conf-549.chk"
 Charge =  1 Multiplicity = 1

                          Input orientation:
 ---------------------------------------------------------------------
 Center     Atomic      Atomic             Coordinates (Angstroms)
 Number     Number       Type             X           Y           Z
 ---------------------------------------------------------------------
      1          7           0       -1.087273   -3.444480   -0.359634
      2          1           0       -0.853246   -3.290152   -1.339569
      3          1           0       -0.250391   -5.107964    0.206283
      4          1           0       -2.062077   -3.165355   -0.241361
      5          6           0       -0.202312   -2.635447    0.501117
      6          1           0        0.810003   -3.023504    0.339783
      7          6           0       -0.139541   -1.186252   -0.003156
      8          6           0       -0.557018   -2.836554    1.982732
      9          1           0       -1.526796   -2.371074    2.211714
     10          1           0        0.201572   -2.331304    2.591834
     11          8           0        0.379195   -0.955740   -1.119925
     12          6           0       -0.651163   -4.321879    2.410795
     13          1           0       -1.573728   -4.761907    2.017660
     14          1           0       -0.692046   -4.372264    3.500744
     15          6           0        0.548012   -5.157942    1.955639
     16          8           0        1.465872   -5.457760    2.677850
     17          8           0        0.529601   -5.520674    0.650516
     18          7           0       -0.701598   -0.214724    0.723334
     19          1           0       -1.079353   -0.458016    1.627364
     20          6           0       -0.725156    1.198723    0.342447
     21          1           0       -1.183187    1.715224    1.194223
     22          6           0        0.732943    1.728531    0.290682
     23          6           0       -1.614744    1.467566   -0.902691
     24          1           0       -1.748923    2.553868   -0.990012
     25          1           0       -1.092182    1.124703   -1.799519
     26          8           0        1.602933    1.225262    0.990395
     27          6           0       -2.973001    0.804169   -0.811179
     28          6           0       -3.246247   -0.371947   -1.525162
     29          1           0       -2.483640   -0.785026   -2.181755
     30          6           0       -3.985449    1.328589    0.001241
     31          1           0       -3.816388    2.251169    0.553459
     32          6           0       -4.478104   -1.012328   -1.428135
     33          1           0       -4.696944   -1.910005   -1.998042
     34          6           0       -5.224656    0.699571    0.112232
     35          1           0       -5.998905    1.129987    0.743772
     36          8           0       -6.658198   -1.147091   -0.545114
     37          1           0       -7.283557   -0.667700    0.021312
     38          6           0       -5.476223   -0.478125   -0.602353
     39          7           0        0.979288    2.773479   -0.557657
     40          1           0        0.186012    3.214984   -1.003120
     41          6           0        2.189667    3.589613   -0.434753
     42          1           0        2.754886    3.147145    0.394417
     43          6           0        1.849091    5.017437    0.029392
     44          6           0        3.095746    3.643042   -1.698219
     45          1           0        2.472302    3.538817   -2.596425
     46          1           0        3.510038    4.653747   -1.725783
     47          8           0        2.621943    5.942472   -0.021847
     48          6           0        4.295082    2.663223   -1.743394
     49          1           0        4.677605    2.508707   -0.726039
     50          1           0        5.106004    3.152350   -2.293321
     51          6           0        4.078851    1.290728   -2.416044
     52          1           0        3.836518    1.436550   -3.478401
     53          1           0        5.025146    0.734714   -2.375576
     54          6           0        2.970220    0.508481   -1.737071
     55          1           0        3.122523    0.408432   -0.661025
     56          1           0        2.001513    0.982296   -1.883708
     57          7           0        2.787087   -0.902203   -2.262049
     58          1           0        1.887872   -1.257967   -1.837477
     59          1           0        3.568161   -1.516463   -2.011957
     60          1           0        2.694778   -0.918216   -3.282935
     61          8           0        0.597660    5.117830    0.534541
     62          1           0        0.496068    6.042391    0.834451
 ---------------------------------------------------------------------

 SCF Done:  E(RB3LYP) =  -1526.20695518     A.U. after    1 cycles

 Alpha  occ. eigenvalues --  -19.30678 -19.26754 -19.26344 -19.24945 -19.24608
 Alpha  occ. eigenvalues --  -19.23928 -19.19714 -14.59218 -14.50166 -14.48651
 Alpha  occ. eigenvalues --  -14.45634 -10.42943 -10.42700 -10.41400 -10.38392
 Alpha  occ. eigenvalues --  -10.37390 -10.36730 -10.35623 -10.35230 -10.34484
 Alpha  occ. eigenvalues --  -10.32592 -10.31310 -10.31181 -10.30779 -10.30351
 Alpha  occ. eigenvalues --  -10.29345 -10.29111 -10.29042 -10.28880 -10.28533
 Alpha  occ. eigenvalues --  -10.28130  -1.21444  -1.17691  -1.15857  -1.15791
 Alpha  occ. eigenvalues --   -1.14972  -1.13677  -1.12446  -1.07842  -1.06271
 Alpha  occ. eigenvalues --   -1.04864  -1.02110  -0.95380  -0.93529  -0.91195
 Alpha  occ. eigenvalues --   -0.89320  -0.88371  -0.84707  -0.84494  -0.83259
 Alpha  occ. eigenvalues --   -0.81085  -0.78392  -0.77359  -0.74754  -0.73478
 Alpha  occ. eigenvalues --   -0.72975  -0.72641  -0.71853  -0.71351  -0.69778
 Alpha  occ. eigenvalues --   -0.69246  -0.68640  -0.67161  -0.66074  -0.64270
 Alpha  occ. eigenvalues --   -0.63905  -0.63552  -0.62817  -0.60885  -0.60005
 Alpha  occ. eigenvalues --   -0.59470  -0.59006  -0.58940  -0.58658  -0.57828
 Alpha  occ. eigenvalues --   -0.56943  -0.56520  -0.56163  -0.55461  -0.55038
 Alpha  occ. eigenvalues --   -0.54294  -0.53823  -0.53515  -0.53384  -0.52665
 Alpha  occ. eigenvalues --   -0.51963  -0.51838  -0.51575  -0.51239  -0.50549
 Alpha  occ. eigenvalues --   -0.50176  -0.49783  -0.49555  -0.48888  -0.48257
 Alpha  occ. eigenvalues --   -0.47886  -0.46990  -0.46820  -0.46316  -0.45837
 Alpha  occ. eigenvalues --   -0.45695  -0.45626  -0.44981  -0.43355  -0.43275
 Alpha  occ. eigenvalues --   -0.42476  -0.42415  -0.41100  -0.40331  -0.40025
 Alpha  occ. eigenvalues --   -0.37741  -0.37542  -0.37408  -0.36592  -0.34984
 Alpha  occ. eigenvalues --   -0.33306  -0.31320
 Alpha virt. eigenvalues --   -0.12591  -0.10879  -0.10579  -0.10075  -0.09788
 Alpha virt. eigenvalues --   -0.08787  -0.06582  -0.05056  -0.04637  -0.04010
 Alpha virt. eigenvalues --   -0.03138  -0.02870  -0.01653  -0.01223  -0.00923

 Mulliken charges:
               1
     1  N   -0.745273
     2  H    0.329470
     3  H    0.443411
     4  H    0.331779
     5  C   -0.076107
     6  H    0.182020
     7  C    0.659184
     8  C   -0.314890
     9  H    0.149876
    10  H    0.187884
    11  O   -0.616109
    12  C   -0.366150
    13  H    0.172075
    14  H    0.195697
    15  C    0.577621
    16  O   -0.433220
    17  O   -0.591951
    18  N   -0.571955
    19  H    0.365875
    20  C   -0.064769
    21  H    0.197769
    22  C    0.635502
    23  C   -0.391334
    24  H    0.161607
    25  H    0.173052
    26  O   -0.523753
    27  C    0.172954
    28  C   -0.205171
    29  H    0.128195
    30  C   -0.197405
    31  H    0.135764
    32  C   -0.168981
    33  H    0.156944
    34  C   -0.189194
    35  H    0.144201
    36  O   -0.627032
    37  H    0.420032
    38  C    0.358027
    39  N   -0.616941
    40  H    0.349483
    41  C   -0.057737
    42  H    0.225733
    43  C    0.577865
    44  C   -0.295942
    45  H    0.146995
    46  H    0.211846
    47  O   -0.430051
    48  C   -0.283291
    49  H    0.167901
    50  H    0.179874
    51  C   -0.286527
    52  H    0.158362
    53  H    0.164453
    54  C   -0.206545
    55  H    0.232508
    56  H    0.218623
    57  N   -0.752815
    58  H    0.434990
    59  H    0.406541
    60  H    0.401595
    61  O   -0.574844
    62  H    0.432278
 Sum of Mulliken charges =   1.00000

 Dipole moment (field-independent basis, Debye):
    X=              0.1728    Y=              4.7110    Z=             -7.2433  Tot=              8.6423
 Quadrupole moment (field-independent basis, Debye-Ang):
   XX=           -120.9559   YY=           -181.0650   ZZ=           -157.3872
   XY=              4.1844   XZ=            -43.2371   YZ=             14.6999

 Normal termination of Gaussian 16 at Tue May 24 03:13:02 2022.
